 Entering Gaussian System, Link 0=/shared/apps/gaussian/G09_LINUX_LINDA/g09/g09
 Input=/scratch/bhoorasingh.p/QMfiles/Reactions/H_Abstraction/OO+[H]_[H][H]+[O]O/m062x/OO+[H]_[H][H]+[O]O.gjf
 Output=/scratch/bhoorasingh.p/QMfiles/Reactions/H_Abstraction/OO+[H]_[H][H]+[O]O/m062x/OO+[H]_[H][H]+[O]O.log
 Initial command:
 /shared/apps/gaussian/G09_LINUX_LINDA/g09/l1.exe /scratch/bhoorasingh.p/Gau-18417.inp -scrdir=/scratch/bhoorasingh.p/
 Entering Link 1 = /shared/apps/gaussian/G09_LINUX_LINDA/g09/l1.exe PID=     18418.
  
 Copyright (c) 1988,1990,1992,1993,1995,1998,2003,2009,2010,
            Gaussian, Inc.  All Rights Reserved.
  
 This is part of the Gaussian(R) 09 program.  It is based on
 the Gaussian(R) 03 system (copyright 2003, Gaussian, Inc.),
 the Gaussian(R) 98 system (copyright 1998, Gaussian, Inc.),
 the Gaussian(R) 94 system (copyright 1995, Gaussian, Inc.),
 the Gaussian 92(TM) system (copyright 1992, Gaussian, Inc.),
 the Gaussian 90(TM) system (copyright 1990, Gaussian, Inc.),
 the Gaussian 88(TM) system (copyright 1988, Gaussian, Inc.),
 the Gaussian 86(TM) system (copyright 1986, Carnegie Mellon
 University), and the Gaussian 82(TM) system (copyright 1983,
 Carnegie Mellon University). Gaussian is a federally registered
 trademark of Gaussian, Inc.
  
 This software contains proprietary and confidential information,
 including trade secrets, belonging to Gaussian, Inc.
  
 This software is provided under written license and may be
 used, copied, transmitted, or stored only in accord with that
 written license.
  
 The following legend is applicable only to US Government
 contracts under FAR:
  
                    RESTRICTED RIGHTS LEGEND
  
 Use, reproduction and disclosure by the US Government is
 subject to restrictions as set forth in subparagraphs (a)
 and (c) of the Commercial Computer Software - Restricted
 Rights clause in FAR 52.227-19.
  
 Gaussian, Inc.
 340 Quinnipiac St., Bldg. 40, Wallingford CT 06492
  
  
 ---------------------------------------------------------------
 Warning -- This program may not be used in any manner that
 competes with the business of Gaussian, Inc. or will provide
 assistance to any competitor of Gaussian, Inc.  The licensee
 of this program is prohibited from giving any competitor of
 Gaussian, Inc. access to this program.  By using this program,
 the user acknowledges that Gaussian, Inc. is engaged in the
 business of creating and licensing software in the field of
 computational chemistry and represents and warrants to the
 licensee that it is not a competitor of Gaussian, Inc. and that
 it will not use this program in any manner prohibited above.
 ---------------------------------------------------------------
  

 Cite this work as:
 Gaussian 09, Revision B.01,
 M. J. Frisch, G. W. Trucks, H. B. Schlegel, G. E. Scuseria, 
 M. A. Robb, J. R. Cheeseman, G. Scalmani, V. Barone, B. Mennucci, 
 G. A. Petersson, H. Nakatsuji, M. Caricato, X. Li, H. P. Hratchian, 
 A. F. Izmaylov, J. Bloino, G. Zheng, J. L. Sonnenberg, M. Hada, 
 M. Ehara, K. Toyota, R. Fukuda, J. Hasegawa, M. Ishida, T. Nakajima, 
 Y. Honda, O. Kitao, H. Nakai, T. Vreven, J. A. Montgomery, Jr., 
 J. E. Peralta, F. Ogliaro, M. Bearpark, J. J. Heyd, E. Brothers, 
 K. N. Kudin, V. N. Staroverov, T. Keith, R. Kobayashi, J. Normand, 
 K. Raghavachari, A. Rendell, J. C. Burant, S. S. Iyengar, J. Tomasi, 
 M. Cossi, N. Rega, J. M. Millam, M. Klene, J. E. Knox, J. B. Cross, 
 V. Bakken, C. Adamo, J. Jaramillo, R. Gomperts, R. E. Stratmann, 
 O. Yazyev, A. J. Austin, R. Cammi, C. Pomelli, J. W. Ochterski, 
 R. L. Martin, K. Morokuma, V. G. Zakrzewski, G. A. Voth, 
 P. Salvador, J. J. Dannenberg, S. Dapprich, A. D. Daniels, 
 O. Farkas, J. B. Foresman, J. V. Ortiz, J. Cioslowski, 
 and D. J. Fox, Gaussian, Inc., Wallingford CT, 2010.
 
 ******************************************
 Gaussian 09:  EM64L-G09RevB.01 12-Aug-2010
                21-Aug-2015 
 ******************************************
 %nprocshared=40
 Will use up to   40 processors via shared memory.
 %mem=2GB
 %chk=/scratch/bhoorasingh.p/QMfiles/Reactions/H_Abstraction/OO+[H]_[H][H]+[O]O/m
 062x/OO+[H]_[H][H]+[O]O
 --------------------------------------------------------
 # m062x/6-311+g(2df,2p) opt=(ts,calcfc,noeigentest) freq
 --------------------------------------------------------
 1/5=1,10=4,11=1,14=-1,18=20,26=3,38=1/1,3;
 2/9=110,12=2,17=6,18=5,40=1/2;
 3/5=4,6=6,7=214,11=2,16=1,25=1,30=1,71=2,74=-55/1,2,3;
 4//1;
 5/5=2,38=5/2;
 8/6=4,10=90,11=11/1;
 11/6=1,8=1,9=11,15=111,16=1/1,2,10;
 10/6=1,7=6,13=1/2;
 6/7=2,8=2,9=2,10=2,28=1/1;
 7/10=1,18=20,25=1/1,2,3,16;
 1/5=1,10=4,11=1,14=-1,18=20/3(2);
 2/9=110/2;
 99//99;
 2/9=110/2;
 3/5=4,6=6,7=214,11=2,16=1,25=1,30=1,71=1,74=-55/1,2,3;
 4/5=5,16=3/1;
 5/5=2,38=5/2;
 7//1,2,3,16;
 1/5=1,11=1,14=-1,18=20/3(-5);
 2/9=110/2;
 6/7=2,8=2,9=2,10=2,19=2,28=1/1;
 99/9=1/99;
 ------------------
 OO+[H]_[H][H]+[O]O
 ------------------
 Symbolic Z-matrix:
 Charge =  0 Multiplicity = 2
 O                     0.51017  -0.3947    0.03822 
 O                    -0.75264   0.14348  -0.123 
 H                     1.22717   0.45633  -0.20771 
 H                    -1.04582   0.29127   0.78435 
 H                     1.75844   1.26215   0.10157 
 

 GradGradGradGradGradGradGradGradGradGradGradGradGradGradGradGradGradGrad
 Berny optimization.
 Initialization pass.
                           ----------------------------
                           !    Initial Parameters    !
                           ! (Angstroms and Degrees)  !
 --------------------------                            --------------------------
 ! Name  Definition              Value          Derivative Info.                !
 --------------------------------------------------------------------------------
 ! R1    R(1,2)                  1.3821         calculate D2E/DX2 analytically  !
 ! R2    R(1,3)                  1.1397         calculate D2E/DX2 analytically  !
 ! R3    R(2,4)                  0.9649         calculate D2E/DX2 analytically  !
 ! R4    R(3,5)                  1.0135         calculate D2E/DX2 analytically  !
 ! A1    A(2,1,3)              105.0038         calculate D2E/DX2 analytically  !
 ! A2    A(1,2,4)              103.1531         calculate D2E/DX2 analytically  !
 ! A3    A(1,3,5)              149.0525         calculate D2E/DX2 analytically  !
 ! D1    D(3,1,2,4)           -103.5762         calculate D2E/DX2 analytically  !
 ! D2    D(2,1,3,5)             88.0287         calculate D2E/DX2 analytically  !
 --------------------------------------------------------------------------------
 Trust Radius=3.00D-01 FncErr=1.00D-07 GrdErr=1.00D-06
 Number of steps in this run=     20 maximum allowed number of steps=    100.
 Search for a saddle point of order  1.
 GradGradGradGradGradGradGradGradGradGradGradGradGradGradGradGradGradGrad

                          Input orientation:                          
 ---------------------------------------------------------------------
 Center     Atomic      Atomic             Coordinates (Angstroms)
 Number     Number       Type             X           Y           Z
 ---------------------------------------------------------------------
      1          8           0        0.510170   -0.394697    0.038221
      2          8           0       -0.752644    0.143478   -0.122997
      3          1           0        1.227165    0.456329   -0.207707
      4          1           0       -1.045817    0.291265    0.784349
      5          1           0        1.758444    1.262153    0.101567
 ---------------------------------------------------------------------
                    Distance matrix (angstroms):
                    1          2          3          4          5
     1  O    0.000000
     2  O    1.382144   0.000000
     3  H    1.139652   2.006164   0.000000
     4  H    1.856972   0.964919   2.485532   0.000000
     5  H    2.075416   2.758156   1.013538   3.045110   0.000000
 Stoichiometry    H3O2(2)
 Framework group  C1[X(H3O2)]
 Deg. of freedom     9
 Full point group                 C1      NOp   1
 Largest Abelian subgroup         C1      NOp   1
 Largest concise Abelian subgroup C1      NOp   1
                         Standard orientation:                         
 ---------------------------------------------------------------------
 Center     Atomic      Atomic             Coordinates (Angstroms)
 Number     Number       Type             X           Y           Z
 ---------------------------------------------------------------------
      1          8           0        0.510170   -0.394697    0.038221
      2          8           0       -0.752644    0.143479   -0.122997
      3          1           0        1.227165    0.456329   -0.207707
      4          1           0       -1.045817    0.291266    0.784349
      5          1           0        1.758444    1.262153    0.101567
 ---------------------------------------------------------------------
 Rotational constants (GHZ):    100.1830559     24.9923349     21.4940228
 Standard basis: 6-311+G(2df,2p) (5D, 7F)
 There are    95 symmetry adapted basis functions of A   symmetry.
 Integral buffers will be    131072 words long.
 Raffenetti 2 integral format.
 Two-electron integral symmetry is turned on.
    95 basis functions,   137 primitive gaussians,   105 cartesian basis functions
    10 alpha electrons        9 beta electrons
       nuclear repulsion energy        41.4788675996 Hartrees.
 NAtoms=    5 NActive=    5 NUniq=    5 SFac= 1.00D+00 NAtFMM=   50 NAOKFM=F Big=F
 One-electron integrals computed using PRISM.
 NBasis=    95 RedAO= T  NBF=    95
 NBsUse=    95 1.00D-06 NBFU=    95
 Harris functional with IExCor= 1009 diagonalized for initial guess.
 ExpMin= 8.45D-02 ExpMax= 8.59D+03 ExpMxC= 1.30D+03 IAcc=2 IRadAn=         0 AccDes= 0.00D+00
 HarFok:  IExCor= 1009 AccDes= 0.00D+00 IRadAn=         0 IDoV= 1
 ScaDFX=  1.000000  1.000000  1.000000  1.000000
 FoFCou: FMM=F IPFlag=           0 FMFlag=      100000 FMFlg1=           0
         NFxFlg=           0 DoJE=T BraDBF=F KetDBF=T FulRan=T
         Omega=  0.000000  0.000000  1.000000  0.000000  0.000000 ICntrl=     500 IOpCl=  0
         NMat0=    1 NMatS0=    1 NMatT0=    0 NMatD0=    1 NMtDS0=    0 NMtDT0=    0
         I1Cent=           4 NGrid=           0.
 Petite list used in FoFCou.
 Initial guess orbital symmetries:
 Alpha Orbitals:
       Occupied  (A) (A) (A) (A) (A) (A) (A) (A) (A) (A)
       Virtual   (A) (A) (A) (A) (A) (A) (A) (A) (A) (A) (A) (A)
                 (A) (A) (A) (A) (A) (A) (A) (A) (A) (A) (A) (A)
                 (A) (A) (A) (A) (A) (A) (A) (A) (A) (A) (A) (A)
                 (A) (A) (A) (A) (A) (A) (A) (A) (A) (A) (A) (A)
                 (A) (A) (A) (A) (A) (A) (A) (A) (A) (A) (A) (A)
                 (A) (A) (A) (A) (A) (A) (A) (A) (A) (A) (A) (A)
                 (A) (A) (A) (A) (A) (A) (A) (A) (A) (A) (A) (A)
                 (A)
 Beta  Orbitals:
       Occupied  (A) (A) (A) (A) (A) (A) (A) (A) (A)
       Virtual   (A) (A) (A) (A) (A) (A) (A) (A) (A) (A) (A) (A)
                 (A) (A) (A) (A) (A) (A) (A) (A) (A) (A) (A) (A)
                 (A) (A) (A) (A) (A) (A) (A) (A) (A) (A) (A) (A)
                 (A) (A) (A) (A) (A) (A) (A) (A) (A) (A) (A) (A)
                 (A) (A) (A) (A) (A) (A) (A) (A) (A) (A) (A) (A)
                 (A) (A) (A) (A) (A) (A) (A) (A) (A) (A) (A) (A)
                 (A) (A) (A) (A) (A) (A) (A) (A) (A) (A) (A) (A)
                 (A) (A)
 The electronic state of the initial guess is 2-A.
 Initial guess <Sx>= 0.0000 <Sy>= 0.0000 <Sz>= 0.5000 <S**2>= 0.7500 S= 0.5000
 Requested convergence on RMS density matrix=1.00D-08 within 128 cycles.
 Requested convergence on MAX density matrix=1.00D-06.
 Requested convergence on             energy=1.00D-06.
 No special actions if energy rises.
 Keep R1 and R2 ints in memory in canonical form, NReq=33013089.
 Integral accuracy reduced to 1.0D-05 until final iterations.
 Initial convergence to 1.0D-05 achieved.  Increase integral accuracy.
 SCF Done:  E(UM062X) =  -152.027227198     A.U. after   19 cycles
             Convg  =    0.6294D-08             -V/T =  2.0028
 <Sx>= 0.0000 <Sy>= 0.0000 <Sz>= 0.5000 <S**2>= 0.7620 S= 0.5060
 <L.S>= 0.000000000000E+00
 Annihilation of the first spin contaminant:
 S**2 before annihilation     0.7620,   after     0.7500
 Range of M.O.s used for correlation:     1    95
 NBasis=    95 NAE=    10 NBE=     9 NFC=     0 NFV=     0
 NROrb=     95 NOA=    10 NOB=     9 NVA=    85 NVB=    86

 **** Warning!!: The largest alpha MO coefficient is  0.12646024D+02


 **** Warning!!: The largest beta MO coefficient is  0.11546859D+02

 Symmetrizing basis deriv contribution to polar:
 IMax=3 JMax=2 DiffMx= 0.00D+00
 G2DrvN: will do     6 centers at a time, making    1 passes doing MaxLOS=3.
 Calling FoFCou, ICntrl=  3107 FMM=F I1Cent=   0 AccDes= 0.00D+00.
 FoFDir/FoFCou used for L=0 through L=3.
 End of G2Drv Frequency-dependent properties file   721 does not exist.
 End of G2Drv Frequency-dependent properties file   722 does not exist.
          IDoAtm=11111
          Differentiating once with respect to nuclear coordinates.
          Keep R1 and R2 ints in memory in canonical form, NReq=32916777.
          There are    18 degrees of freedom in the 1st order CPHF.  IDoFFX=5.
     12 vectors produced by pass  0 Test12= 9.02D-11 5.56D-07 XBig12= 1.99D-01 2.12D-01.
 AX will form    12 AO Fock derivatives at one time.
     12 vectors produced by pass  1 Test12= 9.02D-11 5.56D-07 XBig12= 1.36D-02 2.61D-02.
     12 vectors produced by pass  2 Test12= 9.02D-11 5.56D-07 XBig12= 9.91D-04 7.75D-03.
     12 vectors produced by pass  3 Test12= 9.02D-11 5.56D-07 XBig12= 2.37D-05 9.98D-04.
     12 vectors produced by pass  4 Test12= 9.02D-11 5.56D-07 XBig12= 5.38D-07 1.53D-04.
      9 vectors produced by pass  5 Test12= 9.02D-11 5.56D-07 XBig12= 1.22D-08 2.06D-05.
      3 vectors produced by pass  6 Test12= 9.02D-11 5.56D-07 XBig12= 2.57D-10 2.63D-06.
 Inverted reduced A of dimension    72 with in-core refinement.
 End of Minotr Frequency-dependent properties file   721 does not exist.
 End of Minotr Frequency-dependent properties file   722 does not exist.

 **********************************************************************

            Population analysis using the SCF density.

 **********************************************************************

 Orbital symmetries:
 Alpha Orbitals:
       Occupied  (A) (A) (A) (A) (A) (A) (A) (A) (A) (A)
       Virtual   (A) (A) (A) (A) (A) (A) (A) (A) (A) (A) (A) (A)
                 (A) (A) (A) (A) (A) (A) (A) (A) (A) (A) (A) (A)
                 (A) (A) (A) (A) (A) (A) (A) (A) (A) (A) (A) (A)
                 (A) (A) (A) (A) (A) (A) (A) (A) (A) (A) (A) (A)
                 (A) (A) (A) (A) (A) (A) (A) (A) (A) (A) (A) (A)
                 (A) (A) (A) (A) (A) (A) (A) (A) (A) (A) (A) (A)
                 (A) (A) (A) (A) (A) (A) (A) (A) (A) (A) (A) (A)
                 (A)
 Beta  Orbitals:
       Occupied  (A) (A) (A) (A) (A) (A) (A) (A) (A)
       Virtual   (A) (A) (A) (A) (A) (A) (A) (A) (A) (A) (A) (A)
                 (A) (A) (A) (A) (A) (A) (A) (A) (A) (A) (A) (A)
                 (A) (A) (A) (A) (A) (A) (A) (A) (A) (A) (A) (A)
                 (A) (A) (A) (A) (A) (A) (A) (A) (A) (A) (A) (A)
                 (A) (A) (A) (A) (A) (A) (A) (A) (A) (A) (A) (A)
                 (A) (A) (A) (A) (A) (A) (A) (A) (A) (A) (A) (A)
                 (A) (A) (A) (A) (A) (A) (A) (A) (A) (A) (A) (A)
                 (A) (A)
 The electronic state is 2-A.
 Alpha  occ. eigenvalues --  -19.71816 -19.70969  -1.29818  -1.01534  -0.66118
 Alpha  occ. eigenvalues --   -0.61579  -0.54923  -0.44062  -0.40537  -0.35379
 Alpha virt. eigenvalues --    0.05040   0.09477   0.13499   0.17005   0.17363
 Alpha virt. eigenvalues --    0.19396   0.20331   0.20722   0.22183   0.27844
 Alpha virt. eigenvalues --    0.32075   0.36653   0.49729   0.50634   0.59032
 Alpha virt. eigenvalues --    0.66718   0.72360   0.79042   0.86254   0.87496
 Alpha virt. eigenvalues --    0.91139   0.95270   0.97685   1.08449   1.11794
 Alpha virt. eigenvalues --    1.13582   1.16627   1.35751   1.44882   1.49646
 Alpha virt. eigenvalues --    1.52236   1.56923   1.57871   1.81164   1.94774
 Alpha virt. eigenvalues --    2.04765   2.16207   2.19135   2.23254   2.28253
 Alpha virt. eigenvalues --    2.42364   2.52376   2.61730   2.72117   3.42116
 Alpha virt. eigenvalues --    3.57423   3.61193   3.66938   3.73558   3.80724
 Alpha virt. eigenvalues --    3.84890   4.11072   4.36080   4.54049   4.58659
 Alpha virt. eigenvalues --    4.59996   4.74323   4.86649   5.06522   5.08055
 Alpha virt. eigenvalues --    5.12635   5.14662   5.19572   5.22665   5.29394
 Alpha virt. eigenvalues --    5.38256   5.50932   5.60236   6.05293   6.09177
 Alpha virt. eigenvalues --    6.34763   6.78553   6.80804   6.84645   6.87403
 Alpha virt. eigenvalues --    6.94724   7.07256   7.20608   7.23887   7.43169
 Alpha virt. eigenvalues --    7.44386   7.74357   7.85888  49.93491  49.96113
  Beta  occ. eigenvalues --  -19.70908 -19.70796  -1.28100  -0.99116  -0.63682
  Beta  occ. eigenvalues --   -0.58711  -0.52537  -0.40130  -0.37958
  Beta virt. eigenvalues --   -0.11520   0.05045   0.09571   0.11343   0.15659
  Beta virt. eigenvalues --    0.16304   0.18978   0.19435   0.20726   0.21440
  Beta virt. eigenvalues --    0.27357   0.30443   0.35737   0.49661   0.50088
  Beta virt. eigenvalues --    0.58734   0.65804   0.72122   0.78352   0.84713
  Beta virt. eigenvalues --    0.86058   0.89491   0.95298   0.98485   1.07901
  Beta virt. eigenvalues --    1.11902   1.13165   1.14176   1.35868   1.44365
  Beta virt. eigenvalues --    1.49197   1.51913   1.56928   1.57307   1.80860
  Beta virt. eigenvalues --    1.95209   2.04079   2.16395   2.19693   2.23704
  Beta virt. eigenvalues --    2.34246   2.47750   2.50229   2.60312   2.70411
  Beta virt. eigenvalues --    3.39436   3.55380   3.60311   3.64222   3.72760
  Beta virt. eigenvalues --    3.79077   3.83148   4.10993   4.38237   4.54822
  Beta virt. eigenvalues --    4.59005   4.59976   4.74752   4.86859   5.07462
  Beta virt. eigenvalues --    5.08795   5.13781   5.15121   5.20434   5.23744
  Beta virt. eigenvalues --    5.29590   5.38637   5.51143   5.60321   6.06031
  Beta virt. eigenvalues --    6.09471   6.35791   6.79089   6.82570   6.86216
  Beta virt. eigenvalues --    6.87708   6.98845   7.07759   7.22542   7.25019
  Beta virt. eigenvalues --    7.43861   7.45695   7.76405   7.85967  49.92896
  Beta virt. eigenvalues --   49.95981
          Condensed to atoms (all electrons):
              1          2          3          4          5
     1  O    8.083477   0.136941   0.096126  -0.054652  -0.109982
     2  O    0.136941   7.876532  -0.035176   0.239337   0.015324
     3  H    0.096126  -0.035176   0.527648   0.005755   0.268873
     4  H   -0.054652   0.239337   0.005755   0.547987  -0.001807
     5  H   -0.109982   0.015324   0.268873  -0.001807   0.842878
 Mulliken atomic charges:
              1
     1  O   -0.151910
     2  O   -0.232958
     3  H    0.136774
     4  H    0.263380
     5  H   -0.015286
 Sum of Mulliken atomic charges =   0.00000
 Mulliken charges with hydrogens summed into heavy atoms:
              1
     1  O   -0.030422
     2  O    0.030422
 Sum of Mulliken charges with hydrogens summed into heavy atoms =   0.00000
          Atomic-Atomic Spin Densities.
              1          2          3          4          5
     1  O    0.509760  -0.052483   0.007408   0.001094  -0.116811
     2  O   -0.052483   0.083138   0.007829   0.002287   0.028795
     3  H    0.007408   0.007829  -0.108631   0.000705   0.067962
     4  H    0.001094   0.002287   0.000705  -0.005823   0.001223
     5  H   -0.116811   0.028795   0.067962   0.001223   0.625536
 Mulliken atomic spin densities:
              1
     1  O    0.348968
     2  O    0.069567
     3  H   -0.024727
     4  H   -0.000514
     5  H    0.606706
 Sum of Mulliken atomic spin densities =   1.00000
 APT atomic charges:
              1
     1  O   -0.189656
     2  O   -0.476486
     3  H    0.013031
     4  H    0.504494
     5  H    0.148617
 Sum of APT charges=   0.00000
 APT Atomic charges with hydrogens summed into heavy atoms:
              1
     1  O   -0.028008
     2  O    0.028008
     3  H    0.000000
     4  H    0.000000
     5  H    0.000000
 Sum of APT charges=   0.00000
 Electronic spatial extent (au):  <R**2>=             86.8010
 Charge=              0.0000 electrons
 Dipole moment (field-independent basis, Debye):
    X=             -0.2226    Y=              1.0313    Z=              1.3489  Tot=              1.7125
 Quadrupole moment (field-independent basis, Debye-Ang):
   XX=            -11.7327   YY=            -13.7638   ZZ=            -12.4610
   XY=              0.3320   XZ=             -2.2433   YZ=              0.5487
 Traceless Quadrupole moment (field-independent basis, Debye-Ang):
   XX=              0.9198   YY=             -1.1113   ZZ=              0.1915
   XY=              0.3320   XZ=             -2.2433   YZ=              0.5487
 Octapole moment (field-independent basis, Debye-Ang**2):
  XXX=             -3.7963  YYY=             -2.1132  ZZZ=              1.3650  XYY=             -1.2066
  XXY=              0.5548  XXZ=              2.0435  XZZ=             -2.8233  YZZ=             -0.1677
  YYZ=              0.5009  XYZ=             -0.5041
 Hexadecapole moment (field-independent basis, Debye-Ang**3):
 XXXX=            -67.3574 YYYY=            -30.5643 ZZZZ=            -12.6182 XXXY=             -5.1523
 XXXZ=             -3.1739 YYYX=             -3.5021 YYYZ=              0.3429 ZZZX=             -2.4445
 ZZZY=              0.5047 XXYY=            -16.5385 XXZZ=            -13.1168 YYZZ=             -7.4333
 XXYZ=              0.7786 YYXZ=             -0.2776 ZZXY=             -1.6261
 N-N= 4.147886759964D+01 E-N=-6.589951192510D+02  KE= 2.264237187466D+02
  Exact polarizability:   0.000   0.000   0.000   0.000   0.000   0.000
 Approx polarizability:  31.251   7.442  23.608   0.136   1.076  14.856
                          Isotropic Fermi Contact Couplings
        Atom                 a.u.       MegaHertz       Gauss      10(-4) cm-1
     1  O(17)              0.06359     -38.54934     -13.75536     -12.85868
     2  O(17)              0.01059      -6.41818      -2.29017      -2.14088
     3  H(1)              -0.04141    -185.10070     -66.04853     -61.74295
     4  H(1)              -0.00137      -6.12129      -2.18423      -2.04184
     5  H(1)               0.21565     963.94917     343.96102     321.53883
 --------------------------------------------------------
       Center         ----  Spin Dipole Couplings  ----
                      3XX-RR        3YY-RR        3ZZ-RR
 --------------------------------------------------------
     1   Atom       -0.435809      1.411983     -0.976174
     2   Atom       -0.002571      0.169882     -0.167311
     3   Atom        0.016550      0.090874     -0.107424
     4   Atom        0.006427     -0.009665      0.003238
     5   Atom       -0.000123     -0.002460      0.002583
 --------------------------------------------------------
                        XY            XZ            YZ
 --------------------------------------------------------
     1   Atom        1.127411      0.027687      0.036284
     2   Atom        0.324069     -0.006517      0.026337
     3   Atom        0.173954     -0.008186     -0.000092
     4   Atom       -0.000621     -0.014457      0.006741
     5   Atom       -0.003173      0.000979      0.001867
 --------------------------------------------------------


 ---------------------------------------------------------------------------------
              Anisotropic Spin Dipole Couplings in Principal Axis System
 ---------------------------------------------------------------------------------

       Atom             a.u.   MegaHertz   Gauss  10(-4) cm-1        Axes

              Baa    -0.9834    71.156    25.390    23.735 -0.5167  0.2307  0.8245
     1 O(17)  Bbb    -0.9630    69.683    24.865    23.244  0.7416 -0.3607  0.5657
              Bcc     1.9464  -140.839   -50.255   -46.979  0.4279  0.9037  0.0153
 
              Baa    -0.2567    18.578     6.629     6.197  0.7677 -0.5974  0.2319
     2 O(17)  Bbb    -0.1627    11.776     4.202     3.928 -0.2011  0.1190  0.9723
              Bcc     0.4195   -30.354   -10.831   -10.125  0.6085  0.7930  0.0288
 
              Baa    -0.1263   -67.379   -24.043   -22.475  0.7400 -0.5926  0.3183
     3 H(1)   Bbb    -0.1054   -56.230   -20.064   -18.756 -0.2382  0.2116  0.9479
              Bcc     0.2317   123.609    44.107    41.231  0.6291  0.7772 -0.0154
 
              Baa    -0.0147    -7.827    -2.793    -2.611 -0.3726  0.7284 -0.5750
     4 H(1)   Bbb    -0.0056    -2.962    -1.057    -0.988  0.5893  0.6644  0.4597
              Bcc     0.0202    10.789     3.850     3.599  0.7169 -0.1676 -0.6768
 
              Baa    -0.0052    -2.792    -0.996    -0.931  0.5448  0.7976 -0.2588
     5 H(1)   Bbb     0.0020     1.084     0.387     0.362  0.8375 -0.5024  0.2147
              Bcc     0.0032     1.708     0.610     0.570 -0.0413  0.3337  0.9418
 

 ---------------------------------------------------------------------------------

 PrsmSu:  requested number of processors reduced to:  37 ShMem   1 Linda.
 Calling FoFJK, ICntrl=    100147 FMM=F ISym2X=0 I1Cent= 0 IOpClX= 1 NMat=1 NMatS=1 NMatT=0.
 CoulSu:  requested number of processors reduced to:  37 ShMem   1 Linda.
 ***** Axes restored to original set *****
 -------------------------------------------------------------------
 Center     Atomic                   Forces (Hartrees/Bohr)
 Number     Number              X              Y              Z
 -------------------------------------------------------------------
      1        8           0.003824511    0.004937565   -0.004868107
      2        8           0.000989904   -0.000226095    0.000282591
      3        1          -0.004511272   -0.002759708    0.009262679
      4        1          -0.000055772   -0.000155427   -0.000149432
      5        1          -0.000247372   -0.001796334   -0.004527732
 -------------------------------------------------------------------
 Cartesian Forces:  Max     0.009262679 RMS     0.003664410

 GradGradGradGradGradGradGradGradGradGradGradGradGradGradGradGradGradGrad
 Berny optimization.
 Internal  Forces:  Max     0.007429343 RMS     0.003649364
 Search for a saddle point.
 Step number   1 out of a maximum of   20
 All quantities printed in internal units (Hartrees-Bohrs-Radians)
 Swaping is turned off.
 Second derivative matrix not updated -- analytic derivatives used.
 The second derivative matrix:
                          R1        R2        R3        R4        A1
           R1           0.36531
           R2           0.05740   0.05139
           R3           0.00438  -0.00426   0.52151
           R4          -0.02221   0.12507   0.00148   0.04268
           A1           0.05704  -0.01348  -0.00191   0.00569   0.18979
           A2           0.07624  -0.00025  -0.00312   0.00059   0.00919
           A3           0.00654   0.00113  -0.00011   0.00989  -0.00071
           D1          -0.00122  -0.00294  -0.00251   0.00031  -0.00696
           D2          -0.00052  -0.00034  -0.00040  -0.00005   0.00300
                          A2        A3        D1        D2
           A2           0.23937
           A3           0.00082   0.02002
           D1          -0.00900  -0.00520   0.02191
           D2          -0.00039   0.00065   0.00040   0.00237
 ITU=  0
     Eigenvalues ---   -0.08755   0.00226   0.01579   0.02560   0.15815
     Eigenvalues ---    0.18538   0.21170   0.42135   0.52167
 Eigenvectors required to have negative eigenvalues:
                          R4        R2        R1        A1        A3
   1                   -0.69829   0.69349  -0.13822   0.07637   0.06701
                          A2        D1        R3        D2
   1                    0.03262   0.03000   0.00809  -0.00162
 RFO step:  Lambda0=6.975885112D-05 Lambda=-3.11665004D-03.
 Linear search not attempted -- option 19 set.
 Maximum step size (   0.300) exceeded in Quadratic search.
    -- Step size scaled by   0.829
 Iteration  1 RMS(Cart)=  0.05944794 RMS(Int)=  0.03317379
 Iteration  2 RMS(Cart)=  0.03552725 RMS(Int)=  0.00298722
 Iteration  3 RMS(Cart)=  0.00170913 RMS(Int)=  0.00000843
 Iteration  4 RMS(Cart)=  0.00000665 RMS(Int)=  0.00000000
 Iteration  5 RMS(Cart)=  0.00000000 RMS(Int)=  0.00000000
 Variable       Old X    -DE/DX   Delta X   Delta X   Delta X     New X
                                 (Linear)    (Quad)   (Total)
    R1        2.61187  -0.00101   0.00000  -0.00559  -0.00559   2.60628
    R2        2.15363  -0.00743   0.00000  -0.03245  -0.03245   2.12118
    R3        1.82343  -0.00015   0.00000  -0.00006  -0.00006   1.82338
    R4        1.91531  -0.00294   0.00000  -0.03333  -0.03333   1.88198
    A1        1.83266  -0.00001   0.00000   0.00397   0.00397   1.83663
    A2        1.80036   0.00007   0.00000   0.00271   0.00271   1.80307
    A3        2.60146   0.00741   0.00000   0.29619   0.29619   2.89765
    D1       -1.80775  -0.00030   0.00000   0.05111   0.05111  -1.75664
    D2        1.53639  -0.00006   0.00000  -0.05243  -0.05243   1.48396
         Item               Value     Threshold  Converged?
 Maximum Force            0.007429     0.000450     NO 
 RMS     Force            0.003649     0.000300     NO 
 Maximum Displacement     0.196803     0.001800     NO 
 RMS     Displacement     0.093059     0.001200     NO 
 Predicted change in Energy=-1.626766D-03
 GradGradGradGradGradGradGradGradGradGradGradGradGradGradGradGradGradGrad

                          Input orientation:                          
 ---------------------------------------------------------------------
 Center     Atomic      Atomic             Coordinates (Angstroms)
 Number     Number       Type             X           Y           Z
 ---------------------------------------------------------------------
      1          8           0        0.500324   -0.387816    0.014263
      2          8           0       -0.755861    0.163521   -0.127787
      3          1           0        1.214099    0.470441   -0.103563
      4          1           0       -1.064660    0.250015    0.782253
      5          1           0        1.803415    1.262366    0.028267
 ---------------------------------------------------------------------
                    Distance matrix (angstroms):
                    1          2          3          4          5
     1  O    0.000000
     2  O    1.379185   0.000000
     3  H    1.122481   1.993873   0.000000
     4  H    1.856289   0.964889   2.454792   0.000000
     5  H    2.102699   2.789571   0.995900   3.133561   0.000000
 Stoichiometry    H3O2(2)
 Framework group  C1[X(H3O2)]
 Deg. of freedom     9
 Full point group                 C1      NOp   1
 Largest Abelian subgroup         C1      NOp   1
 Largest concise Abelian subgroup C1      NOp   1
                         Standard orientation:                         
 ---------------------------------------------------------------------
 Center     Atomic      Atomic             Coordinates (Angstroms)
 Number     Number       Type             X           Y           Z
 ---------------------------------------------------------------------
      1          8           0        0.503143   -0.400302    0.024073
      2          8           0       -0.749533    0.158285   -0.120614
      3          1           0        1.221594    0.455833   -0.079967
      4          1           0       -1.064074    0.236694    0.788191
      5          1           0        1.813602    1.243607    0.064100
 ---------------------------------------------------------------------
 Rotational constants (GHZ):    100.4128063     24.9941788     21.4062071
 Standard basis: 6-311+G(2df,2p) (5D, 7F)
 There are    95 symmetry adapted basis functions of A   symmetry.
 Integral buffers will be    131072 words long.
 Raffenetti 2 integral format.
 Two-electron integral symmetry is turned on.
    95 basis functions,   137 primitive gaussians,   105 cartesian basis functions
    10 alpha electrons        9 beta electrons
       nuclear repulsion energy        41.5655137451 Hartrees.
 NAtoms=    5 NActive=    5 NUniq=    5 SFac= 1.00D+00 NAtFMM=   50 NAOKFM=F Big=F
 One-electron integrals computed using PRISM.
 NBasis=    95 RedAO= T  NBF=    95
 NBsUse=    95 1.00D-06 NBFU=    95
 Initial guess read from the read-write file.
 B after Tr=     0.000000    0.000000    0.000000
         Rot=    1.000000    0.000000    0.000000    0.000000 Ang=   0.00 deg.
 Initial guess orbital symmetries:
 Alpha Orbitals:
       Occupied  (A) (A) (A) (A) (A) (A) (A) (A) (A) (A)
       Virtual   (A) (A) (A) (A) (A) (A) (A) (A) (A) (A) (A) (A)
                 (A) (A) (A) (A) (A) (A) (A) (A) (A) (A) (A) (A)
                 (A) (A) (A) (A) (A) (A) (A) (A) (A) (A) (A) (A)
                 (A) (A) (A) (A) (A) (A) (A) (A) (A) (A) (A) (A)
                 (A) (A) (A) (A) (A) (A) (A) (A) (A) (A) (A) (A)
                 (A) (A) (A) (A) (A) (A) (A) (A) (A) (A) (A) (A)
                 (A) (A) (A) (A) (A) (A) (A) (A) (A) (A) (A) (A)
                 (A)
 Beta  Orbitals:
       Occupied  (A) (A) (A) (A) (A) (A) (A) (A) (A)
       Virtual   (A) (A) (A) (A) (A) (A) (A) (A) (A) (A) (A) (A)
                 (A) (A) (A) (A) (A) (A) (A) (A) (A) (A) (A) (A)
                 (A) (A) (A) (A) (A) (A) (A) (A) (A) (A) (A) (A)
                 (A) (A) (A) (A) (A) (A) (A) (A) (A) (A) (A) (A)
                 (A) (A) (A) (A) (A) (A) (A) (A) (A) (A) (A) (A)
                 (A) (A) (A) (A) (A) (A) (A) (A) (A) (A) (A) (A)
                 (A) (A) (A) (A) (A) (A) (A) (A) (A) (A) (A) (A)
                 (A) (A)
 Initial guess <Sx>= 0.0000 <Sy>= 0.0000 <Sz>= 0.5000 <S**2>= 0.7618 S= 0.5059
 Harris functional with IExCor= 1009 diagonalized for initial guess.
 ExpMin= 8.45D-02 ExpMax= 8.59D+03 ExpMxC= 1.30D+03 IAcc=2 IRadAn=         0 AccDes= 0.00D+00
 HarFok:  IExCor= 1009 AccDes= 0.00D+00 IRadAn=         0 IDoV= 1
 ScaDFX=  1.000000  1.000000  1.000000  1.000000
 FoFCou: FMM=F IPFlag=           0 FMFlag=      100000 FMFlg1=           0
         NFxFlg=           0 DoJE=T BraDBF=F KetDBF=T FulRan=T
         Omega=  0.000000  0.000000  1.000000  0.000000  0.000000 ICntrl=     500 IOpCl=  0
         NMat0=    1 NMatS0=    1 NMatT0=    0 NMatD0=    1 NMtDS0=    0 NMtDT0=    0
         I1Cent=           4 NGrid=           0.
 Petite list used in FoFCou.
 Requested convergence on RMS density matrix=1.00D-08 within 128 cycles.
 Requested convergence on MAX density matrix=1.00D-06.
 Requested convergence on             energy=1.00D-06.
 No special actions if energy rises.
 Keep R1 and R2 ints in memory in canonical form, NReq=33013089.
 Integral accuracy reduced to 1.0D-05 until final iterations.
 Initial convergence to 1.0D-05 achieved.  Increase integral accuracy.
 SCF Done:  E(UM062X) =  -152.028876099     A.U. after   17 cycles
             Convg  =    0.3526D-08             -V/T =  2.0026
 <Sx>= 0.0000 <Sy>= 0.0000 <Sz>= 0.5000 <S**2>= 0.7613 S= 0.5056
 <L.S>= 0.000000000000E+00
 Annihilation of the first spin contaminant:
 S**2 before annihilation     0.7613,   after     0.7500
 Calling FoFJK, ICntrl=      2127 FMM=F ISym2X=0 I1Cent= 0 IOpClX= 1 NMat=1 NMatS=1 NMatT=0.
 ***** Axes restored to original set *****
 -------------------------------------------------------------------
 Center     Atomic                   Forces (Hartrees/Bohr)
 Number     Number              X              Y              Z
 -------------------------------------------------------------------
      1        8           0.001236015    0.000236008   -0.001398437
      2        8          -0.000435416    0.000301670   -0.000033262
      3        1          -0.001233818   -0.001047903    0.002632148
      4        1          -0.000052045    0.000029938    0.000089430
      5        1           0.000485263    0.000480287   -0.001289879
 -------------------------------------------------------------------
 Cartesian Forces:  Max     0.002632148 RMS     0.001016888

 GradGradGradGradGradGradGradGradGradGradGradGradGradGradGradGradGradGrad
 Berny optimization.
 Internal  Forces:  Max     0.002573814 RMS     0.000967019
 Search for a saddle point.
 Step number   2 out of a maximum of   20
 All quantities printed in internal units (Hartrees-Bohrs-Radians)
 Swaping is turned off.
 Update second derivatives using D2CorX and points    1    2
 The second derivative matrix:
                          R1        R2        R3        R4        A1
           R1           0.36523
           R2           0.05759   0.05160
           R3           0.00437  -0.00424   0.52151
           R4          -0.02212   0.12545   0.00149   0.04310
           A1           0.05706  -0.01356  -0.00191   0.00563   0.18979
           A2           0.07621  -0.00024  -0.00313   0.00057   0.00920
           A3           0.00414   0.00002  -0.00045   0.00662   0.00015
           D1          -0.00161  -0.00316  -0.00257  -0.00026  -0.00682
           D2          -0.00011  -0.00011  -0.00034   0.00053   0.00286
                          A2        A3        D1        D2
           A2           0.23937
           A3           0.00053   0.01812
           D1          -0.00904  -0.00511   0.02199
           D2          -0.00034   0.00053   0.00031   0.00246
 ITU=  0  0
     Eigenvalues ---   -0.08740   0.00238   0.01471   0.02490   0.15833
     Eigenvalues ---    0.18560   0.21172   0.42127   0.52167
 Eigenvectors required to have negative eigenvalues:
                          R4        R2        R1        A1        A3
   1                   -0.69796   0.69544  -0.13811   0.07620   0.05009
                          A2        D1        R3        D2
   1                    0.03252   0.02639   0.00809   0.00212
 RFO step:  Lambda0=1.249386714D-05 Lambda=-4.14899569D-04.
 Linear search not attempted -- option 19 set.
 Iteration  1 RMS(Cart)=  0.03599566 RMS(Int)=  0.01293865
 Iteration  2 RMS(Cart)=  0.00925516 RMS(Int)=  0.00193089
 Iteration  3 RMS(Cart)=  0.00108293 RMS(Int)=  0.00003233
 Iteration  4 RMS(Cart)=  0.00002200 RMS(Int)=  0.00000001
 Iteration  5 RMS(Cart)=  0.00000001 RMS(Int)=  0.00000000
 Variable       Old X    -DE/DX   Delta X   Delta X   Delta X     New X
                                 (Linear)    (Quad)   (Total)
    R1        2.60628   0.00058   0.00000  -0.00061  -0.00061   2.60567
    R2        2.12118  -0.00105   0.00000  -0.00178  -0.00178   2.11940
    R3        1.82338   0.00008   0.00000   0.00046   0.00046   1.82384
    R4        1.88198   0.00050   0.00000  -0.00630  -0.00630   1.87568
    A1        1.83663  -0.00027   0.00000   0.00100   0.00100   1.83763
    A2        1.80307   0.00011   0.00000   0.00164   0.00164   1.80471
    A3        2.89765   0.00257   0.00000   0.15379   0.15379   3.05144
    D1       -1.75664   0.00004   0.00000   0.03863   0.03863  -1.71801
    D2        1.48396  -0.00010   0.00000  -0.06661  -0.06661   1.41735
         Item               Value     Threshold  Converged?
 Maximum Force            0.002574     0.000450     NO 
 RMS     Force            0.000967     0.000300     NO 
 Maximum Displacement     0.101345     0.001800     NO 
 RMS     Displacement     0.045785     0.001200     NO 
 Predicted change in Energy=-2.073191D-04
 GradGradGradGradGradGradGradGradGradGradGradGradGradGradGradGradGradGrad

                          Input orientation:                          
 ---------------------------------------------------------------------
 Center     Atomic      Atomic             Coordinates (Angstroms)
 Number     Number       Type             X           Y           Z
 ---------------------------------------------------------------------
      1          8           0        0.496426   -0.384651   -0.000022
      2          8           0       -0.758766    0.171120   -0.129924
      3          1           0        1.209216    0.479807   -0.049934
      4          1           0       -1.071514    0.232725    0.781050
      5          1           0        1.821955    1.259527   -0.007737
 ---------------------------------------------------------------------
                    Distance matrix (angstroms):
                    1          2          3          4          5
     1  O    0.000000
     2  O    1.378863   0.000000
     3  H    1.121538   1.993650   0.000000
     4  H    1.857327   0.965132   2.439941   0.000000
     5  H    2.111968   2.803513   0.992569   3.169964   0.000000
 Stoichiometry    H3O2(2)
 Framework group  C1[X(H3O2)]
 Deg. of freedom     9
 Full point group                 C1      NOp   1
 Largest Abelian subgroup         C1      NOp   1
 Largest concise Abelian subgroup C1      NOp   1
                         Standard orientation:                         
 ---------------------------------------------------------------------
 Center     Atomic      Atomic             Coordinates (Angstroms)
 Number     Number       Type             X           Y           Z
 ---------------------------------------------------------------------
      1          8           0        0.500871   -0.402079    0.018083
      2          8           0       -0.749133    0.163403   -0.119698
      3          1           0        1.219900    0.457975   -0.015893
      4          1           0       -1.071146    0.218347    0.788470
      5          1           0        1.837341    1.233085    0.040350
 ---------------------------------------------------------------------
 Rotational constants (GHZ):    100.5015451     24.9412484     21.3462872
 Standard basis: 6-311+G(2df,2p) (5D, 7F)
 There are    95 symmetry adapted basis functions of A   symmetry.
 Integral buffers will be    131072 words long.
 Raffenetti 2 integral format.
 Two-electron integral symmetry is turned on.
    95 basis functions,   137 primitive gaussians,   105 cartesian basis functions
    10 alpha electrons        9 beta electrons
       nuclear repulsion energy        41.5570408083 Hartrees.
 NAtoms=    5 NActive=    5 NUniq=    5 SFac= 1.00D+00 NAtFMM=   50 NAOKFM=F Big=F
 One-electron integrals computed using PRISM.
 NBasis=    95 RedAO= T  NBF=    95
 NBsUse=    95 1.00D-06 NBFU=    95
 Initial guess read from the read-write file.
 B after Tr=     0.000000    0.000000    0.000000
         Rot=    1.000000    0.000000    0.000000    0.000000 Ang=   0.00 deg.
 Initial guess orbital symmetries:
 Alpha Orbitals:
       Occupied  (A) (A) (A) (A) (A) (A) (A) (A) (A) (A)
       Virtual   (A) (A) (A) (A) (A) (A) (A) (A) (A) (A) (A) (A)
                 (A) (A) (A) (A) (A) (A) (A) (A) (A) (A) (A) (A)
                 (A) (A) (A) (A) (A) (A) (A) (A) (A) (A) (A) (A)
                 (A) (A) (A) (A) (A) (A) (A) (A) (A) (A) (A) (A)
                 (A) (A) (A) (A) (A) (A) (A) (A) (A) (A) (A) (A)
                 (A) (A) (A) (A) (A) (A) (A) (A) (A) (A) (A) (A)
                 (A) (A) (A) (A) (A) (A) (A) (A) (A) (A) (A) (A)
                 (A)
 Beta  Orbitals:
       Occupied  (A) (A) (A) (A) (A) (A) (A) (A) (A)
       Virtual   (A) (A) (A) (A) (A) (A) (A) (A) (A) (A) (A) (A)
                 (A) (A) (A) (A) (A) (A) (A) (A) (A) (A) (A) (A)
                 (A) (A) (A) (A) (A) (A) (A) (A) (A) (A) (A) (A)
                 (A) (A) (A) (A) (A) (A) (A) (A) (A) (A) (A) (A)
                 (A) (A) (A) (A) (A) (A) (A) (A) (A) (A) (A) (A)
                 (A) (A) (A) (A) (A) (A) (A) (A) (A) (A) (A) (A)
                 (A) (A) (A) (A) (A) (A) (A) (A) (A) (A) (A) (A)
                 (A) (A)
 Initial guess <Sx>= 0.0000 <Sy>= 0.0000 <Sz>= 0.5000 <S**2>= 0.7613 S= 0.5056
 Harris functional with IExCor= 1009 diagonalized for initial guess.
 ExpMin= 8.45D-02 ExpMax= 8.59D+03 ExpMxC= 1.30D+03 IAcc=2 IRadAn=         0 AccDes= 0.00D+00
 HarFok:  IExCor= 1009 AccDes= 0.00D+00 IRadAn=         0 IDoV= 1
 ScaDFX=  1.000000  1.000000  1.000000  1.000000
 FoFCou: FMM=F IPFlag=           0 FMFlag=      100000 FMFlg1=           0
         NFxFlg=           0 DoJE=T BraDBF=F KetDBF=T FulRan=T
         Omega=  0.000000  0.000000  1.000000  0.000000  0.000000 ICntrl=     500 IOpCl=  0
         NMat0=    1 NMatS0=    1 NMatT0=    0 NMatD0=    1 NMtDS0=    0 NMtDT0=    0
         I1Cent=           4 NGrid=           0.
 Petite list used in FoFCou.
 Requested convergence on RMS density matrix=1.00D-08 within 128 cycles.
 Requested convergence on MAX density matrix=1.00D-06.
 Requested convergence on             energy=1.00D-06.
 No special actions if energy rises.
 Keep R1 and R2 ints in memory in canonical form, NReq=33013089.
 Integral accuracy reduced to 1.0D-05 until final iterations.
 Initial convergence to 1.0D-05 achieved.  Increase integral accuracy.
 SCF Done:  E(UM062X) =  -152.029090628     A.U. after   15 cycles
             Convg  =    0.3093D-08             -V/T =  2.0026
 <Sx>= 0.0000 <Sy>= 0.0000 <Sz>= 0.5000 <S**2>= 0.7613 S= 0.5056
 <L.S>= 0.000000000000E+00
 Annihilation of the first spin contaminant:
 S**2 before annihilation     0.7613,   after     0.7500
 Calling FoFJK, ICntrl=      2127 FMM=F ISym2X=0 I1Cent= 0 IOpClX= 1 NMat=1 NMatS=1 NMatT=0.
 ***** Axes restored to original set *****
 -------------------------------------------------------------------
 Center     Atomic                   Forces (Hartrees/Bohr)
 Number     Number              X              Y              Z
 -------------------------------------------------------------------
      1        8           0.000441941   -0.000216585   -0.000183650
      2        8          -0.000457854    0.000248337    0.000032687
      3        1          -0.000244635   -0.000687025    0.000261473
      4        1           0.000025703    0.000026532    0.000014803
      5        1           0.000234845    0.000628741   -0.000125315
 -------------------------------------------------------------------
 Cartesian Forces:  Max     0.000687025 RMS     0.000328257

 GradGradGradGradGradGradGradGradGradGradGradGradGradGradGradGradGradGrad
 Berny optimization.
 Internal  Forces:  Max     0.000631387 RMS     0.000294943
 Search for a saddle point.
 Step number   3 out of a maximum of   20
 All quantities printed in internal units (Hartrees-Bohrs-Radians)
 Swaping is turned off.
 Update second derivatives using D2CorX and points    1    2    3
 The second derivative matrix:
                          R1        R2        R3        R4        A1
           R1           0.36514
           R2           0.05770   0.05158
           R3           0.00436  -0.00424   0.52151
           R4          -0.02209   0.12557   0.00148   0.04329
           A1           0.05709  -0.01361  -0.00190   0.00560   0.18978
           A2           0.07617  -0.00023  -0.00313   0.00053   0.00922
           A3           0.00134   0.00035  -0.00034   0.00327   0.00151
           D1          -0.00228  -0.00308  -0.00254  -0.00104  -0.00650
           D2           0.00092  -0.00022  -0.00038   0.00177   0.00236
                          A2        A3        D1        D2
           A2           0.23936
           A3           0.00029   0.01746
           D1          -0.00910  -0.00554   0.02183
           D2          -0.00026   0.00063   0.00044   0.00248
 ITU=  0  0  0
     Eigenvalues ---   -0.08722   0.00240   0.01368   0.02498   0.15835
     Eigenvalues ---    0.18565   0.21172   0.42120   0.52167
 Eigenvectors required to have negative eigenvalues:
                          R4        R2        R1        A1        A2
   1                   -0.69802   0.69700  -0.13810   0.07601   0.03228
                          A3        D1        D2        R3
   1                    0.02099   0.01858   0.01481   0.00804
 RFO step:  Lambda0=3.740090314D-06 Lambda=-5.34998514D-06.
 Linear search not attempted -- option 19 set.
 Iteration  1 RMS(Cart)=  0.00377837 RMS(Int)=  0.00048912
 Iteration  2 RMS(Cart)=  0.00028129 RMS(Int)=  0.00000344
 Iteration  3 RMS(Cart)=  0.00000144 RMS(Int)=  0.00000000
 Iteration  4 RMS(Cart)=  0.00000000 RMS(Int)=  0.00000000
 Variable       Old X    -DE/DX   Delta X   Delta X   Delta X     New X
                                 (Linear)    (Quad)   (Total)
    R1        2.60567   0.00053   0.00000   0.00033   0.00033   2.60600
    R2        2.11940  -0.00006   0.00000   0.00614   0.00614   2.12554
    R3        1.82384  -0.00002   0.00000   0.00006   0.00006   1.82389
    R4        1.87568   0.00063   0.00000  -0.00309  -0.00309   1.87259
    A1        1.83763  -0.00025   0.00000  -0.00053  -0.00053   1.83710
    A2        1.80471   0.00004   0.00000   0.00041   0.00041   1.80512
    A3        3.05144   0.00017   0.00000   0.01329   0.01329   3.06473
    D1       -1.71801   0.00009   0.00000   0.00862   0.00862  -1.70939
    D2        1.41735  -0.00004   0.00000  -0.01707  -0.01707   1.40028
         Item               Value     Threshold  Converged?
 Maximum Force            0.000631     0.000450     NO 
 RMS     Force            0.000295     0.000300     YES
 Maximum Displacement     0.008741     0.001800     NO 
 RMS     Displacement     0.004052     0.001200     NO 
 Predicted change in Energy=-8.048650D-07
 GradGradGradGradGradGradGradGradGradGradGradGradGradGradGradGradGradGrad

                          Input orientation:                          
 ---------------------------------------------------------------------
 Center     Atomic      Atomic             Coordinates (Angstroms)
 Number     Number       Type             X           Y           Z
 ---------------------------------------------------------------------
      1          8           0        0.495512   -0.386089   -0.002297
      2          8           0       -0.759781    0.170341   -0.130222
      3          1           0        1.209768    0.481744   -0.045308
      4          1           0       -1.071038    0.233085    0.781216
      5          1           0        1.822857    1.259448   -0.009956
 ---------------------------------------------------------------------
                    Distance matrix (angstroms):
                    1          2          3          4          5
     1  O    0.000000
     2  O    1.379036   0.000000
     3  H    1.124786   1.995822   0.000000
     4  H    1.857781   0.965162   2.438658   0.000000
     5  H    2.114165   2.805465   0.990935   3.170805   0.000000
 Stoichiometry    H3O2(2)
 Framework group  C1[X(H3O2)]
 Deg. of freedom     9
 Full point group                 C1      NOp   1
 Largest Abelian subgroup         C1      NOp   1
 Largest concise Abelian subgroup C1      NOp   1
                         Standard orientation:                         
 ---------------------------------------------------------------------
 Center     Atomic      Atomic             Coordinates (Angstroms)
 Number     Number       Type             X           Y           Z
 ---------------------------------------------------------------------
      1          8           0        0.500505   -0.402843    0.018085
      2          8           0       -0.749329    0.163408   -0.119809
      3          1           0        1.221316    0.460131   -0.011101
      4          1           0       -1.070184    0.222180    0.788561
      5          1           0        1.839466    1.233171    0.036337
 ---------------------------------------------------------------------
 Rotational constants (GHZ):    100.2616360     24.9303658     21.3275664
 Standard basis: 6-311+G(2df,2p) (5D, 7F)
 There are    95 symmetry adapted basis functions of A   symmetry.
 Integral buffers will be    131072 words long.
 Raffenetti 2 integral format.
 Two-electron integral symmetry is turned on.
    95 basis functions,   137 primitive gaussians,   105 cartesian basis functions
    10 alpha electrons        9 beta electrons
       nuclear repulsion energy        41.5378747516 Hartrees.
 NAtoms=    5 NActive=    5 NUniq=    5 SFac= 1.00D+00 NAtFMM=   50 NAOKFM=F Big=F
 One-electron integrals computed using PRISM.
 NBasis=    95 RedAO= T  NBF=    95
 NBsUse=    95 1.00D-06 NBFU=    95
 Initial guess read from the read-write file.
 B after Tr=     0.000000    0.000000    0.000000
         Rot=    1.000000    0.000000    0.000000    0.000000 Ang=   0.00 deg.
 Initial guess orbital symmetries:
 Alpha Orbitals:
       Occupied  (A) (A) (A) (A) (A) (A) (A) (A) (A) (A)
       Virtual   (A) (A) (A) (A) (A) (A) (A) (A) (A) (A) (A) (A)
                 (A) (A) (A) (A) (A) (A) (A) (A) (A) (A) (A) (A)
                 (A) (A) (A) (A) (A) (A) (A) (A) (A) (A) (A) (A)
                 (A) (A) (A) (A) (A) (A) (A) (A) (A) (A) (A) (A)
                 (A) (A) (A) (A) (A) (A) (A) (A) (A) (A) (A) (A)
                 (A) (A) (A) (A) (A) (A) (A) (A) (A) (A) (A) (A)
                 (A) (A) (A) (A) (A) (A) (A) (A) (A) (A) (A) (A)
                 (A)
 Beta  Orbitals:
       Occupied  (A) (A) (A) (A) (A) (A) (A) (A) (A)
       Virtual   (A) (A) (A) (A) (A) (A) (A) (A) (A) (A) (A) (A)
                 (A) (A) (A) (A) (A) (A) (A) (A) (A) (A) (A) (A)
                 (A) (A) (A) (A) (A) (A) (A) (A) (A) (A) (A) (A)
                 (A) (A) (A) (A) (A) (A) (A) (A) (A) (A) (A) (A)
                 (A) (A) (A) (A) (A) (A) (A) (A) (A) (A) (A) (A)
                 (A) (A) (A) (A) (A) (A) (A) (A) (A) (A) (A) (A)
                 (A) (A) (A) (A) (A) (A) (A) (A) (A) (A) (A) (A)
                 (A) (A)
 Initial guess <Sx>= 0.0000 <Sy>= 0.0000 <Sz>= 0.5000 <S**2>= 0.7613 S= 0.5056
 Requested convergence on RMS density matrix=1.00D-08 within 128 cycles.
 Requested convergence on MAX density matrix=1.00D-06.
 Requested convergence on             energy=1.00D-06.
 No special actions if energy rises.
 Keep R1 and R2 ints in memory in canonical form, NReq=33013089.
 SCF Done:  E(UM062X) =  -152.029090926     A.U. after   12 cycles
             Convg  =    0.6247D-08             -V/T =  2.0026
 <Sx>= 0.0000 <Sy>= 0.0000 <Sz>= 0.5000 <S**2>= 0.7614 S= 0.5057
 <L.S>= 0.000000000000E+00
 Annihilation of the first spin contaminant:
 S**2 before annihilation     0.7614,   after     0.7500
 Calling FoFJK, ICntrl=      2127 FMM=F ISym2X=0 I1Cent= 0 IOpClX= 1 NMat=1 NMatS=1 NMatT=0.
 ***** Axes restored to original set *****
 -------------------------------------------------------------------
 Center     Atomic                   Forces (Hartrees/Bohr)
 Number     Number              X              Y              Z
 -------------------------------------------------------------------
      1        8          -0.000093814    0.000208686   -0.000099163
      2        8           0.000009846    0.000000834    0.000042675
      3        1           0.000228342   -0.000320231    0.000081164
      4        1           0.000030520   -0.000027636    0.000032298
      5        1          -0.000174894    0.000138347   -0.000056975
 -------------------------------------------------------------------
 Cartesian Forces:  Max     0.000320231 RMS     0.000136892

 GradGradGradGradGradGradGradGradGradGradGradGradGradGradGradGradGradGrad
 Berny optimization.
 Internal  Forces:  Max     0.000114801 RMS     0.000042274
 Search for a saddle point.
 Step number   4 out of a maximum of   20
 All quantities printed in internal units (Hartrees-Bohrs-Radians)
 Swaping is turned off.
 Update second derivatives using D2CorX and points    1    2    3    4
 The second derivative matrix:
                          R1        R2        R3        R4        A1
           R1           0.36511
           R2           0.05803   0.05406
           R3           0.00438  -0.00412   0.52151
           R4          -0.02239   0.12500   0.00145   0.04295
           A1           0.05714  -0.01343  -0.00191   0.00560   0.18974
           A2           0.07620  -0.00002  -0.00312   0.00047   0.00923
           A3           0.00228   0.00334  -0.00014   0.00360   0.00185
           D1          -0.00194  -0.00165  -0.00243  -0.00095  -0.00621
           D2           0.00039  -0.00289  -0.00061   0.00166   0.00174
                          A2        A3        D1        D2
           A2           0.23938
           A3           0.00061   0.01842
           D1          -0.00896  -0.00557   0.02147
           D2          -0.00051   0.00106   0.00132   0.00049
 ITU=  0  0  0  0
     Eigenvalues ---   -0.08575   0.00036   0.01419   0.02510   0.15852
     Eigenvalues ---    0.18592   0.21175   0.42136   0.52167
 Eigenvectors required to have negative eigenvalues:
                          R4        R2        R1        A1        D2
   1                   -0.70142   0.69314  -0.13913   0.07583   0.03592
                          A2        D1        R3        A3
   1                    0.03189   0.00892   0.00785   0.00367
 RFO step:  Lambda0=6.660356843D-08 Lambda=-2.21304966D-06.
 Linear search not attempted -- option 19 set.
 Iteration  1 RMS(Cart)=  0.00279912 RMS(Int)=  0.00027743
 Iteration  2 RMS(Cart)=  0.00018724 RMS(Int)=  0.00000036
 Iteration  3 RMS(Cart)=  0.00000010 RMS(Int)=  0.00000000
 Variable       Old X    -DE/DX   Delta X   Delta X   Delta X     New X
                                 (Linear)    (Quad)   (Total)
    R1        2.60600  -0.00003   0.00000  -0.00069  -0.00069   2.60531
    R2        2.12554  -0.00011   0.00000   0.00175   0.00175   2.12729
    R3        1.82389  -0.00001   0.00000  -0.00004  -0.00004   1.82385
    R4        1.87259   0.00000   0.00000  -0.00306  -0.00306   1.86954
    A1        1.83710  -0.00002   0.00000   0.00119   0.00119   1.83829
    A2        1.80512  -0.00001   0.00000   0.00021   0.00021   1.80533
    A3        3.06473  -0.00002   0.00000   0.00551   0.00551   3.07024
    D1       -1.70939   0.00001   0.00000   0.00696   0.00696  -1.70243
    D2        1.40028  -0.00003   0.00000  -0.07657  -0.07657   1.32371
         Item               Value     Threshold  Converged?
 Maximum Force            0.000115     0.000450     YES
 RMS     Force            0.000042     0.000300     YES
 Maximum Displacement     0.004776     0.001800     NO 
 RMS     Displacement     0.002897     0.001200     NO 
 Predicted change in Energy=-1.079852D-06
 GradGradGradGradGradGradGradGradGradGradGradGradGradGradGradGradGradGrad

                          Input orientation:                          
 ---------------------------------------------------------------------
 Center     Atomic      Atomic             Coordinates (Angstroms)
 Number     Number       Type             X           Y           Z
 ---------------------------------------------------------------------
      1          8           0        0.495115   -0.386708   -0.004122
      2          8           0       -0.759922    0.169749   -0.130522
      3          1           0        1.210761    0.481384   -0.042780
      4          1           0       -1.069422    0.234534    0.781351
      5          1           0        1.820788    1.259569   -0.010493
 ---------------------------------------------------------------------
                    Distance matrix (angstroms):
                    1          2          3          4          5
     1  O    0.000000
     2  O    1.378673   0.000000
     3  H    1.125712   1.997099   0.000000
     4  H    1.857602   0.965142   2.437081   0.000000
     5  H    2.113688   2.803958   0.989317   3.167180   0.000000
 Stoichiometry    H3O2(2)
 Framework group  C1[X(H3O2)]
 Deg. of freedom     9
 Full point group                 C1      NOp   1
 Largest Abelian subgroup         C1      NOp   1
 Largest concise Abelian subgroup C1      NOp   1
                         Standard orientation:                         
 ---------------------------------------------------------------------
 Center     Atomic      Atomic             Coordinates (Angstroms)
 Number     Number       Type             X           Y           Z
 ---------------------------------------------------------------------
      1          8           0        0.500371   -0.402882    0.018344
      2          8           0       -0.749278    0.162792   -0.119963
      3          1           0        1.222406    0.460338   -0.008912
      4          1           0       -1.068555    0.226263    0.788626
      5          1           0        1.837411    1.234121    0.033238
 ---------------------------------------------------------------------
 Rotational constants (GHZ):    100.2132409     24.9453213     21.3370746
 Standard basis: 6-311+G(2df,2p) (5D, 7F)
 There are    95 symmetry adapted basis functions of A   symmetry.
 Integral buffers will be    131072 words long.
 Raffenetti 2 integral format.
 Two-electron integral symmetry is turned on.
    95 basis functions,   137 primitive gaussians,   105 cartesian basis functions
    10 alpha electrons        9 beta electrons
       nuclear repulsion energy        41.5426720376 Hartrees.
 NAtoms=    5 NActive=    5 NUniq=    5 SFac= 1.00D+00 NAtFMM=   50 NAOKFM=F Big=F
 One-electron integrals computed using PRISM.
 NBasis=    95 RedAO= T  NBF=    95
 NBsUse=    95 1.00D-06 NBFU=    95
 Initial guess read from the read-write file.
 B after Tr=     0.000000    0.000000    0.000000
         Rot=    1.000000    0.000000    0.000000    0.000000 Ang=   0.00 deg.
 Initial guess orbital symmetries:
 Alpha Orbitals:
       Occupied  (A) (A) (A) (A) (A) (A) (A) (A) (A) (A)
       Virtual   (A) (A) (A) (A) (A) (A) (A) (A) (A) (A) (A) (A)
                 (A) (A) (A) (A) (A) (A) (A) (A) (A) (A) (A) (A)
                 (A) (A) (A) (A) (A) (A) (A) (A) (A) (A) (A) (A)
                 (A) (A) (A) (A) (A) (A) (A) (A) (A) (A) (A) (A)
                 (A) (A) (A) (A) (A) (A) (A) (A) (A) (A) (A) (A)
                 (A) (A) (A) (A) (A) (A) (A) (A) (A) (A) (A) (A)
                 (A) (A) (A) (A) (A) (A) (A) (A) (A) (A) (A) (A)
                 (A)
 Beta  Orbitals:
       Occupied  (A) (A) (A) (A) (A) (A) (A) (A) (A)
       Virtual   (A) (A) (A) (A) (A) (A) (A) (A) (A) (A) (A) (A)
                 (A) (A) (A) (A) (A) (A) (A) (A) (A) (A) (A) (A)
                 (A) (A) (A) (A) (A) (A) (A) (A) (A) (A) (A) (A)
                 (A) (A) (A) (A) (A) (A) (A) (A) (A) (A) (A) (A)
                 (A) (A) (A) (A) (A) (A) (A) (A) (A) (A) (A) (A)
                 (A) (A) (A) (A) (A) (A) (A) (A) (A) (A) (A) (A)
                 (A) (A) (A) (A) (A) (A) (A) (A) (A) (A) (A) (A)
                 (A) (A)
 Initial guess <Sx>= 0.0000 <Sy>= 0.0000 <Sz>= 0.5000 <S**2>= 0.7614 S= 0.5057
 Requested convergence on RMS density matrix=1.00D-08 within 128 cycles.
 Requested convergence on MAX density matrix=1.00D-06.
 Requested convergence on             energy=1.00D-06.
 No special actions if energy rises.
 Keep R1 and R2 ints in memory in canonical form, NReq=33013089.
 SCF Done:  E(UM062X) =  -152.029092381     A.U. after   11 cycles
             Convg  =    0.8198D-08             -V/T =  2.0026
 <Sx>= 0.0000 <Sy>= 0.0000 <Sz>= 0.5000 <S**2>= 0.7614 S= 0.5057
 <L.S>= 0.000000000000E+00
 Annihilation of the first spin contaminant:
 S**2 before annihilation     0.7614,   after     0.7500
 Calling FoFJK, ICntrl=      2127 FMM=F ISym2X=0 I1Cent= 0 IOpClX= 1 NMat=1 NMatS=1 NMatT=0.
 ***** Axes restored to original set *****
 -------------------------------------------------------------------
 Center     Atomic                   Forces (Hartrees/Bohr)
 Number     Number              X              Y              Z
 -------------------------------------------------------------------
      1        8          -0.000281945   -0.000121558   -0.000002960
      2        8           0.000085393    0.000059327    0.000014935
      3        1           0.000424660    0.000092547   -0.000056220
      4        1          -0.000021847   -0.000062355    0.000061377
      5        1          -0.000206262    0.000032040   -0.000017132
 -------------------------------------------------------------------
 Cartesian Forces:  Max     0.000424660 RMS     0.000152615

 GradGradGradGradGradGradGradGradGradGradGradGradGradGradGradGradGradGrad
 Berny optimization.
 Internal  Forces:  Max     0.000229096 RMS     0.000101046
 Search for a saddle point.
 Step number   5 out of a maximum of   20
 All quantities printed in internal units (Hartrees-Bohrs-Radians)
 Swaping is turned off.
 Update second derivatives using D2CorX and points    1    2    3    4    5
 The second derivative matrix:
                          R1        R2        R3        R4        A1
           R1           0.36492
           R2           0.05800   0.05476
           R3           0.00440  -0.00408   0.52151
           R4          -0.02266   0.12514   0.00150   0.04242
           A1           0.05704  -0.01326  -0.00189   0.00546   0.18968
           A2           0.07620  -0.00003  -0.00312   0.00051   0.00924
           A3           0.00207  -0.00012  -0.00048   0.00420   0.00164
           D1          -0.00199  -0.00258  -0.00253  -0.00084  -0.00612
           D2          -0.00012  -0.00022  -0.00020   0.00035   0.00059
                          A2        A3        D1        D2
           A2           0.23937
           A3           0.00026   0.01804
           D1          -0.00905  -0.00490   0.02186
           D2          -0.00017  -0.00034   0.00036   0.00013
 ITU=  0  0  0  0  0
     Eigenvalues ---   -0.08585   0.00011   0.01467   0.02464   0.15863
     Eigenvalues ---    0.18593   0.21170   0.42118   0.52167
 Eigenvectors required to have negative eigenvalues:
                          R4        R2        R1        A1        A2
   1                   -0.70338   0.69120  -0.13941   0.07522   0.03222
                          A3        D1        R3        D2
   1                    0.03161   0.01714   0.00788   0.00412
 RFO step:  Lambda0=6.059252320D-07 Lambda=-5.59036723D-06.
 Linear search not attempted -- option 19 set.
 Iteration  1 RMS(Cart)=  0.00661860 RMS(Int)=  0.00837650
 Iteration  2 RMS(Cart)=  0.00074882 RMS(Int)=  0.00001293
 Iteration  3 RMS(Cart)=  0.00001459 RMS(Int)=  0.00000000
 Iteration  4 RMS(Cart)=  0.00000000 RMS(Int)=  0.00000000
 Variable       Old X    -DE/DX   Delta X   Delta X   Delta X     New X
                                 (Linear)    (Quad)   (Total)
    R1        2.60531  -0.00004   0.00000   0.00009   0.00009   2.60541
    R2        2.12729   0.00023   0.00000  -0.00052  -0.00052   2.12677
    R3        1.82385   0.00003   0.00000  -0.00004  -0.00004   1.82381
    R4        1.86954  -0.00011   0.00000   0.00161   0.00161   1.87115
    A1        1.83829  -0.00009   0.00000   0.00000   0.00000   1.83830
    A2        1.80533   0.00003   0.00000  -0.00015  -0.00015   1.80518
    A3        3.07024  -0.00010   0.00000  -0.01030  -0.01030   3.05994
    D1       -1.70243  -0.00008   0.00000  -0.00289  -0.00289  -1.70532
    D2        1.32371  -0.00002   0.00000  -0.18699  -0.18699   1.13672
         Item               Value     Threshold  Converged?
 Maximum Force            0.000229     0.000450     YES
 RMS     Force            0.000101     0.000300     YES
 Maximum Displacement     0.012708     0.001800     NO 
 RMS     Displacement     0.006947     0.001200     NO 
 Predicted change in Energy=-2.593990D-06
 GradGradGradGradGradGradGradGradGradGradGradGradGradGradGradGradGradGrad

                          Input orientation:                          
 ---------------------------------------------------------------------
 Center     Atomic      Atomic             Coordinates (Angstroms)
 Number     Number       Type             X           Y           Z
 ---------------------------------------------------------------------
      1          8           0        0.494941   -0.389026   -0.004441
      2          8           0       -0.757929    0.172490   -0.130490
      3          1           0        1.213919    0.475918   -0.043849
      4          1           0       -1.067675    0.236426    0.781336
      5          1           0        1.814063    1.262720   -0.009124
 ---------------------------------------------------------------------
                    Distance matrix (angstroms):
                    1          2          3          4          5
     1  O    0.000000
     2  O    1.378721   0.000000
     3  H    1.125437   1.996938   0.000000
     4  H    1.857527   0.965121   2.438023   0.000000
     5  H    2.113851   2.796154   0.990170   3.159513   0.000000
 Stoichiometry    H3O2(2)
 Framework group  C1[X(H3O2)]
 Deg. of freedom     9
 Full point group                 C1      NOp   1
 Largest Abelian subgroup         C1      NOp   1
 Largest concise Abelian subgroup C1      NOp   1
                         Standard orientation:                         
 ---------------------------------------------------------------------
 Center     Atomic      Atomic             Coordinates (Angstroms)
 Number     Number       Type             X           Y           Z
 ---------------------------------------------------------------------
      1          8           0        0.500912   -0.403608    0.018325
      2          8           0       -0.748494    0.162728   -0.119954
      3          1           0        1.223283    0.458943   -0.009890
      4          1           0       -1.068348    0.224583    0.788520
      5          1           0        1.825716    1.243512    0.034400
 ---------------------------------------------------------------------
 Rotational constants (GHZ):     99.7005416     25.0030773     21.3557247
 Standard basis: 6-311+G(2df,2p) (5D, 7F)
 There are    95 symmetry adapted basis functions of A   symmetry.
 Integral buffers will be    131072 words long.
 Raffenetti 2 integral format.
 Two-electron integral symmetry is turned on.
    95 basis functions,   137 primitive gaussians,   105 cartesian basis functions
    10 alpha electrons        9 beta electrons
       nuclear repulsion energy        41.5470016688 Hartrees.
 NAtoms=    5 NActive=    5 NUniq=    5 SFac= 1.00D+00 NAtFMM=   50 NAOKFM=F Big=F
 One-electron integrals computed using PRISM.
 NBasis=    95 RedAO= T  NBF=    95
 NBsUse=    95 1.00D-06 NBFU=    95
 Initial guess read from the read-write file.
 B after Tr=     0.000000    0.000000    0.000000
         Rot=    1.000000    0.000000    0.000000    0.000000 Ang=   0.00 deg.
 Initial guess orbital symmetries:
 Alpha Orbitals:
       Occupied  (A) (A) (A) (A) (A) (A) (A) (A) (A) (A)
       Virtual   (A) (A) (A) (A) (A) (A) (A) (A) (A) (A) (A) (A)
                 (A) (A) (A) (A) (A) (A) (A) (A) (A) (A) (A) (A)
                 (A) (A) (A) (A) (A) (A) (A) (A) (A) (A) (A) (A)
                 (A) (A) (A) (A) (A) (A) (A) (A) (A) (A) (A) (A)
                 (A) (A) (A) (A) (A) (A) (A) (A) (A) (A) (A) (A)
                 (A) (A) (A) (A) (A) (A) (A) (A) (A) (A) (A) (A)
                 (A) (A) (A) (A) (A) (A) (A) (A) (A) (A) (A) (A)
                 (A)
 Beta  Orbitals:
       Occupied  (A) (A) (A) (A) (A) (A) (A) (A) (A)
       Virtual   (A) (A) (A) (A) (A) (A) (A) (A) (A) (A) (A) (A)
                 (A) (A) (A) (A) (A) (A) (A) (A) (A) (A) (A) (A)
                 (A) (A) (A) (A) (A) (A) (A) (A) (A) (A) (A) (A)
                 (A) (A) (A) (A) (A) (A) (A) (A) (A) (A) (A) (A)
                 (A) (A) (A) (A) (A) (A) (A) (A) (A) (A) (A) (A)
                 (A) (A) (A) (A) (A) (A) (A) (A) (A) (A) (A) (A)
                 (A) (A) (A) (A) (A) (A) (A) (A) (A) (A) (A) (A)
                 (A) (A)
 Initial guess <Sx>= 0.0000 <Sy>= 0.0000 <Sz>= 0.5000 <S**2>= 0.7614 S= 0.5057
 Requested convergence on RMS density matrix=1.00D-08 within 128 cycles.
 Requested convergence on MAX density matrix=1.00D-06.
 Requested convergence on             energy=1.00D-06.
 No special actions if energy rises.
 Keep R1 and R2 ints in memory in canonical form, NReq=33013089.
 SCF Done:  E(UM062X) =  -152.029094877     A.U. after   11 cycles
             Convg  =    0.8082D-08             -V/T =  2.0026
 <Sx>= 0.0000 <Sy>= 0.0000 <Sz>= 0.5000 <S**2>= 0.7614 S= 0.5057
 <L.S>= 0.000000000000E+00
 Annihilation of the first spin contaminant:
 S**2 before annihilation     0.7614,   after     0.7500
 Calling FoFJK, ICntrl=      2127 FMM=F ISym2X=0 I1Cent= 0 IOpClX= 1 NMat=1 NMatS=1 NMatT=0.
 ***** Axes restored to original set *****
 -------------------------------------------------------------------
 Center     Atomic                   Forces (Hartrees/Bohr)
 Number     Number              X              Y              Z
 -------------------------------------------------------------------
      1        8           0.000003475   -0.000056828   -0.000029181
      2        8           0.000045594    0.000036536   -0.000000822
      3        1           0.000020117    0.000168681    0.000002293
      4        1          -0.000016228   -0.000048061    0.000067738
      5        1          -0.000052958   -0.000100329   -0.000040028
 -------------------------------------------------------------------
 Cartesian Forces:  Max     0.000168681 RMS     0.000062185

 GradGradGradGradGradGradGradGradGradGradGradGradGradGradGradGradGradGrad
 Berny optimization.
 Internal  Forces:  Max     0.000117022 RMS     0.000053765
 Search for a saddle point.
 Step number   6 out of a maximum of   20
 All quantities printed in internal units (Hartrees-Bohrs-Radians)
 Swaping is turned off.
 Update second derivatives using D2CorX and points    2    3    4    5    6
 The second derivative matrix:
                          R1        R2        R3        R4        A1
           R1           0.36483
           R2           0.05804   0.05474
           R3           0.00441  -0.00408   0.52151
           R4          -0.02278   0.12519   0.00152   0.04227
           A1           0.05696  -0.01323  -0.00188   0.00537   0.18962
           A2           0.07620  -0.00003  -0.00312   0.00051   0.00924
           A3           0.00179   0.00006  -0.00047   0.00396   0.00145
           D1          -0.00207  -0.00253  -0.00253  -0.00092  -0.00618
           D2          -0.00015  -0.00010   0.00001  -0.00026   0.00037
                          A2        A3        D1        D2
           A2           0.23937
           A3           0.00025   0.01750
           D1          -0.00906  -0.00507   0.02182
           D2          -0.00004   0.00007   0.00009   0.00012
 ITU=  0  0  0  0  0  0
     Eigenvalues ---   -0.08597   0.00012   0.01412   0.02458   0.15858
     Eigenvalues ---    0.18592   0.21167   0.42109   0.52167
 Eigenvectors required to have negative eigenvalues:
                          R4        R2        R1        A1        A2
   1                   -0.70361   0.69113  -0.13957   0.07492   0.03224
                          A3        D1        R3        D2
   1                    0.02860   0.01606   0.00790  -0.00186
 RFO step:  Lambda0=1.147524981D-07 Lambda=-4.29471891D-07.
 Linear search not attempted -- option 19 set.
 Iteration  1 RMS(Cart)=  0.00173511 RMS(Int)=  0.00005690
 Iteration  2 RMS(Cart)=  0.00006933 RMS(Int)=  0.00000001
 Iteration  3 RMS(Cart)=  0.00000000 RMS(Int)=  0.00000000
 Variable       Old X    -DE/DX   Delta X   Delta X   Delta X     New X
                                 (Linear)    (Quad)   (Total)
    R1        2.60541  -0.00001   0.00000   0.00025   0.00025   2.60565
    R2        2.12677   0.00002   0.00000  -0.00111  -0.00111   2.12566
    R3        1.82381   0.00004   0.00000   0.00005   0.00005   1.82387
    R4        1.87115  -0.00012   0.00000   0.00049   0.00049   1.87164
    A1        1.83830  -0.00004   0.00000  -0.00051  -0.00051   1.83778
    A2        1.80518   0.00003   0.00000  -0.00002  -0.00002   1.80516
    A3        3.05994   0.00007   0.00000   0.00335   0.00335   3.06329
    D1       -1.70532  -0.00005   0.00000  -0.00187  -0.00187  -1.70719
    D2        1.13672   0.00000   0.00000   0.01978   0.01978   1.15650
         Item               Value     Threshold  Converged?
 Maximum Force            0.000117     0.000450     YES
 RMS     Force            0.000054     0.000300     YES
 Maximum Displacement     0.002598     0.001800     NO 
 RMS     Displacement     0.001801     0.001200     NO 
 Predicted change in Energy=-1.573593D-07
 GradGradGradGradGradGradGradGradGradGradGradGradGradGradGradGradGradGrad

                          Input orientation:                          
 ---------------------------------------------------------------------
 Center     Atomic      Atomic             Coordinates (Angstroms)
 Number     Number       Type             X           Y           Z
 ---------------------------------------------------------------------
      1          8           0        0.495155   -0.388390   -0.004081
      2          8           0       -0.757870    0.173036   -0.130429
      3          1           0        1.213209    0.476573   -0.043119
      4          1           0       -1.068614    0.235128    0.781216
      5          1           0        1.815438    1.262181   -0.010154
 ---------------------------------------------------------------------
                    Distance matrix (angstroms):
                    1          2          3          4          5
     1  O    0.000000
     2  O    1.378853   0.000000
     3  H    1.124849   1.996224   0.000000
     4  H    1.857644   0.965150   2.438143   0.000000
     5  H    2.113662   2.796894   0.990427   3.162097   0.000000
 Stoichiometry    H3O2(2)
 Framework group  C1[X(H3O2)]
 Deg. of freedom     9
 Full point group                 C1      NOp   1
 Largest Abelian subgroup         C1      NOp   1
 Largest concise Abelian subgroup C1      NOp   1
                         Standard orientation:                         
 ---------------------------------------------------------------------
 Center     Atomic      Atomic             Coordinates (Angstroms)
 Number     Number       Type             X           Y           Z
 ---------------------------------------------------------------------
      1          8           0        0.500977   -0.403491    0.017999
      2          8           0       -0.748510    0.163089   -0.119854
      3          1           0        1.222520    0.459036   -0.008647
      4          1           0       -1.069396    0.221897    0.788489
      5          1           0        1.827140    1.242282    0.034999
 ---------------------------------------------------------------------
 Rotational constants (GHZ):     99.7826157     24.9947957     21.3525940
 Standard basis: 6-311+G(2df,2p) (5D, 7F)
 There are    95 symmetry adapted basis functions of A   symmetry.
 Integral buffers will be    131072 words long.
 Raffenetti 2 integral format.
 Two-electron integral symmetry is turned on.
    95 basis functions,   137 primitive gaussians,   105 cartesian basis functions
    10 alpha electrons        9 beta electrons
       nuclear repulsion energy        41.5465997252 Hartrees.
 NAtoms=    5 NActive=    5 NUniq=    5 SFac= 1.00D+00 NAtFMM=   50 NAOKFM=F Big=F
 One-electron integrals computed using PRISM.
 NBasis=    95 RedAO= T  NBF=    95
 NBsUse=    95 1.00D-06 NBFU=    95
 Initial guess read from the read-write file.
 B after Tr=     0.000000    0.000000    0.000000
         Rot=    1.000000    0.000000    0.000000    0.000000 Ang=   0.00 deg.
 Initial guess orbital symmetries:
 Alpha Orbitals:
       Occupied  (A) (A) (A) (A) (A) (A) (A) (A) (A) (A)
       Virtual   (A) (A) (A) (A) (A) (A) (A) (A) (A) (A) (A) (A)
                 (A) (A) (A) (A) (A) (A) (A) (A) (A) (A) (A) (A)
                 (A) (A) (A) (A) (A) (A) (A) (A) (A) (A) (A) (A)
                 (A) (A) (A) (A) (A) (A) (A) (A) (A) (A) (A) (A)
                 (A) (A) (A) (A) (A) (A) (A) (A) (A) (A) (A) (A)
                 (A) (A) (A) (A) (A) (A) (A) (A) (A) (A) (A) (A)
                 (A) (A) (A) (A) (A) (A) (A) (A) (A) (A) (A) (A)
                 (A)
 Beta  Orbitals:
       Occupied  (A) (A) (A) (A) (A) (A) (A) (A) (A)
       Virtual   (A) (A) (A) (A) (A) (A) (A) (A) (A) (A) (A) (A)
                 (A) (A) (A) (A) (A) (A) (A) (A) (A) (A) (A) (A)
                 (A) (A) (A) (A) (A) (A) (A) (A) (A) (A) (A) (A)
[...]
    X=             -0.2422    Y=              0.9469    Z=              1.5555  Tot=              1.8371
 Quadrupole moment (field-independent basis, Debye-Ang):
   XX=            -11.4518   YY=            -13.7332   ZZ=            -12.5162
   XY=              0.6409   XZ=             -2.0578   YZ=              0.4293
 Traceless Quadrupole moment (field-independent basis, Debye-Ang):
   XX=              1.1153   YY=             -1.1662   ZZ=              0.0509
   XY=              0.6409   XZ=             -2.0578   YZ=              0.4293
 Octapole moment (field-independent basis, Debye-Ang**2):
  XXX=             -3.5815  YYY=             -1.9018  ZZZ=              1.4958  XYY=             -0.9123
  XXY=              0.7021  XXZ=              2.3308  XZZ=             -2.9590  YZZ=             -0.2272
  YYZ=              0.2859  XYZ=             -0.4501
 Hexadecapole moment (field-independent basis, Debye-Ang**3):
 XXXX=            -66.8397 YYYY=            -29.9593 ZZZZ=            -12.2973 XXXY=             -4.0586
 XXXZ=             -3.2649 YYYX=             -2.9176 YYYZ=              0.1767 ZZZX=             -2.3295
 ZZZY=              0.3999 XXYY=            -16.1415 XXZZ=            -13.2293 YYZZ=             -7.4165
 XXYZ=              0.4204 YYXZ=             -0.4178 ZZXY=             -1.4916
 N-N= 4.154659972515D+01 E-N=-6.592361229139D+02  KE= 2.264677731166D+02
  Exact polarizability:  33.881  10.237  22.340  -0.435   0.376  12.870
 Approx polarizability:  32.169   7.648  22.957  -0.049   0.481  13.943
                          Isotropic Fermi Contact Couplings
        Atom                 a.u.       MegaHertz       Gauss      10(-4) cm-1
     1  O(17)              0.05152     -31.23176     -11.14427     -10.41779
     2  O(17)              0.01164      -7.05722      -2.51819      -2.35403
     3  H(1)              -0.04196    -187.55198     -66.92321     -62.56061
     4  H(1)              -0.00140      -6.27810      -2.24018      -2.09415
     5  H(1)               0.21767     972.93917     347.16888     324.53758
 --------------------------------------------------------
       Center         ----  Spin Dipole Couplings  ----
                      3XX-RR        3YY-RR        3ZZ-RR
 --------------------------------------------------------
     1   Atom       -0.402849      1.354162     -0.951312
     2   Atom       -0.007561      0.181359     -0.173798
     3   Atom        0.037460      0.099375     -0.136835
     4   Atom        0.005635     -0.011063      0.005428
     5   Atom        0.000617     -0.000229     -0.000387
 --------------------------------------------------------
                        XY            XZ            YZ
 --------------------------------------------------------
     1   Atom        1.130979      0.051519      0.094280
     2   Atom        0.334581      0.017755      0.056203
     3   Atom        0.199371     -0.000898     -0.000682
     4   Atom        0.000060     -0.014878      0.005876
     5   Atom       -0.001006      0.000716      0.000749
 --------------------------------------------------------


 ---------------------------------------------------------------------------------
              Anisotropic Spin Dipole Couplings in Principal Axis System
 ---------------------------------------------------------------------------------

       Atom             a.u.   MegaHertz   Gauss  10(-4) cm-1        Axes

              Baa    -0.9607    69.518    24.806    23.189  0.6811 -0.3056 -0.6654
     1 O(17)  Bbb    -0.9510    68.816    24.555    22.955  0.5858 -0.3179  0.7456
              Bcc     1.9118  -138.334   -49.361   -46.143  0.4394  0.8975  0.0375
 
              Baa    -0.2652    19.193     6.849     6.402  0.7669 -0.6024  0.2213
     2 O(17)  Bbb    -0.1743    12.615     4.502     4.208 -0.2305  0.0634  0.9710
              Bcc     0.4396   -31.808   -11.350   -10.610  0.5990  0.7957  0.0902
 
              Baa    -0.1369   -73.019   -26.055   -24.356  0.0531 -0.0419  0.9977
     3 H(1)   Bbb    -0.1333   -71.137   -25.383   -23.729  0.7576 -0.6493 -0.0676
              Bcc     0.2702   144.155    51.438    48.085  0.6506  0.7594 -0.0027
 
              Baa    -0.0148    -7.894    -2.817    -2.633 -0.3640  0.7879 -0.4967
     4 H(1)   Bbb    -0.0061    -3.281    -1.171    -1.094  0.6247  0.6021  0.4972
              Bcc     0.0209    11.175     3.987     3.727 -0.6908  0.1293  0.7114
 
              Baa    -0.0017    -0.906    -0.323    -0.302  0.4662  0.6341 -0.6169
     5 H(1)   Bbb     0.0004     0.206     0.074     0.069  0.2100  0.5981  0.7734
              Bcc     0.0013     0.700     0.250     0.233  0.8594 -0.4901  0.1457
 

 ---------------------------------------------------------------------------------

 PrsmSu:  requested number of processors reduced to:  37 ShMem   1 Linda.
 Calling FoFJK, ICntrl=    100127 FMM=F ISym2X=0 I1Cent= 0 IOpClX= 1 NMat=1 NMatS=1 NMatT=0.
 CoulSu:  requested number of processors reduced to:  37 ShMem   1 Linda.
 Full mass-weighted force constant matrix:
 Low frequencies ----2132.5816  -43.9344   -0.0014   -0.0014    0.0009   19.7457
 Low frequencies ---   79.1446  393.9899  471.3172
 ******    1 imaginary frequencies (negative Signs) ****** 
 Harmonic frequencies (cm**-1), IR intensities (KM/Mole), Raman scattering
 activities (A**4/AMU), depolarization ratios for plane and unpolarized
 incident light, reduced masses (AMU), force constants (mDyne/A),
 and normal coordinates:
                     1                      2                      3
                     A                      A                      A
 Frequencies -- -2132.5793               393.9728               470.9991
 Red. masses --     1.0537                 1.2878                 1.1012
 Frc consts  --     2.8234                 0.1178                 0.1439
 IR Inten    --  1420.0367                 0.7651               108.6714
  Atom  AN      X      Y      Z        X      Y      Z        X      Y      Z
     1   8    -0.05  -0.01   0.00     0.01   0.10   0.00    -0.01  -0.01   0.04
     2   8     0.02  -0.01   0.00    -0.06  -0.07   0.00     0.03   0.06   0.00
     3   1     0.62   0.70   0.02     0.07   0.04  -0.02     0.02   0.00  -0.02
     4   1     0.00   0.02   0.01    -0.07  -0.12   0.00    -0.37  -0.83  -0.09
     5   1    -0.21  -0.28  -0.01     0.83  -0.51   0.05     0.00  -0.01  -0.41
                     4                      5                      6
                     A                      A                      A
 Frequencies --   741.8147              1098.6135              1309.8119
 Red. masses --     1.0258                10.4219                 1.0716
 Frc consts  --     0.3326                 7.4111                 1.0832
 IR Inten    --    44.8195                29.2795                 8.6500
  Atom  AN      X      Y      Z        X      Y      Z        X      Y      Z
     1   8     0.00  -0.01  -0.03     0.49  -0.25   0.06     0.01  -0.05   0.00
     2   8    -0.01  -0.01   0.00    -0.52   0.23  -0.07     0.03   0.02   0.00
     3   1    -0.04   0.05   0.89     0.43   0.38  -0.01    -0.75   0.62  -0.07
     4   1     0.05   0.12   0.01     0.12  -0.02   0.17    -0.05   0.06  -0.03
     5   1     0.09   0.05  -0.41    -0.01  -0.03   0.02     0.09  -0.16   0.01
                     7                      8                      9
                     A                      A                      A
 Frequencies --  1449.3623              1523.9971              3823.7725
 Red. masses --     1.0985                 1.1151                 1.0682
 Frc consts  --     1.3595                 1.5259                 9.2024
 IR Inten    --    40.4680                 4.1344                66.4986
  Atom  AN      X      Y      Z        X      Y      Z        X      Y      Z
     1   8    -0.03   0.02   0.04     0.06   0.06  -0.01     0.00   0.00   0.00
     2   8    -0.01   0.01  -0.05     0.00   0.00   0.01    -0.02   0.00   0.06
     3   1    -0.11   0.01   0.03    -0.16  -0.25   0.08     0.01   0.01   0.00
     4   1     0.86  -0.37   0.27    -0.13   0.06  -0.04     0.32  -0.06  -0.94
     5   1    -0.08  -0.13  -0.01    -0.57  -0.74  -0.05     0.00   0.00   0.00

 -------------------
 - Thermochemistry -
 -------------------
 Temperature   298.150 Kelvin.  Pressure   1.00000 Atm.
 Atom     1 has atomic number  8 and mass  15.99491
 Atom     2 has atomic number  8 and mass  15.99491
 Atom     3 has atomic number  1 and mass   1.00783
 Atom     4 has atomic number  1 and mass   1.00783
 Atom     5 has atomic number  1 and mass   1.00783
 Molecular mass:    35.01330 amu.
 Principal axes and moments of inertia in atomic units:
                           1         2         3
     Eigenvalues --    18.08673  72.20468  84.52093
           X            0.98275   0.18166  -0.03459
           Y           -0.18019   0.98275   0.04159
           Z            0.04154  -0.03464   0.99854
 This molecule is an asymmetric top.
 Rotational symmetry number  1.
 Rotational temperatures (Kelvin)      4.78880     1.19956     1.02476
 Rotational constants (GHZ):          99.78262    24.99480    21.35259
    1 imaginary frequencies ignored.
 Zero-point vibrational energy      64672.2 (Joules/Mol)
                                   15.45702 (Kcal/Mol)
 Warning -- explicit consideration of   2 degrees of freedom as
           vibrations may cause significant error
 Vibrational temperatures:    566.84   677.66  1067.30  1580.66  1884.52
          (Kelvin)           2085.31  2192.69  5501.55
 
 Zero-point correction=                           0.024632 (Hartree/Particle)
 Thermal correction to Energy=                    0.028170
 Thermal correction to Enthalpy=                  0.029114
 Thermal correction to Gibbs Free Energy=         0.000890
 Sum of electronic and zero-point Energies=           -152.004463
 Sum of electronic and thermal Energies=              -152.000925
 Sum of electronic and thermal Enthalpies=            -151.999981
 Sum of electronic and thermal Free Energies=         -152.028205
 
                     E (Thermal)             CV                S
                      KCal/Mol        Cal/Mol-Kelvin    Cal/Mol-Kelvin
 Total                   17.677             10.093             59.402
 Electronic               0.000              0.000              1.377
 Translational            0.889              2.981             36.590
 Rotational               0.889              2.981             19.340
 Vibrational             15.899              4.131              2.094
 Vibration     1          0.761              1.483              0.985
 Vibration     2          0.828              1.314              0.735
                       Q            Log10(Q)             Ln(Q)
 Total Bot       0.389456D+00         -0.409541         -0.943004
 Total V=0       0.832761D+11         10.920520         25.145427
 Vib (Bot)       0.635817D-11        -11.196668        -25.781280
 Vib (Bot)    1  0.454395D+00         -0.342567         -0.788789
 Vib (Bot)    2  0.357819D+00         -0.446337         -1.027729
 Vib (V=0)       0.135955D+01          0.133394          0.307151
 Vib (V=0)    1  0.117563D+01          0.070270          0.161803
 Vib (V=0)    2  0.111484D+01          0.047214          0.108715
 Electronic      0.200000D+01          0.301030          0.693147
 Translational   0.814338D+07          6.910805         15.912716
 Rotational      0.376090D+04          3.575291          8.232412
 ***** Axes restored to original set *****
 -------------------------------------------------------------------
 Center     Atomic                   Forces (Hartrees/Bohr)
 Number     Number              X              Y              Z
 -------------------------------------------------------------------
      1        8           0.000005613   -0.000013637   -0.000027675
      2        8          -0.000012748    0.000015751    0.000022387
      3        1          -0.000002811    0.000008481   -0.000024076
      4        1           0.000014710   -0.000031791    0.000041244
      5        1          -0.000004764    0.000021196   -0.000011880
 -------------------------------------------------------------------
 Cartesian Forces:  Max     0.000041244 RMS     0.000020159

 GradGradGradGradGradGradGradGradGradGradGradGradGradGradGradGradGradGrad
 Berny optimization.
 Internal  Forces:  Max     0.000014594 RMS     0.000008289
 Search for a saddle point.
 Step number   1 out of a maximum of    2
 All quantities printed in internal units (Hartrees-Bohrs-Radians)
 Swaping is turned off.
 Second derivative matrix not updated -- analytic derivatives used.
 The second derivative matrix:
                          R1        R2        R3        R4        A1
           R1           0.37057
           R2           0.05969   0.06900
           R3           0.00517  -0.00433   0.52436
           R4          -0.02374   0.12902   0.00172   0.05246
           A1           0.05763  -0.01442  -0.00164   0.00536   0.18939
           A2           0.07640   0.00018  -0.00319   0.00017   0.00741
           A3          -0.00130   0.00034  -0.00057   0.00046   0.00278
           D1           0.00051  -0.00379  -0.00092   0.00170  -0.00774
           D2          -0.00001  -0.00012  -0.00002  -0.00001   0.00038
                          A2        A3        D1        D2
           A2           0.23912
           A3          -0.00007   0.01836
           D1          -0.00812  -0.00538   0.02135
           D2          -0.00004   0.00015   0.00018   0.00013
 ITU=  0
     Eigenvalues ---   -0.07851   0.00012   0.01421   0.02496   0.16374
     Eigenvalues ---    0.19609   0.21340   0.42617   0.52455
 Eigenvectors required to have negative eigenvalues:
                          R4        R2        R1        A1        D1
   1                   -0.70595   0.68570  -0.14507   0.08274   0.04801
                          A2        R3        A3        D2
   1                    0.03428   0.00866  -0.00060   0.00045
 Angle between quadratic step and forces=  85.47 degrees.
 Linear search not attempted -- option 19 set.
 Iteration  1 RMS(Cart)=  0.00014730 RMS(Int)=  0.00000217
 Iteration  2 RMS(Cart)=  0.00000020 RMS(Int)=  0.00000000
 Variable       Old X    -DE/DX   Delta X   Delta X   Delta X     New X
                                 (Linear)    (Quad)   (Total)
    R1        2.60565   0.00001   0.00000   0.00003   0.00003   2.60569
    R2        2.12566   0.00001   0.00000   0.00009   0.00009   2.12575
    R3        1.82387   0.00001   0.00000   0.00001   0.00001   1.82388
    R4        1.87164   0.00001   0.00000   0.00000   0.00000   1.87164
    A1        1.83778  -0.00001   0.00000  -0.00006  -0.00006   1.83772
    A2        1.80516   0.00000   0.00000   0.00000   0.00000   1.80516
    A3        3.06329   0.00000   0.00000  -0.00016  -0.00016   3.06312
    D1       -1.70719  -0.00001   0.00000  -0.00032  -0.00032  -1.70752
    D2        1.15650   0.00000   0.00000  -0.00309  -0.00309   1.15341
         Item               Value     Threshold  Converged?
 Maximum Force            0.000015     0.000450     YES
 RMS     Force            0.000008     0.000300     YES
 Maximum Displacement     0.000247     0.001800     YES
 RMS     Displacement     0.000147     0.001200     YES
 Predicted change in Energy=-3.057536D-09
 Optimization completed.
    -- Stationary point found.
                           ----------------------------
                           !   Optimized Parameters   !
                           ! (Angstroms and Degrees)  !
 --------------------------                            --------------------------
 ! Name  Definition              Value          Derivative Info.                !
 --------------------------------------------------------------------------------
 ! R1    R(1,2)                  1.3789         -DE/DX =    0.0                 !
 ! R2    R(1,3)                  1.1248         -DE/DX =    0.0                 !
 ! R3    R(2,4)                  0.9651         -DE/DX =    0.0                 !
 ! R4    R(3,5)                  0.9904         -DE/DX =    0.0                 !
 ! A1    A(2,1,3)              105.2972         -DE/DX =    0.0                 !
 ! A2    A(1,2,4)              103.4281         -DE/DX =    0.0                 !
 ! A3    A(1,3,5)              175.5134         -DE/DX =    0.0                 !
 ! D1    D(3,1,2,4)            -97.815          -DE/DX =    0.0                 !
 ! D2    D(2,1,3,5)             66.2627         -DE/DX =    0.0                 !
 --------------------------------------------------------------------------------
 GradGradGradGradGradGradGradGradGradGradGradGradGradGradGradGradGradGrad

 1\1\GINC-COMPUTE-0-119\Freq\UM062X\6-311+G(2df,2p)\H3O2(2)\BHOORASINGH
 .P\21-Aug-2015\0\\#N Geom=AllCheck Guess=TCheck SCRF=Check GenChk UM06
 2X/6-311+G(2df,2p) Freq\\OO+[H]_[H][H]+[O]O\\0,2\O,0.4951551573,-0.388
 3900095,-0.0040808394\O,-0.757870091,0.1730363395,-0.1304289927\H,1.21
 32092591,0.4765725068,-0.0431189873\H,-1.0686140825,0.2351281612,0.781
 2160025\H,1.815437757,1.2621810021,-0.010154183\\Version=EM64L-G09RevB
 .01\State=2-A\HF=-152.0290951\S2=0.761375\S2-1=0.\S2A=0.75003\RMSD=6.8
 86e-10\RMSF=2.016e-05\ZeroPoint=0.0246323\Thermal=0.0281699\Dipole=-0.
 0896791,0.3751897,0.6112027\DipoleDeriv=0.9908838,0.6232699,0.0146593,
 -0.0034081,-0.0656508,-0.0227999,-0.014681,0.0447505,-0.2739047,-0.900
 9699,-0.4195499,-0.0179523,0.3980808,-0.1263545,-0.0176696,0.0849401,-
 0.0361904,-0.1122092,-0.5790357,-0.4205562,0.0160916,-0.7179398,-0.366
 9357,0.0259722,0.0223281,0.036359,0.185094,0.2747091,0.0471842,-0.0063
 175,0.0324129,0.3367864,0.0241118,-0.0840809,-0.0326384,0.2037842,0.21
 44126,0.169652,-0.0064811,0.2908542,0.2221546,-0.0096146,-0.0085062,-0
 .0122807,-0.0027643\Polar=33.7942278,10.2784215,22.4170659,-0.7241536,
 0.2110117,12.8803926\PG=C01 [X(H3O2)]\NImag=1\\0.25713530,-0.11245938,
 0.20113650,-0.00567697,-0.01521072,0.03721695,-0.23357453,0.11714330,-
 0.03347803,0.36437546,0.08728830,-0.09579622,0.02549977,-0.11271191,0.
 07145811,0.01014121,0.00368218,-0.04740717,-0.10975413,0.00416451,0.54
 099537,0.07513252,0.03764898,0.00292423,-0.07362620,0.01552861,0.00011
 182,-0.02479118,0.08980304,-0.03151405,0.00998022,-0.03428125,0.044898
 47,-0.00360578,-0.09695449,-0.05254026,0.00461631,0.00961481,-0.009164
 97,-0.00449046,-0.00319700,-0.00054409,-0.00009245,-0.00438319,0.01746
 515,-0.03773731,0.01080175,0.03550218,-0.06981291,0.01838998,0.0990828
 1,-0.00173340,0.00252341,0.00268303,0.10933647,0.02069795,-0.00619876,
 -0.02044945,0.01319245,-0.01114107,-0.00504941,-0.00288267,-0.00168658
 ,0.00144307,-0.03139785,0.01810636,-0.00650133,0.00440267,0.01655356,0
 .14827248,-0.02461831,-0.49290339,-0.00465919,-0.00386664,-0.00000321,
 -0.13795084,0.02266564,0.47609995,-0.06095599,-0.05313464,0.00072858,0
 .01263817,-0.00849498,0.00041830,0.02501826,0.03890929,-0.00271643,-0.
 00005286,0.00039012,0.00083888,0.02335242,-0.08532991,-0.06762747,0.00
 018018,0.01665742,-0.00941928,0.00080850,0.04665958,0.04084244,-0.0034
 7769,-0.00031729,0.00092005,0.00141665,0.02233020,0.03528426,-0.002579
 23,-0.00248894,0.00280163,-0.00054986,-0.00184896,-0.00014074,0.001715
 59,0.00187539,-0.00775288,0.00068283,0.00139016,0.00025309,0.00073067,
 0.00107236,0.00483889\\-0.00000561,0.00001364,0.00002767,0.00001275,-0
 .00001575,-0.00002239,0.00000281,-0.00000848,0.00002408,-0.00001471,0.
 00003179,-0.00004124,0.00000476,-0.00002120,0.00001188\\\@


 THEREFORE SHALL EVIL COME UPON THEE...
 THOU SHALT NOT KNOW FROM WHENCE IT RISETH...
 AND MISCHIEF SHALL FALL UPON THEE...
 THOU SHALT NOT BE ABLE TO PUT IT OFF...
 AND DESOLATION SHALL COME UPON THEE SUDDENLY...
 WHICH THOU SHALT NOT KNOW...

                                         ISAIAH 47.11
 Job cpu time:  0 days  0 hours 17 minutes  4.8 seconds.
 File lengths (MBytes):  RWF=     84 Int=      0 D2E=      0 Chk=      2 Scr=      1
 Normal termination of Gaussian 09 at Fri Aug 21 09:05:37 2015.
