 Entering Gaussian System, Link 0=/shared/apps/gaussian/G09_LINUX_LINDA/g09/g09
 Input=/gss_gpfs_scratch/harms.n/QMscratch/[H]+[O]O_[H][H]+[O][O]Est.gjf
 Output=/gss_gpfs_scratch/harms.n/QMscratch/[H]+[O]O_[H][H]+[O][O]Est.log
 Initial command:
 /shared/apps/gaussian/G09_LINUX_LINDA/g09/l1.exe /gss_gpfs_scratch/harms.n/comparerTST/Gau-47770.inp -scrdir=/gss_gpfs_scratch/harms.n/comparerTST/
 Entering Link 1 = /shared/apps/gaussian/G09_LINUX_LINDA/g09/l1.exe PID=     47771.
  
 Copyright (c) 1988,1990,1992,1993,1995,1998,2003,2009,2010,
            Gaussian, Inc.  All Rights Reserved.
  
 This is part of the Gaussian(R) 09 program.  It is based on
 the Gaussian(R) 03 system (copyright 2003, Gaussian, Inc.),
 the Gaussian(R) 98 system (copyright 1998, Gaussian, Inc.),
 the Gaussian(R) 94 system (copyright 1995, Gaussian, Inc.),
 the Gaussian 92(TM) system (copyright 1992, Gaussian, Inc.),
 the Gaussian 90(TM) system (copyright 1990, Gaussian, Inc.),
 the Gaussian 88(TM) system (copyright 1988, Gaussian, Inc.),
 the Gaussian 86(TM) system (copyright 1986, Carnegie Mellon
 University), and the Gaussian 82(TM) system (copyright 1983,
 Carnegie Mellon University). Gaussian is a federally registered
 trademark of Gaussian, Inc.
  
 This software contains proprietary and confidential information,
 including trade secrets, belonging to Gaussian, Inc.
  
 This software is provided under written license and may be
 used, copied, transmitted, or stored only in accord with that
 written license.
  
 The following legend is applicable only to US Government
 contracts under FAR:
  
                    RESTRICTED RIGHTS LEGEND
  
 Use, reproduction and disclosure by the US Government is
 subject to restrictions as set forth in subparagraphs (a)
 and (c) of the Commercial Computer Software - Restricted
 Rights clause in FAR 52.227-19.
  
 Gaussian, Inc.
 340 Quinnipiac St., Bldg. 40, Wallingford CT 06492
  
  
 ---------------------------------------------------------------
 Warning -- This program may not be used in any manner that
 competes with the business of Gaussian, Inc. or will provide
 assistance to any competitor of Gaussian, Inc.  The licensee
 of this program is prohibited from giving any competitor of
 Gaussian, Inc. access to this program.  By using this program,
 the user acknowledges that Gaussian, Inc. is engaged in the
 business of creating and licensing software in the field of
 computational chemistry and represents and warrants to the
 licensee that it is not a competitor of Gaussian, Inc. and that
 it will not use this program in any manner prohibited above.
 ---------------------------------------------------------------
  

 Cite this work as:
 Gaussian 09, Revision B.01,
 M. J. Frisch, G. W. Trucks, H. B. Schlegel, G. E. Scuseria, 
 M. A. Robb, J. R. Cheeseman, G. Scalmani, V. Barone, B. Mennucci, 
 G. A. Petersson, H. Nakatsuji, M. Caricato, X. Li, H. P. Hratchian, 
 A. F. Izmaylov, J. Bloino, G. Zheng, J. L. Sonnenberg, M. Hada, 
 M. Ehara, K. Toyota, R. Fukuda, J. Hasegawa, M. Ishida, T. Nakajima, 
 Y. Honda, O. Kitao, H. Nakai, T. Vreven, J. A. Montgomery, Jr., 
 J. E. Peralta, F. Ogliaro, M. Bearpark, J. J. Heyd, E. Brothers, 
 K. N. Kudin, V. N. Staroverov, T. Keith, R. Kobayashi, J. Normand, 
 K. Raghavachari, A. Rendell, J. C. Burant, S. S. Iyengar, J. Tomasi, 
 M. Cossi, N. Rega, J. M. Millam, M. Klene, J. E. Knox, J. B. Cross, 
 V. Bakken, C. Adamo, J. Jaramillo, R. Gomperts, R. E. Stratmann, 
 O. Yazyev, A. J. Austin, R. Cammi, C. Pomelli, J. W. Ochterski, 
 R. L. Martin, K. Morokuma, V. G. Zakrzewski, G. A. Voth, 
 P. Salvador, J. J. Dannenberg, S. Dapprich, A. D. Daniels, 
 O. Farkas, J. B. Foresman, J. V. Ortiz, J. Cioslowski, 
 and D. J. Fox, Gaussian, Inc., Wallingford CT, 2010.
 
 ******************************************
 Gaussian 09:  EM64L-G09RevB.01 12-Aug-2010
                30-Jul-2017 
 ******************************************
 %nprocshared=20
 Will use up to   20 processors via shared memory.
 %mem=5GB
 ----------------------------------------------------------
 # m062x/6-311+g(2df,2p) Opt=(ModRedun,Loose) Int(Grid=SG1)
 ----------------------------------------------------------
 1/7=-1,14=-1,18=120,19=15,26=2,38=1/1,3;
 2/9=110,12=2,17=6,18=5,40=1/2;
 3/5=4,6=6,7=214,11=2,16=1,25=1,30=1,71=1,74=-55,75=1/1,2,3;
 4//1;
 5/5=2,38=5/2;
 6/7=2,8=2,9=2,10=2,28=1/1;
 7//1,2,3,16;
 1/7=-1,14=-1,18=20,19=15/3(2);
 2/9=110/2;
 99//99;
 2/9=110/2;
 3/5=4,6=6,7=214,11=2,16=1,25=1,30=1,71=1,74=-55,75=1/1,2,3;
 4/5=5,16=3/1;
 5/5=2,38=5/2;
 7//1,2,3,16;
 1/7=-1,14=-1,18=20,19=15/3(-5);
 2/9=110/2;
 6/7=2,8=2,9=2,10=2,19=2,28=1/1;
 99/9=1/99;
 ----------------------
 [H]+[O]O_[H][H]+[O][O]
 ----------------------
 Symbolic Z-matrix:
 Charge =  0 Multiplicity = 3
 O                    -0.4943    0.5745   -0.0351 
 O                    -1.4056   -0.3849   -0.0212 
 H                     0.478    -0.0134    0.1346 
 H                     1.4219   -0.1762   -0.0784 
 
 The following ModRedundant input section has been read:
 B       1       3 F                                                           
 B       1       4 F                                                           
 B       3       4 F                                                           

 GradGradGradGradGradGradGradGradGradGradGradGradGradGradGradGradGradGrad
 Berny optimization.
 Initialization pass.
                           ----------------------------
                           !    Initial Parameters    !
                           ! (Angstroms and Degrees)  !
 --------------------------                            --------------------------
 ! Name  Definition              Value          Derivative Info.                !
 --------------------------------------------------------------------------------
 ! R1    R(1,2)                  1.3233         estimate D2E/DX2                !
 ! R2    R(1,3)                  1.1488         Frozen                          !
 ! R3    R(1,4)                  2.0585         Frozen                          !
 ! R4    R(3,4)                  0.9812         Frozen                          !
 ! A1    A(2,1,3)              102.1385         estimate D2E/DX2                !
 ! A2    A(1,3,4)              150.1099         estimate D2E/DX2                !
 ! D1    D(2,1,3,4)            138.0153         estimate D2E/DX2                !
 --------------------------------------------------------------------------------
 Trust Radius=3.00D-01 FncErr=1.00D-05 GrdErr=1.00D-04
 Number of steps in this run=     20 maximum allowed number of steps=    100.
 GradGradGradGradGradGradGradGradGradGradGradGradGradGradGradGradGradGrad

                          Input orientation:                          
 ---------------------------------------------------------------------
 Center     Atomic      Atomic             Coordinates (Angstroms)
 Number     Number       Type             X           Y           Z
 ---------------------------------------------------------------------
      1          8           0       -0.494300    0.574500   -0.035100
      2          8           0       -1.405600   -0.384900   -0.021200
      3          1           0        0.478000   -0.013400    0.134600
      4          1           0        1.421900   -0.176200   -0.078400
 ---------------------------------------------------------------------
                    Distance matrix (angstroms):
                    1          2          3          4
     1  O    0.000000
     2  O    1.323295   0.000000
     3  H    1.148822   1.926197   0.000000
     4  H    2.058458   2.835769   0.981234   0.000000
 Stoichiometry    H2O2(3)
 Framework group  C1[X(H2O2)]
 Deg. of freedom     6
 Full point group                 C1      NOp   1
 Largest Abelian subgroup         C1      NOp   1
 Largest concise Abelian subgroup C1      NOp   1
                         Standard orientation:                         
 ---------------------------------------------------------------------
 Center     Atomic      Atomic             Coordinates (Angstroms)
 Number     Number       Type             X           Y           Z
 ---------------------------------------------------------------------
      1          8           0       -0.403973   -0.384098   -0.004555
      2          8           0        0.784915    0.196980   -0.002849
      3          1           0       -1.110097    0.510076    0.142534
      4          1           0       -1.937436    0.986866   -0.083304
 ---------------------------------------------------------------------
 Rotational constants (GHZ):    136.8612241     28.4826342     23.6374771
 Standard basis: 6-311+G(2df,2p) (5D, 7F)
 There are    86 symmetry adapted basis functions of A   symmetry.
 Integral buffers will be    131072 words long.
 Raffenetti 2 integral format.
 Two-electron integral symmetry is turned on.
    86 basis functions,   126 primitive gaussians,    96 cartesian basis functions
    10 alpha electrons        8 beta electrons
       nuclear repulsion energy        35.5647716971 Hartrees.
 NAtoms=    4 NActive=    4 NUniq=    4 SFac= 1.00D+00 NAtFMM=   50 NAOKFM=F Big=F
 One-electron integrals computed using PRISM.
 NBasis=    86 RedAO= T  NBF=    86
 NBsUse=    86 1.00D-06 NBFU=    86
 Harris functional with IExCor= 1009 diagonalized for initial guess.
 ExpMin= 8.45D-02 ExpMax= 8.59D+03 ExpMxC= 1.30D+03 IAcc=2 IRadAn=         1 AccDes= 0.00D+00
 HarFok:  IExCor= 1009 AccDes= 0.00D+00 IRadAn=         1 IDoV= 1
 ScaDFX=  1.000000  1.000000  1.000000  1.000000
 FoFCou: FMM=F IPFlag=           0 FMFlag=      100000 FMFlg1=           0
         NFxFlg=           0 DoJE=T BraDBF=F KetDBF=T FulRan=T
         Omega=  0.000000  0.000000  1.000000  0.000000  0.000000 ICntrl=     500 IOpCl=  0
         NMat0=    1 NMatS0=    1 NMatT0=    0 NMatD0=    1 NMtDS0=    0 NMtDT0=    0
         I1Cent=           4 NGrid=           0.
 Petite list used in FoFCou.
 Initial guess orbital symmetries:
 Alpha Orbitals:
       Occupied  (A) (A) (A) (A) (A) (A) (A) (A) (A) (A)
       Virtual   (A) (A) (A) (A) (A) (A) (A) (A) (A) (A) (A) (A)
                 (A) (A) (A) (A) (A) (A) (A) (A) (A) (A) (A) (A)
                 (A) (A) (A) (A) (A) (A) (A) (A) (A) (A) (A) (A)
                 (A) (A) (A) (A) (A) (A) (A) (A) (A) (A) (A) (A)
                 (A) (A) (A) (A) (A) (A) (A) (A) (A) (A) (A) (A)
                 (A) (A) (A) (A) (A) (A) (A) (A) (A) (A) (A) (A)
                 (A) (A) (A) (A)
 Beta  Orbitals:
       Occupied  (A) (A) (A) (A) (A) (A) (A) (A)
       Virtual   (A) (A) (A) (A) (A) (A) (A) (A) (A) (A) (A) (A)
                 (A) (A) (A) (A) (A) (A) (A) (A) (A) (A) (A) (A)
                 (A) (A) (A) (A) (A) (A) (A) (A) (A) (A) (A) (A)
                 (A) (A) (A) (A) (A) (A) (A) (A) (A) (A) (A) (A)
                 (A) (A) (A) (A) (A) (A) (A) (A) (A) (A) (A) (A)
                 (A) (A) (A) (A) (A) (A) (A) (A) (A) (A) (A) (A)
                 (A) (A) (A) (A) (A) (A)
 The electronic state of the initial guess is 3-A.
 Initial guess <Sx>= 0.0000 <Sy>= 0.0000 <Sz>= 1.0000 <S**2>= 2.0000 S= 1.0000
 Requested convergence on RMS density matrix=1.00D-08 within 128 cycles.
 Requested convergence on MAX density matrix=1.00D-06.
 Requested convergence on             energy=1.00D-06.
 No special actions if energy rises.
 Keep R1 and R2 ints in memory in canonical form, NReq=23684999.
 SCF Done:  E(UM062X) =  -151.393669960     A.U. after   16 cycles
             Convg  =    0.7099D-08             -V/T =  2.0033
 <Sx>= 0.0000 <Sy>= 0.0000 <Sz>= 1.0000 <S**2>= 2.0191 S= 1.0064
 <L.S>= 0.000000000000E+00
 Annihilation of the first spin contaminant:
 S**2 before annihilation     2.0191,   after     2.0002

 **********************************************************************

            Population analysis using the SCF density.

 **********************************************************************

 Orbital symmetries:
 Alpha Orbitals:
       Occupied  (A) (A) (A) (A) (A) (A) (A) (A) (A) (A)
       Virtual   (A) (A) (A) (A) (A) (A) (A) (A) (A) (A) (A) (A)
                 (A) (A) (A) (A) (A) (A) (A) (A) (A) (A) (A) (A)
                 (A) (A) (A) (A) (A) (A) (A) (A) (A) (A) (A) (A)
                 (A) (A) (A) (A) (A) (A) (A) (A) (A) (A) (A) (A)
                 (A) (A) (A) (A) (A) (A) (A) (A) (A) (A) (A) (A)
                 (A) (A) (A) (A) (A) (A) (A) (A) (A) (A) (A) (A)
                 (A) (A) (A) (A)
 Beta  Orbitals:
       Occupied  (A) (A) (A) (A) (A) (A) (A) (A)
       Virtual   (A) (A) (A) (A) (A) (A) (A) (A) (A) (A) (A) (A)
                 (A) (A) (A) (A) (A) (A) (A) (A) (A) (A) (A) (A)
                 (A) (A) (A) (A) (A) (A) (A) (A) (A) (A) (A) (A)
                 (A) (A) (A) (A) (A) (A) (A) (A) (A) (A) (A) (A)
                 (A) (A) (A) (A) (A) (A) (A) (A) (A) (A) (A) (A)
                 (A) (A) (A) (A) (A) (A) (A) (A) (A) (A) (A) (A)
                 (A) (A) (A) (A) (A) (A)
 The electronic state is 3-A.
 Alpha  occ. eigenvalues --  -19.79766 -19.76291  -1.36891  -1.01231  -0.69722
 Alpha  occ. eigenvalues --   -0.63045  -0.61250  -0.46671  -0.42775  -0.37408
 Alpha virt. eigenvalues --    0.08148   0.11566   0.13440   0.15408   0.17556
 Alpha virt. eigenvalues --    0.20316   0.21085   0.21871   0.23340   0.32598
 Alpha virt. eigenvalues --    0.38674   0.49824   0.56530   0.64977   0.83350
 Alpha virt. eigenvalues --    0.86823   0.92493   0.95536   0.99990   1.03985
 Alpha virt. eigenvalues --    1.06139   1.09957   1.14959   1.29399   1.30168
 Alpha virt. eigenvalues --    1.40454   1.47513   1.49720   1.57561   1.74582
 Alpha virt. eigenvalues --    1.99034   2.03575   2.17633   2.23221   2.24570
 Alpha virt. eigenvalues --    2.41316   2.53459   2.61027   3.45156   3.55647
 Alpha virt. eigenvalues --    3.61140   3.81224   3.83965   4.40505   4.42316
 Alpha virt. eigenvalues --    4.52061   4.61169   4.63675   4.73566   4.93653
 Alpha virt. eigenvalues --    4.95701   4.96495   5.00779   5.02028   5.07943
 Alpha virt. eigenvalues --    5.09983   5.13749   5.19816   5.42422   5.49219
 Alpha virt. eigenvalues --    6.10450   6.24807   6.38811   6.60814   6.66506
 Alpha virt. eigenvalues --    6.74125   6.79999   6.87516   6.91695   7.19768
 Alpha virt. eigenvalues --    7.20617   7.38728   7.74651   7.76835  49.85890
 Alpha virt. eigenvalues --   49.88736
  Beta  occ. eigenvalues --  -19.77944 -19.74353  -1.30890  -0.93167  -0.62780
  Beta  occ. eigenvalues --   -0.56256  -0.50749  -0.37733
  Beta virt. eigenvalues --   -0.12784  -0.09576   0.08343   0.11185   0.12713
  Beta virt. eigenvalues --    0.15170   0.16942   0.20067   0.21556   0.22437
  Beta virt. eigenvalues --    0.24094   0.31364   0.37830   0.49364   0.56848
  Beta virt. eigenvalues --    0.64393   0.82829   0.86366   0.93597   0.96340
  Beta virt. eigenvalues --    1.03763   1.04698   1.08928   1.10824   1.13663
  Beta virt. eigenvalues --    1.31668   1.32178   1.41086   1.49128   1.51087
  Beta virt. eigenvalues --    1.60852   1.75897   1.98614   2.04959   2.19493
  Beta virt. eigenvalues --    2.24029   2.29489   2.44961   2.53574   2.58321
  Beta virt. eigenvalues --    3.43016   3.54298   3.59974   3.79276   3.82353
  Beta virt. eigenvalues --    4.41811   4.44454   4.53665   4.62539   4.64045
  Beta virt. eigenvalues --    4.74485   4.98433   4.99267   4.99590   5.04837
  Beta virt. eigenvalues --    5.05913   5.09531   5.11626   5.15798   5.21826
  Beta virt. eigenvalues --    5.43950   5.50113   6.10838   6.27593   6.39383
  Beta virt. eigenvalues --    6.72151   6.76843   6.79588   6.87349   6.92040
  Beta virt. eigenvalues --    6.95783   7.24038   7.25262   7.40890   7.74397
  Beta virt. eigenvalues --    7.79940  49.85251  49.87477
          Condensed to atoms (all electrons):
              1          2          3          4
     1  O    7.809415   0.235158   0.035517  -0.121102
     2  O    0.235158   7.885191  -0.018995   0.001875
     3  H    0.035517  -0.018995   0.552939   0.345339
     4  H   -0.121102   0.001875   0.345339   0.796870
 Mulliken atomic charges:
              1
     1  O    0.041012
     2  O   -0.103229
     3  H    0.085199
     4  H   -0.022982
 Sum of Mulliken atomic charges =   0.00000
 Mulliken charges with hydrogens summed into heavy atoms:
              1
     1  O    0.103229
     2  O   -0.103229
 Sum of Mulliken charges with hydrogens summed into heavy atoms =   0.00000
          Atomic-Atomic Spin Densities.
              1          2          3          4
     1  O    1.010051  -0.245729  -0.017522  -0.096730
     2  O   -0.245729   1.067163   0.021736   0.027373
     3  H   -0.017522   0.021736  -0.095180   0.082657
     4  H   -0.096730   0.027373   0.082657   0.474397
 Mulliken atomic spin densities:
              1
     1  O    0.650069
     2  O    0.870543
     3  H   -0.008309
     4  H    0.487696
 Sum of Mulliken atomic spin densities =   2.00000
 Electronic spatial extent (au):  <R**2>=             77.7694
 Charge=              0.0000 electrons
 Dipole moment (field-independent basis, Debye):
    X=             -0.8511    Y=              0.2919    Z=              0.0993  Tot=              0.9053
 Quadrupole moment (field-independent basis, Debye-Ang):
   XX=            -12.2939   YY=            -12.8384   ZZ=            -12.3575
   XY=             -0.3392   XZ=             -0.0120   YZ=             -0.0139
 Traceless Quadrupole moment (field-independent basis, Debye-Ang):
   XX=              0.2027   YY=             -0.3418   ZZ=              0.1391
   XY=             -0.3392   XZ=             -0.0120   YZ=             -0.0139
 Octapole moment (field-independent basis, Debye-Ang**2):
  XXX=              2.4348  YYY=             -2.3790  ZZZ=              0.0761  XYY=              1.1511
  XXY=             -0.2217  XXZ=             -0.1504  XZZ=              1.4161  YZZ=             -0.6248
  YYZ=             -0.0632  XYZ=              0.0903
 Hexadecapole moment (field-independent basis, Debye-Ang**3):
 XXXX=            -65.8506 YYYY=            -25.2861 ZZZZ=             -9.9944 XXXY=              3.7778
 XXXZ=              0.5354 YYYX=              3.5718 YYYZ=             -0.0306 ZZZX=             -0.1098
 ZZZY=              0.0387 XXYY=            -15.2992 XXZZ=            -13.1279 YYZZ=             -5.8921
 XXYZ=             -0.3333 YYXZ=              0.1160 ZZXY=              1.2885
 N-N= 3.556477169710D+01 E-N=-6.312825564369D+02  KE= 2.234764684672D+02
                          Isotropic Fermi Contact Couplings
        Atom                 a.u.       MegaHertz       Gauss      10(-4) cm-1
     1  O(17)              0.15244     -46.20327     -16.48647     -15.41175
     2  O(17)              0.12774     -38.71792     -13.81552     -12.91491
     3  H(1)              -0.04374     -97.74744     -34.87872     -32.60504
     4  H(1)               0.18077     404.00088     144.15756     134.76019
 --------------------------------------------------------
       Center         ----  Spin Dipole Couplings  ----
                      3XX-RR        3YY-RR        3ZZ-RR
 --------------------------------------------------------
     1   Atom       -1.206776      0.396031      0.810745
     2   Atom       -1.541035     -1.072914      2.613949
     3   Atom        0.094968      0.047243     -0.142210
     4   Atom        0.013043     -0.003744     -0.009299
 --------------------------------------------------------
                        XY            XZ            YZ
 --------------------------------------------------------
     1   Atom       -1.356520      0.054716     -0.098378
     2   Atom       -0.722575      0.068885     -0.190128
     3   Atom       -0.213164      0.002555      0.007960
     4   Atom       -0.009725      0.001959      0.000070
 --------------------------------------------------------


 ---------------------------------------------------------------------------------
              Anisotropic Spin Dipole Couplings in Principal Axis System
 ---------------------------------------------------------------------------------

       Atom             a.u.   MegaHertz   Gauss  10(-4) cm-1        Axes

              Baa    -1.9809   143.339    51.147    47.813  0.8685  0.4957  0.0004
     1 O(17)  Bbb     0.7784   -56.325   -20.098   -18.788 -0.1372  0.2396  0.9611
              Bcc     1.2025   -87.014   -31.049   -29.025 -0.4763  0.8348 -0.2761
 
              Baa    -2.0672   149.580    53.374    49.895  0.8078  0.5894  0.0120
     2 O(17)  Bbb    -0.5593    40.472    14.441    13.500 -0.5889  0.8059  0.0611
              Bcc     2.6265  -190.053   -67.815   -63.395  0.0263 -0.0564  0.9981
 
              Baa    -0.1505   -80.284   -28.647   -26.780 -0.4848 -0.5501  0.6800
     3 H(1)   Bbb    -0.1352   -72.113   -25.732   -24.054  0.4577  0.5029  0.7332
              Bcc     0.2856   152.397    54.379    50.834  0.7453 -0.6667 -0.0080
 
              Baa    -0.0099    -5.268    -1.880    -1.757 -0.2446 -0.3982  0.8841
     4 H(1)   Bbb    -0.0077    -4.128    -1.473    -1.377  0.3396  0.8189  0.4627
              Bcc     0.0176     9.396     3.353     3.134  0.9082 -0.4134  0.0650
 

 ---------------------------------------------------------------------------------

 Calling FoFJK, ICntrl=      2127 FMM=F ISym2X=0 I1Cent= 0 IOpClX= 1 NMat=1 NMatS=1 NMatT=0.
 ***** Axes restored to original set *****
 -------------------------------------------------------------------
 Center     Atomic                   Forces (Hartrees/Bohr)
 Number     Number              X              Y              Z
 -------------------------------------------------------------------
      1        8          -0.080506889   -0.052950563    0.001776823
      2        8           0.045542272    0.058850325   -0.001904485
      3        1           0.044618443   -0.001893388   -0.007183833
      4        1          -0.009653827   -0.004006374    0.007311495
 -------------------------------------------------------------------
 Cartesian Forces:  Max     0.080506889 RMS     0.037680751

 GradGradGradGradGradGradGradGradGradGradGradGradGradGradGradGradGradGrad
 Berny optimization.
 Internal  Forces:  Max     0.073981839 RMS     0.031422663
 Search for a local minimum.
 Step number   1 out of a maximum of   20
 All quantities printed in internal units (Hartrees-Bohrs-Radians)
 Mixed Optimization -- RFO/linear search
 Second derivative matrix not updated -- first step.
 The second derivative matrix:
                          R1        R2        R3        R4        A1
           R1           0.61118
           R2           0.00000   0.28812
           R3           0.00000   0.00000   0.03916
           R4           0.00000   0.00000   0.00000   0.18770
           A1           0.00000   0.00000   0.00000   0.00000   0.16000
           A2           0.00000   0.00000   0.00000   0.00000   0.00000
           D1           0.00000   0.00000   0.00000   0.00000   0.00000
                          A2        D1
           A2           0.16000
           D1           0.00000   0.00230
 ITU=  0
     Eigenvalues ---    0.00230   0.16000   0.611181000.000001000.00000
     Eigenvalues --- 1000.000001000.00000
 RFO step:  Lambda=-1.08503408D-02 EMin= 2.30000000D-03
 Linear search not attempted -- first point.
 Iteration  1 RMS(Cart)=  0.06368049 RMS(Int)=  0.00303624
 Iteration  2 RMS(Cart)=  0.00357038 RMS(Int)=  0.00000334
 Iteration  3 RMS(Cart)=  0.00000302 RMS(Int)=  0.00000000
 Iteration  4 RMS(Cart)=  0.00000000 RMS(Int)=  0.00000000
 Iteration  1 RMS(Cart)=  0.00000000 RMS(Int)=  0.00000000
 Variable       Old X    -DE/DX   Delta X   Delta X   Delta X     New X
                                 (Linear)    (Quad)   (Total)
    R1        2.50066  -0.07398   0.00000  -0.11894  -0.11894   2.38173
    R2        2.17096   0.02356   0.00000   0.00000   0.00000   2.17096
    R3        3.88992   0.00925   0.00000   0.00000   0.00000   3.88992
    R4        1.85426  -0.01909   0.00000   0.00000   0.00000   1.85426
    A1        1.78265   0.01872   0.00000   0.10957   0.10957   1.89222
    A2        2.61991   0.00911   0.00000   0.00000   0.00000   2.61991
    D1        2.40882  -0.00003   0.00000  -0.00265  -0.00265   2.40617
         Item               Value     Threshold  Converged?
 Maximum Force            0.073982     0.002500     NO 
 RMS     Force            0.038157     0.001667     NO 
 Maximum Displacement     0.111297     0.010000     NO 
 RMS     Displacement     0.061921     0.006667     NO 
 Predicted change in Energy=-5.567086D-03
 GradGradGradGradGradGradGradGradGradGradGradGradGradGradGradGradGradGrad

                          Input orientation:                          
 ---------------------------------------------------------------------
 Center     Atomic      Atomic             Coordinates (Angstroms)
 Number     Number       Type             X           Y           Z
 ---------------------------------------------------------------------
      1          8           0       -0.505467    0.515604   -0.038640
      2          8           0       -1.429638   -0.341177   -0.020384
      3          1           0        0.493254   -0.024019    0.137868
      4          1           0        1.441852   -0.150408   -0.078945
 ---------------------------------------------------------------------
                    Distance matrix (angstroms):
                    1          2          3          4
     1  O    0.000000
     2  O    1.260356   0.000000
     3  H    1.148822   1.955286   0.000000
     4  H    2.058458   2.878415   0.981234   0.000000
 Stoichiometry    H2O2(3)
 Framework group  C1[X(H2O2)]
 Deg. of freedom     6
 Full point group                 C1      NOp   1
 Largest Abelian subgroup         C1      NOp   1
 Largest concise Abelian subgroup C1      NOp   1
                         Standard orientation:                         
 ---------------------------------------------------------------------
 Center     Atomic      Atomic             Coordinates (Angstroms)
 Number     Number       Type             X           Y           Z
 ---------------------------------------------------------------------
      1          8           0       -0.366173   -0.357338   -0.004159
      2          8           0        0.766544    0.195336   -0.003137
      3          1           0       -1.165939    0.453862    0.144573
      4          1           0       -2.037027    0.842147   -0.086212
 ---------------------------------------------------------------------
 Rotational constants (GHZ):    160.2839970     29.3317753     24.8648943
 Standard basis: 6-311+G(2df,2p) (5D, 7F)
 There are    86 symmetry adapted basis functions of A   symmetry.
 Integral buffers will be    131072 words long.
 Raffenetti 2 integral format.
 Two-electron integral symmetry is turned on.
    86 basis functions,   126 primitive gaussians,    96 cartesian basis functions
    10 alpha electrons        8 beta electrons
       nuclear repulsion energy        36.7880037713 Hartrees.
 NAtoms=    4 NActive=    4 NUniq=    4 SFac= 1.00D+00 NAtFMM=   50 NAOKFM=F Big=F
 One-electron integrals computed using PRISM.
 NBasis=    86 RedAO= T  NBF=    86
 NBsUse=    86 1.00D-06 NBFU=    86
 Initial guess read from the read-write file.
 B after Tr=     0.000000    0.000000    0.000000
         Rot=    1.000000    0.000000    0.000000    0.000000 Ang=   0.00 deg.
 Initial guess orbital symmetries:
 Alpha Orbitals:
       Occupied  (A) (A) (A) (A) (A) (A) (A) (A) (A) (A)
       Virtual   (A) (A) (A) (A) (A) (A) (A) (A) (A) (A) (A) (A)
                 (A) (A) (A) (A) (A) (A) (A) (A) (A) (A) (A) (A)
                 (A) (A) (A) (A) (A) (A) (A) (A) (A) (A) (A) (A)
                 (A) (A) (A) (A) (A) (A) (A) (A) (A) (A) (A) (A)
                 (A) (A) (A) (A) (A) (A) (A) (A) (A) (A) (A) (A)
                 (A) (A) (A) (A) (A) (A) (A) (A) (A) (A) (A) (A)
                 (A) (A) (A) (A)
 Beta  Orbitals:
       Occupied  (A) (A) (A) (A) (A) (A) (A) (A)
       Virtual   (A) (A) (A) (A) (A) (A) (A) (A) (A) (A) (A) (A)
                 (A) (A) (A) (A) (A) (A) (A) (A) (A) (A) (A) (A)
                 (A) (A) (A) (A) (A) (A) (A) (A) (A) (A) (A) (A)
                 (A) (A) (A) (A) (A) (A) (A) (A) (A) (A) (A) (A)
                 (A) (A) (A) (A) (A) (A) (A) (A) (A) (A) (A) (A)
                 (A) (A) (A) (A) (A) (A) (A) (A) (A) (A) (A) (A)
                 (A) (A) (A) (A) (A) (A)
 Initial guess <Sx>= 0.0000 <Sy>= 0.0000 <Sz>= 1.0000 <S**2>= 2.0191 S= 1.0064
 Harris functional with IExCor= 1009 diagonalized for initial guess.
 ExpMin= 8.45D-02 ExpMax= 8.59D+03 ExpMxC= 1.30D+03 IAcc=2 IRadAn=         1 AccDes= 0.00D+00
 HarFok:  IExCor= 1009 AccDes= 0.00D+00 IRadAn=         1 IDoV= 1
 ScaDFX=  1.000000  1.000000  1.000000  1.000000
 FoFCou: FMM=F IPFlag=           0 FMFlag=      100000 FMFlg1=           0
         NFxFlg=           0 DoJE=T BraDBF=F KetDBF=T FulRan=T
         Omega=  0.000000  0.000000  1.000000  0.000000  0.000000 ICntrl=     500 IOpCl=  0
         NMat0=    1 NMatS0=    1 NMatT0=    0 NMatD0=    1 NMtDS0=    0 NMtDT0=    0
         I1Cent=           4 NGrid=           0.
 Petite list used in FoFCou.
 Requested convergence on RMS density matrix=1.00D-08 within 128 cycles.
 Requested convergence on MAX density matrix=1.00D-06.
 Requested convergence on             energy=1.00D-06.
 No special actions if energy rises.
 Keep R1 and R2 ints in memory in canonical form, NReq=23684999.
 SCF Done:  E(UM062X) =  -151.401653448     A.U. after   15 cycles
             Convg  =    0.2939D-08             -V/T =  2.0025
 <Sx>= 0.0000 <Sy>= 0.0000 <Sz>= 1.0000 <S**2>= 2.0186 S= 1.0062
 <L.S>= 0.000000000000E+00
 Annihilation of the first spin contaminant:
 S**2 before annihilation     2.0186,   after     2.0002
 Calling FoFJK, ICntrl=      2127 FMM=F ISym2X=0 I1Cent= 0 IOpClX= 1 NMat=1 NMatS=1 NMatT=0.
 ***** Axes restored to original set *****
 -------------------------------------------------------------------
 Center     Atomic                   Forces (Hartrees/Bohr)
 Number     Number              X              Y              Z
 -------------------------------------------------------------------
      1        8          -0.071634382   -0.008247046   -0.001194022
      2        8           0.023143049    0.025077338   -0.001029097
      3        1           0.063017088   -0.011944735   -0.007368486
      4        1          -0.014525755   -0.004885557    0.009591606
 -------------------------------------------------------------------
 Cartesian Forces:  Max     0.071634382 RMS     0.030085221

 GradGradGradGradGradGradGradGradGradGradGradGradGradGradGradGradGradGrad
 Berny optimization.
 Using GEDIIS/GDIIS optimizer.
 Internal  Forces:  Max     0.037093636 RMS     0.022894308
 Search for a local minimum.
 Step number   2 out of a maximum of   20
 All quantities printed in internal units (Hartrees-Bohrs-Radians)
 Mixed Optimization -- RFO/linear search
 Update second derivatives using D2CorX and points    1    2
 DE= -7.98D-03 DEPred=-5.57D-03 R= 1.43D+00
 SS=  1.41D+00  RLast= 1.62D-01 DXNew= 5.0454D-01 4.8521D-01
 Trust test= 1.43D+00 RLast= 1.62D-01 DXMaxT set to 4.85D-01
 The second derivative matrix:
                          R1        R2        R3        R4        A1
           R1           0.37224
           R2           0.08831   0.31799
           R3           0.02854   0.00965   0.04228
           R4          -0.06215  -0.02102  -0.00679   0.20249
           A1           0.03883  -0.02765  -0.00894   0.01946   0.15652
           A2           0.00476   0.00161   0.00052  -0.00113  -0.00149
           D1          -0.00164  -0.00054  -0.00017   0.00038   0.00051
                          A2        D1
           A2           0.16009
           D1          -0.00003   0.00231
 ITU=  1  0
 Use linear search instead of GDIIS.
     Eigenvalues ---    0.00230   0.14975   0.379021000.000001000.00000
     Eigenvalues --- 1000.000001000.00000
 RFO step:  Lambda=-3.05752546D-04 EMin= 2.29940384D-03
 Quartic linear search produced a step of  0.57925.
 Iteration  1 RMS(Cart)=  0.02851508 RMS(Int)=  0.00161597
 Iteration  2 RMS(Cart)=  0.00146564 RMS(Int)=  0.00000207
 Iteration  3 RMS(Cart)=  0.00000118 RMS(Int)=  0.00000005
 Iteration  4 RMS(Cart)=  0.00000000 RMS(Int)=  0.00000005
 Iteration  1 RMS(Cart)=  0.00000001 RMS(Int)=  0.00000004
 Variable       Old X    -DE/DX   Delta X   Delta X   Delta X     New X
                                 (Linear)    (Quad)   (Total)
    R1        2.38173  -0.03397  -0.06889  -0.01160  -0.08050   2.30123
    R2        2.17096   0.03709   0.00000   0.00000   0.00000   2.17096
    R3        3.88992   0.01362   0.00000   0.00000   0.00000   3.88992
    R4        1.85426  -0.02861   0.00000   0.00000   0.00000   1.85426
    A1        1.89222   0.00619   0.06347  -0.03474   0.02872   1.92095
    A2        2.61991   0.00984   0.00000   0.00000   0.00000   2.61991
    D1        2.40617  -0.00028  -0.00154  -0.11599  -0.11752   2.28865
         Item               Value     Threshold  Converged?
 Maximum Force            0.033968     0.002500     NO 
 RMS     Force            0.017265     0.001667     NO 
 Maximum Displacement     0.035342     0.010000     NO 
 RMS     Displacement     0.028409     0.006667     NO 
 Predicted change in Energy=-1.765409D-03
 GradGradGradGradGradGradGradGradGradGradGradGradGradGradGradGradGradGrad

                          Input orientation:                          
 ---------------------------------------------------------------------
 Center     Atomic      Atomic             Coordinates (Angstroms)
 Number     Number       Type             X           Y           Z
 ---------------------------------------------------------------------
      1          8           0       -0.517147    0.497775   -0.039122
      2          8           0       -1.410936   -0.329205   -0.025587
      3          1           0        0.494235   -0.011845    0.153712
      4          1           0        1.433847   -0.156726   -0.089103
 ---------------------------------------------------------------------
                    Distance matrix (angstroms):
                    1          2          3          4
     1  O    0.000000
     2  O    1.217759   0.000000
     3  H    1.148822   1.939728   0.000000
     4  H    2.058458   2.850715   0.981234   0.000000
 Stoichiometry    H2O2(3)
 Framework group  C1[X(H2O2)]
 Deg. of freedom     6
 Full point group                 C1      NOp   1
 Largest Abelian subgroup         C1      NOp   1
 Largest concise Abelian subgroup C1      NOp   1
                         Standard orientation:                         
 ---------------------------------------------------------------------
 Center     Atomic      Atomic             Coordinates (Angstroms)
 Number     Number       Type             X           Y           Z
 ---------------------------------------------------------------------
      1          8           0       -0.342150   -0.352205   -0.005130
      2          8           0        0.743997    0.198450   -0.003151
      3          1           0       -1.175919    0.420253    0.161988
      4          1           0       -2.038856    0.809787   -0.095739
 ---------------------------------------------------------------------
 Rotational constants (GHZ):    165.2361895     30.7532569     26.0241279
 Standard basis: 6-311+G(2df,2p) (5D, 7F)
 There are    86 symmetry adapted basis functions of A   symmetry.
 Integral buffers will be    131072 words long.
 Raffenetti 2 integral format.
 Two-electron integral symmetry is turned on.
    86 basis functions,   126 primitive gaussians,    96 cartesian basis functions
    10 alpha electrons        8 beta electrons
       nuclear repulsion energy        37.7596113909 Hartrees.
 NAtoms=    4 NActive=    4 NUniq=    4 SFac= 1.00D+00 NAtFMM=   50 NAOKFM=F Big=F
 One-electron integrals computed using PRISM.
 NBasis=    86 RedAO= T  NBF=    86
 NBsUse=    86 1.00D-06 NBFU=    86
 Initial guess read from the read-write file.
 B after Tr=     0.000000    0.000000    0.000000
         Rot=    1.000000    0.000000    0.000000    0.000000 Ang=   0.00 deg.
 Initial guess orbital symmetries:
 Alpha Orbitals:
       Occupied  (A) (A) (A) (A) (A) (A) (A) (A) (A) (A)
       Virtual   (A) (A) (A) (A) (A) (A) (A) (A) (A) (A) (A) (A)
                 (A) (A) (A) (A) (A) (A) (A) (A) (A) (A) (A) (A)
                 (A) (A) (A) (A) (A) (A) (A) (A) (A) (A) (A) (A)
                 (A) (A) (A) (A) (A) (A) (A) (A) (A) (A) (A) (A)
                 (A) (A) (A) (A) (A) (A) (A) (A) (A) (A) (A) (A)
                 (A) (A) (A) (A) (A) (A) (A) (A) (A) (A) (A) (A)
                 (A) (A) (A) (A)
 Beta  Orbitals:
       Occupied  (A) (A) (A) (A) (A) (A) (A) (A)
       Virtual   (A) (A) (A) (A) (A) (A) (A) (A) (A) (A) (A) (A)
                 (A) (A) (A) (A) (A) (A) (A) (A) (A) (A) (A) (A)
                 (A) (A) (A) (A) (A) (A) (A) (A) (A) (A) (A) (A)
                 (A) (A) (A) (A) (A) (A) (A) (A) (A) (A) (A) (A)
                 (A) (A) (A) (A) (A) (A) (A) (A) (A) (A) (A) (A)
                 (A) (A) (A) (A) (A) (A) (A) (A) (A) (A) (A) (A)
                 (A) (A) (A) (A) (A) (A)
 Initial guess <Sx>= 0.0000 <Sy>= 0.0000 <Sz>= 1.0000 <S**2>= 2.0185 S= 1.0062
 Harris functional with IExCor= 1009 diagonalized for initial guess.
 ExpMin= 8.45D-02 ExpMax= 8.59D+03 ExpMxC= 1.30D+03 IAcc=2 IRadAn=         1 AccDes= 0.00D+00
 HarFok:  IExCor= 1009 AccDes= 0.00D+00 IRadAn=         1 IDoV= 1
 ScaDFX=  1.000000  1.000000  1.000000  1.000000
 FoFCou: FMM=F IPFlag=           0 FMFlag=      100000 FMFlg1=           0
         NFxFlg=           0 DoJE=T BraDBF=F KetDBF=T FulRan=T
         Omega=  0.000000  0.000000  1.000000  0.000000  0.000000 ICntrl=     500 IOpCl=  0
         NMat0=    1 NMatS0=    1 NMatT0=    0 NMatD0=    1 NMtDS0=    0 NMtDT0=    0
         I1Cent=           4 NGrid=           0.
 Petite list used in FoFCou.
 Requested convergence on RMS density matrix=1.00D-08 within 128 cycles.
 Requested convergence on MAX density matrix=1.00D-06.
 Requested convergence on             energy=1.00D-06.
 No special actions if energy rises.
 Keep R1 and R2 ints in memory in canonical form, NReq=23684999.
 SCF Done:  E(UM062X) =  -151.402818771     A.U. after   14 cycles
             Convg  =    0.7265D-08             -V/T =  2.0016
 <Sx>= 0.0000 <Sy>= 0.0000 <Sz>= 1.0000 <S**2>= 2.0177 S= 1.0059
 <L.S>= 0.000000000000E+00
 Annihilation of the first spin contaminant:
 S**2 before annihilation     2.0177,   after     2.0002
 Calling FoFJK, ICntrl=      2127 FMM=F ISym2X=0 I1Cent= 0 IOpClX= 1 NMat=1 NMatS=1 NMatT=0.
 ***** Axes restored to original set *****
 -------------------------------------------------------------------
 Center     Atomic                   Forces (Hartrees/Bohr)
 Number     Number              X              Y              Z
 -------------------------------------------------------------------
      1        8          -0.048436198    0.027515747   -0.003123833
      2        8          -0.010888488   -0.006408456   -0.000481038
      3        1           0.076693845   -0.017111264   -0.008573943
      4        1          -0.017369159   -0.003996027    0.012178813
 -------------------------------------------------------------------
 Cartesian Forces:  Max     0.076693845 RMS     0.028848790

 GradGradGradGradGradGradGradGradGradGradGradGradGradGradGradGradGradGrad
 Berny optimization.
 Using GEDIIS/GDIIS optimizer.
 Internal  Forces:  Max     0.046106077 RMS     0.023618339
 Search for a local minimum.
 Step number   3 out of a maximum of   20
 All quantities printed in internal units (Hartrees-Bohrs-Radians)
 Mixed Optimization -- RFO/linear search
 Update second derivatives using D2CorX and points    1    2    3
 DE= -1.17D-03 DEPred=-1.77D-03 R= 6.60D-01
 SS=  1.41D+00  RLast= 1.45D-01 DXNew= 8.1601D-01 4.3594D-01
 Trust test= 6.60D-01 RLast= 1.45D-01 DXMaxT set to 4.85D-01
 The second derivative matrix:
                          R1        R2        R3        R4        A1
           R1           0.60035
           R2           0.10578   0.31307
           R3           0.03333   0.00789   0.04165
           R4          -0.07354  -0.01737  -0.00549   0.19980
           A1           0.05080  -0.02160  -0.00694   0.01515   0.15250
           A2           0.00236   0.00066   0.00021  -0.00046  -0.00100
           D1          -0.00396  -0.00105  -0.00034   0.00073   0.00063
                          A2        D1
           A2           0.16002
           D1          -0.00005   0.00231
 ITU=  1  1  0
 Use linear search instead of GDIIS.
     Eigenvalues ---    0.00228   0.14682   0.606071000.000001000.00000
     Eigenvalues --- 1000.000001000.00000
 RFO step:  Lambda=-4.80768579D-04 EMin= 2.28144412D-03
 Quartic linear search produced a step of -0.18943.
 Iteration  1 RMS(Cart)=  0.03588535 RMS(Int)=  0.02720934
 Iteration  2 RMS(Cart)=  0.01511345 RMS(Int)=  0.00049101
 Iteration  3 RMS(Cart)=  0.00039177 RMS(Int)=  0.00000045
 Iteration  4 RMS(Cart)=  0.00000022 RMS(Int)=  0.00000000
 Iteration  1 RMS(Cart)=  0.00000001 RMS(Int)=  0.00000003
 Variable       Old X    -DE/DX   Delta X   Delta X   Delta X     New X
                                 (Linear)    (Quad)   (Total)
    R1        2.30123   0.01243   0.01525   0.00015   0.01540   2.31663
    R2        2.17096   0.04611   0.00000   0.00000   0.00000   2.17096
    R3        3.88992   0.01647   0.00000   0.00000   0.00000   3.88992
    R4        1.85426  -0.03488   0.00000   0.00000   0.00000   1.85426
    A1        1.92095   0.00597  -0.00544   0.04119   0.03575   1.95669
    A2        2.61991   0.01005   0.00000   0.00000   0.00000   2.61991
    D1        2.28865  -0.00034   0.02226  -0.29018  -0.26792   2.02073
         Item               Value     Threshold  Converged?
 Maximum Force            0.012434     0.002500     NO 
 RMS     Force            0.006899     0.001667     NO 
 Maximum Displacement     0.080573     0.010000     NO 
 RMS     Displacement     0.047418     0.006667     NO 
 Predicted change in Energy=-2.071731D-04
 GradGradGradGradGradGradGradGradGradGradGradGradGradGradGradGradGradGrad

                          Input orientation:                          
 ---------------------------------------------------------------------
 Center     Atomic      Atomic             Coordinates (Angstroms)
 Number     Number       Type             X           Y           Z
 ---------------------------------------------------------------------
      1          8           0       -0.518905    0.496197   -0.033618
      2          8           0       -1.412868   -0.342642   -0.039420
      3          1           0        0.509377    0.030793    0.180458
      4          1           0        1.422396   -0.184347   -0.107520
 ---------------------------------------------------------------------
                    Distance matrix (angstroms):
                    1          2          3          4
     1  O    0.000000
     2  O    1.225910   0.000000
     3  H    1.148822   1.970488   0.000000
     4  H    2.058458   2.840495   0.981234   0.000000
 Stoichiometry    H2O2(3)
 Framework group  C1[X(H2O2)]
 Deg. of freedom     6
 Full point group                 C1      NOp   1
 Largest Abelian subgroup         C1      NOp   1
 Largest concise Abelian subgroup C1      NOp   1
                         Standard orientation:                         
 ---------------------------------------------------------------------
 Center     Atomic      Atomic             Coordinates (Angstroms)
 Number     Number       Type             X           Y           Z
 ---------------------------------------------------------------------
      1          8           0       -0.346014   -0.353177   -0.008051
      2          8           0        0.748380    0.199200   -0.002156
      3          1           0       -1.203813    0.384555    0.191260
      4          1           0       -2.015112    0.847260   -0.109603
 ---------------------------------------------------------------------
 Rotational constants (GHZ):    162.2402466     30.4999253     25.8040957
 Standard basis: 6-311+G(2df,2p) (5D, 7F)
 There are    86 symmetry adapted basis functions of A   symmetry.
 Integral buffers will be    131072 words long.
 Raffenetti 2 integral format.
 Two-electron integral symmetry is turned on.
    86 basis functions,   126 primitive gaussians,    96 cartesian basis functions
    10 alpha electrons        8 beta electrons
       nuclear repulsion energy        37.5459901766 Hartrees.
 NAtoms=    4 NActive=    4 NUniq=    4 SFac= 1.00D+00 NAtFMM=   50 NAOKFM=F Big=F
 One-electron integrals computed using PRISM.
 NBasis=    86 RedAO= T  NBF=    86
 NBsUse=    86 1.00D-06 NBFU=    86
 Initial guess read from the read-write file.
 B after Tr=     0.000000    0.000000    0.000000
         Rot=    1.000000    0.000000    0.000000    0.000000 Ang=   0.00 deg.
 Initial guess orbital symmetries:
 Alpha Orbitals:
       Occupied  (A) (A) (A) (A) (A) (A) (A) (A) (A) (A)
       Virtual   (A) (A) (A) (A) (A) (A) (A) (A) (A) (A) (A) (A)
                 (A) (A) (A) (A) (A) (A) (A) (A) (A) (A) (A) (A)
                 (A) (A) (A) (A) (A) (A) (A) (A) (A) (A) (A) (A)
                 (A) (A) (A) (A) (A) (A) (A) (A) (A) (A) (A) (A)
                 (A) (A) (A) (A) (A) (A) (A) (A) (A) (A) (A) (A)
                 (A) (A) (A) (A) (A) (A) (A) (A) (A) (A) (A) (A)
                 (A) (A) (A) (A)
 Beta  Orbitals:
       Occupied  (A) (A) (A) (A) (A) (A) (A) (A)
       Virtual   (A) (A) (A) (A) (A) (A) (A) (A) (A) (A) (A) (A)
                 (A) (A) (A) (A) (A) (A) (A) (A) (A) (A) (A) (A)
                 (A) (A) (A) (A) (A) (A) (A) (A) (A) (A) (A) (A)
                 (A) (A) (A) (A) (A) (A) (A) (A) (A) (A) (A) (A)
                 (A) (A) (A) (A) (A) (A) (A) (A) (A) (A) (A) (A)
                 (A) (A) (A) (A) (A) (A) (A) (A) (A) (A) (A) (A)
                 (A) (A) (A) (A) (A) (A)
 Initial guess <Sx>= 0.0000 <Sy>= 0.0000 <Sz>= 1.0000 <S**2>= 2.0178 S= 1.0059
 Harris functional with IExCor= 1009 diagonalized for initial guess.
 ExpMin= 8.45D-02 ExpMax= 8.59D+03 ExpMxC= 1.30D+03 IAcc=2 IRadAn=         1 AccDes= 0.00D+00
 HarFok:  IExCor= 1009 AccDes= 0.00D+00 IRadAn=         1 IDoV= 1
 ScaDFX=  1.000000  1.000000  1.000000  1.000000
 FoFCou: FMM=F IPFlag=           0 FMFlag=      100000 FMFlg1=           0
         NFxFlg=           0 DoJE=T BraDBF=F KetDBF=T FulRan=T
         Omega=  0.000000  0.000000  1.000000  0.000000  0.000000 ICntrl=     500 IOpCl=  0
         NMat0=    1 NMatS0=    1 NMatT0=    0 NMatD0=    1 NMtDS0=    0 NMtDT0=    0
         I1Cent=           4 NGrid=           0.
 Petite list used in FoFCou.
 Requested convergence on RMS density matrix=1.00D-08 within 128 cycles.
 Requested convergence on MAX density matrix=1.00D-06.
 Requested convergence on             energy=1.00D-06.
 No special actions if energy rises.
 Keep R1 and R2 ints in memory in canonical form, NReq=23684999.
 SCF Done:  E(UM062X) =  -151.403110236     A.U. after   14 cycles
             Convg  =    0.2946D-08             -V/T =  2.0018
 <Sx>= 0.0000 <Sy>= 0.0000 <Sz>= 1.0000 <S**2>= 2.0179 S= 1.0059
 <L.S>= 0.000000000000E+00
 Annihilation of the first spin contaminant:
 S**2 before annihilation     2.0179,   after     2.0002
 Calling FoFJK, ICntrl=      2127 FMM=F ISym2X=0 I1Cent= 0 IOpClX= 1 NMat=1 NMatS=1 NMatT=0.
 ***** Axes restored to original set *****
 -------------------------------------------------------------------
 Center     Atomic                   Forces (Hartrees/Bohr)
 Number     Number              X              Y              Z
 -------------------------------------------------------------------
      1        8          -0.057125268    0.022156966   -0.003593477
      2        8           0.000269597    0.000304625   -0.000087625
      3        1           0.072665296   -0.021907163   -0.010351860
      4        1          -0.015809625   -0.000554428    0.014032962
 -------------------------------------------------------------------
 Cartesian Forces:  Max     0.072665296 RMS     0.028985369

 GradGradGradGradGradGradGradGradGradGradGradGradGradGradGradGradGradGrad
 Berny optimization.
 Using GEDIIS/GDIIS optimizer.
 Internal  Forces:  Max     0.045021315 RMS     0.022510318
 Search for a local minimum.
 Step number   4 out of a maximum of   20
 All quantities printed in internal units (Hartrees-Bohrs-Radians)
 Mixed Optimization -- En-DIIS/RFO-DIIS
 Update second derivatives using D2CorX and points    1    2    3    4
 DE= -2.91D-04 DEPred=-2.07D-04 R= 1.41D+00
 SS=  1.41D+00  RLast= 2.71D-01 DXNew= 8.1601D-01 8.1220D-01
 Trust test= 1.41D+00 RLast= 2.71D-01 DXMaxT set to 8.12D-01
 The second derivative matrix:
                          R1        R2        R3        R4        A1
           R1           0.66874
           R2           0.10703   0.31417
           R3           0.03537   0.00822   0.04177
           R4          -0.07426  -0.01815  -0.00572   0.20034
           A1           0.09263  -0.02506  -0.00650   0.01771   0.19140
           A2           0.00532   0.00067   0.00025  -0.00047   0.00162
           D1           0.00320  -0.00124  -0.00042   0.00088   0.00780
                          A2        D1
           A2           0.16008
           D1          -0.00012   0.00146
 ITU=  1  1  1  0
 Use linear search instead of GDIIS.
     Eigenvalues ---    0.00114   0.17434   0.686121000.000001000.00000
     Eigenvalues --- 1000.000001000.00000
 RFO step:  Lambda=-4.14753579D-05 EMin= 1.14083951D-03
 Quartic linear search produced a step of  0.12227.
 Iteration  1 RMS(Cart)=  0.03859637 RMS(Int)=  0.00378042
 Iteration  2 RMS(Cart)=  0.00290452 RMS(Int)=  0.00000746
 Iteration  3 RMS(Cart)=  0.00000490 RMS(Int)=  0.00000000
 Iteration  4 RMS(Cart)=  0.00000000 RMS(Int)=  0.00000000
 Iteration  1 RMS(Cart)=  0.00000001 RMS(Int)=  0.00000002
 Variable       Old X    -DE/DX   Delta X   Delta X   Delta X     New X
                                 (Linear)    (Quad)   (Total)
    R1        2.31663  -0.00032   0.00188  -0.00242  -0.00054   2.31609
    R2        2.17096   0.04502   0.00000   0.00000   0.00000   2.17096
    R3        3.88992   0.01604   0.00000   0.00000   0.00000   3.88992
    R4        1.85426  -0.03413   0.00000   0.00000   0.00000   1.85426
    A1        1.95669  -0.00020   0.00437   0.00297   0.00734   1.96404
    A2        2.61991   0.00988   0.00000   0.00000   0.00000   2.61991
    D1        2.02073  -0.00028  -0.03276  -0.16794  -0.20070   1.82003
         Item               Value     Threshold  Converged?
 Maximum Force            0.000320     0.002500     YES
 RMS     Force            0.000236     0.001667     YES
 Maximum Displacement     0.063244     0.010000     NO 
 RMS     Displacement     0.038670     0.006667     NO 
 Predicted change in Energy=-3.176591D-05
 GradGradGradGradGradGradGradGradGradGradGradGradGradGradGradGradGradGrad

                          Input orientation:                          
 ---------------------------------------------------------------------
 Center     Atomic      Atomic             Coordinates (Angstroms)
 Number     Number       Type             X           Y           Z
 ---------------------------------------------------------------------
      1          8           0       -0.523398    0.501819   -0.026066
      2          8           0       -1.398565   -0.355907   -0.049392
      3          1           0        0.516107    0.064260    0.192479
      4          1           0        1.405857   -0.210172   -0.117121
 ---------------------------------------------------------------------
                    Distance matrix (angstroms):
                    1          2          3          4
     1  O    0.000000
     2  O    1.225625   0.000000
     3  H    1.148822   1.975098   0.000000
     4  H    2.058458   2.809023   0.981234   0.000000
 Stoichiometry    H2O2(3)
 Framework group  C1[X(H2O2)]
 Deg. of freedom     6
 Full point group                 C1      NOp   1
 Largest Abelian subgroup         C1      NOp   1
 Largest concise Abelian subgroup C1      NOp   1
                         Standard orientation:                         
 ---------------------------------------------------------------------
 Center     Atomic      Atomic             Coordinates (Angstroms)
 Number     Number       Type             X           Y           Z
 ---------------------------------------------------------------------
      1          8           0       -0.345047   -0.359350   -0.010202
      2          8           0        0.743973    0.202884   -0.000994
      3          1           0       -1.214191    0.361030    0.202947
      4          1           0       -1.977220    0.890695   -0.113378
 ---------------------------------------------------------------------
 Rotational constants (GHZ):    155.5059408     30.8912348     25.9190210
 Standard basis: 6-311+G(2df,2p) (5D, 7F)
 There are    86 symmetry adapted basis functions of A   symmetry.
 Integral buffers will be    131072 words long.
 Raffenetti 2 integral format.
 Two-electron integral symmetry is turned on.
    86 basis functions,   126 primitive gaussians,    96 cartesian basis functions
    10 alpha electrons        8 beta electrons
       nuclear repulsion energy        37.5640970364 Hartrees.
 NAtoms=    4 NActive=    4 NUniq=    4 SFac= 1.00D+00 NAtFMM=   50 NAOKFM=F Big=F
 One-electron integrals computed using PRISM.
 NBasis=    86 RedAO= T  NBF=    86
 NBsUse=    86 1.00D-06 NBFU=    86
 Initial guess read from the read-write file.
 B after Tr=     0.000000    0.000000    0.000000
         Rot=    1.000000    0.000000    0.000000    0.000000 Ang=   0.00 deg.
 Initial guess orbital symmetries:
 Alpha Orbitals:
       Occupied  (A) (A) (A) (A) (A) (A) (A) (A) (A) (A)
       Virtual   (A) (A) (A) (A) (A) (A) (A) (A) (A) (A) (A) (A)
                 (A) (A) (A) (A) (A) (A) (A) (A) (A) (A) (A) (A)
                 (A) (A) (A) (A) (A) (A) (A) (A) (A) (A) (A) (A)
                 (A) (A) (A) (A) (A) (A) (A) (A) (A) (A) (A) (A)
                 (A) (A) (A) (A) (A) (A) (A) (A) (A) (A) (A) (A)
                 (A) (A) (A) (A) (A) (A) (A) (A) (A) (A) (A) (A)
                 (A) (A) (A) (A)
 Beta  Orbitals:
       Occupied  (A) (A) (A) (A) (A) (A) (A) (A)
       Virtual   (A) (A) (A) (A) (A) (A) (A) (A) (A) (A) (A) (A)
                 (A) (A) (A) (A) (A) (A) (A) (A) (A) (A) (A) (A)
                 (A) (A) (A) (A) (A) (A) (A) (A) (A) (A) (A) (A)
                 (A) (A) (A) (A) (A) (A) (A) (A) (A) (A) (A) (A)
                 (A) (A) (A) (A) (A) (A) (A) (A) (A) (A) (A) (A)
                 (A) (A) (A) (A) (A) (A) (A) (A) (A) (A) (A) (A)
                 (A) (A) (A) (A) (A) (A)
 Initial guess <Sx>= 0.0000 <Sy>= 0.0000 <Sz>= 1.0000 <S**2>= 2.0179 S= 1.0059
 Harris functional with IExCor= 1009 diagonalized for initial guess.
 ExpMin= 8.45D-02 ExpMax= 8.59D+03 ExpMxC= 1.30D+03 IAcc=2 IRadAn=         1 AccDes= 0.00D+00
 HarFok:  IExCor= 1009 AccDes= 0.00D+00 IRadAn=         1 IDoV= 1
 ScaDFX=  1.000000  1.000000  1.000000  1.000000
 FoFCou: FMM=F IPFlag=           0 FMFlag=      100000 FMFlg1=           0
         NFxFlg=           0 DoJE=T BraDBF=F KetDBF=T FulRan=T
         Omega=  0.000000  0.000000  1.000000  0.000000  0.000000 ICntrl=     500 IOpCl=  0
         NMat0=    1 NMatS0=    1 NMatT0=    0 NMatD0=    1 NMtDS0=    0 NMtDT0=    0
         I1Cent=           4 NGrid=           0.
 Petite list used in FoFCou.
 Requested convergence on RMS density matrix=1.00D-08 within 128 cycles.
 Requested convergence on MAX density matrix=1.00D-06.
 Requested convergence on             energy=1.00D-06.
 No special actions if energy rises.
 Keep R1 and R2 ints in memory in canonical form, NReq=23684999.
 SCF Done:  E(UM062X) =  -151.403163016     A.U. after   12 cycles
             Convg  =    0.5404D-08             -V/T =  2.0018
 <Sx>= 0.0000 <Sy>= 0.0000 <Sz>= 1.0000 <S**2>= 2.0178 S= 1.0059
 <L.S>= 0.000000000000E+00
 Annihilation of the first spin contaminant:
 S**2 before annihilation     2.0178,   after     2.0002
 Calling FoFJK, ICntrl=      2127 FMM=F ISym2X=0 I1Cent= 0 IOpClX= 1 NMat=1 NMatS=1 NMatT=0.
 ***** Axes restored to original set *****
 -------------------------------------------------------------------
 Center     Atomic                   Forces (Hartrees/Bohr)
 Number     Number              X              Y              Z
 -------------------------------------------------------------------
      1        8          -0.057541704    0.022381409   -0.003613445
      2        8           0.000704682    0.000390746    0.000055810
      3        1           0.071700734   -0.025033890   -0.011385628
      4        1          -0.014863712    0.002261735    0.014943263
 -------------------------------------------------------------------
 Cartesian Forces:  Max     0.071700734 RMS     0.029115223

 GradGradGradGradGradGradGradGradGradGradGradGradGradGradGradGradGradGrad
 Berny optimization.
 Using GEDIIS/GDIIS optimizer.
 Internal  Forces:  Max     0.045158499 RMS     0.022561783
 Search for a local minimum.
 Step number   5 out of a maximum of   20
 All quantities printed in internal units (Hartrees-Bohrs-Radians)
 Mixed Optimization -- En-DIIS/RFO-DIIS
 Swaping is turned off.
 Update second derivatives using D2CorX and points    2    3    4    5
 DE= -5.28D-05 DEPred=-3.18D-05 R= 1.66D+00
 SS=  1.41D+00  RLast= 2.01D-01 DXNew= 1.3660D+00 6.0250D-01
 Trust test= 1.66D+00 RLast= 2.01D-01 DXMaxT set to 8.12D-01
 The second derivative matrix:
                          R1        R2        R3        R4        A1
           R1           0.64870
           R2           0.10275   0.31690
           R3           0.03469   0.00840   0.04180
           R4          -0.07132  -0.02008  -0.00585   0.20171
           A1           0.09334  -0.03783  -0.00770   0.02669   0.23686
           A2           0.00656  -0.00052   0.00020   0.00038   0.00663
           D1          -0.00017  -0.00098  -0.00053   0.00069   0.00526
                          A2        D1
           A2           0.16067
           D1          -0.00047   0.00090
 ITU=  1  1  1  1  0
     Eigenvalues ---    0.00078   0.21681   0.668861000.000001000.00000
     Eigenvalues --- 1000.000001000.00000
 En-DIIS/RFO-DIIS IScMMF=        0 using points:     5    4
 RFO step:  Lambda=-1.15026565D-04.
 DidBck=F Rises=F RFO-DIIS coefs:    1.65867   -0.65867
 Iteration  1 RMS(Cart)=  0.03130972 RMS(Int)=  0.00206539
 Iteration  2 RMS(Cart)=  0.00157260 RMS(Int)=  0.00000314
 Iteration  3 RMS(Cart)=  0.00000151 RMS(Int)=  0.00000106
 Iteration  4 RMS(Cart)=  0.00000000 RMS(Int)=  0.00000106
 Iteration  1 RMS(Cart)=  0.00000024 RMS(Int)=  0.00000099
 Variable       Old X    -DE/DX   Delta X   Delta X   Delta X     New X
                                  (DIIS)     (GDIIS)  (Total)
    R1        2.31609  -0.00069  -0.00035  -0.00080  -0.00115   2.31494
    R2        2.17096   0.04516   0.00000   0.00000   0.00000   2.17096
    R3        3.88992   0.01601   0.00000   0.00000   0.00000   3.88992
    R4        1.85426  -0.03423   0.00000   0.00000   0.00000   1.85426
    A1        1.96404  -0.00084   0.00484  -0.00449   0.00034   1.96438
    A2        2.61991   0.00974   0.00000   0.00001   0.00001   2.61992
    D1        1.82003  -0.00014  -0.13219  -0.02215  -0.15435   1.66568
         Item               Value     Threshold  Converged?
 Maximum Force            0.000838     0.002500     YES
 RMS     Force            0.000547     0.001667     YES
 Maximum Displacement     0.048583     0.010000     NO 
 RMS     Displacement     0.031170     0.006667     NO 
 Predicted change in Energy=-1.096511D-05
 GradGradGradGradGradGradGradGradGradGradGradGradGradGradGradGradGradGrad

                          Input orientation:                          
 ---------------------------------------------------------------------
 Center     Atomic      Atomic             Coordinates (Angstroms)
 Number     Number       Type             X           Y           Z
 ---------------------------------------------------------------------
      1          8           0       -0.527505    0.508139   -0.018523
      2          8           0       -1.383814   -0.367032   -0.056888
      3          1           0        0.520473    0.089969    0.197501
      4          1           0        1.390845   -0.231075   -0.122189
 ---------------------------------------------------------------------
                    Distance matrix (angstroms):
                    1          2          3          4
     1  O    0.000000
     2  O    1.225015   0.000000
     3  H    1.148821   1.974810   0.000000
     4  H    2.058458   2.778756   0.981233   0.000000
 Stoichiometry    H2O2(3)
 Framework group  C1[X(H2O2)]
 Deg. of freedom     6
 Full point group                 C1      NOp   1
 Largest Abelian subgroup         C1      NOp   1
 Largest concise Abelian subgroup C1      NOp   1
                         Standard orientation:                         
 ---------------------------------------------------------------------
 Center     Atomic      Atomic             Coordinates (Angstroms)
 Number     Number       Type             X           Y           Z
 ---------------------------------------------------------------------
      1          8           0       -0.344139   -0.365462   -0.011588
      2          8           0        0.739288    0.206126   -0.000026
      3          1           0       -1.219785    0.345667    0.205967
      4          1           0       -1.941407    0.929023   -0.113056
 ---------------------------------------------------------------------
 Rotational constants (GHZ):    149.5751784     31.3109113     26.0438671
 Standard basis: 6-311+G(2df,2p) (5D, 7F)
 There are    86 symmetry adapted basis functions of A   symmetry.
 Integral buffers will be    131072 words long.
 Raffenetti 2 integral format.
 Two-electron integral symmetry is turned on.
    86 basis functions,   126 primitive gaussians,    96 cartesian basis functions
    10 alpha electrons        8 beta electrons
       nuclear repulsion energy        37.5945704034 Hartrees.
 NAtoms=    4 NActive=    4 NUniq=    4 SFac= 1.00D+00 NAtFMM=   50 NAOKFM=F Big=F
 One-electron integrals computed using PRISM.
 NBasis=    86 RedAO= T  NBF=    86
 NBsUse=    86 1.00D-06 NBFU=    86
 Initial guess read from the read-write file.
 B after Tr=     0.000000    0.000000    0.000000
         Rot=    1.000000    0.000000    0.000000    0.000000 Ang=   0.00 deg.
 Initial guess orbital symmetries:
 Alpha Orbitals:
       Occupied  (A) (A) (A) (A) (A) (A) (A) (A) (A) (A)
       Virtual   (A) (A) (A) (A) (A) (A) (A) (A) (A) (A) (A) (A)
                 (A) (A) (A) (A) (A) (A) (A) (A) (A) (A) (A) (A)
                 (A) (A) (A) (A) (A) (A) (A) (A) (A) (A) (A) (A)
                 (A) (A) (A) (A) (A) (A) (A) (A) (A) (A) (A) (A)
                 (A) (A) (A) (A) (A) (A) (A) (A) (A) (A) (A) (A)
                 (A) (A) (A) (A) (A) (A) (A) (A) (A) (A) (A) (A)
                 (A) (A) (A) (A)
 Beta  Orbitals:
       Occupied  (A) (A) (A) (A) (A) (A) (A) (A)
       Virtual   (A) (A) (A) (A) (A) (A) (A) (A) (A) (A) (A) (A)
                 (A) (A) (A) (A) (A) (A) (A) (A) (A) (A) (A) (A)
                 (A) (A) (A) (A) (A) (A) (A) (A) (A) (A) (A) (A)
                 (A) (A) (A) (A) (A) (A) (A) (A) (A) (A) (A) (A)
                 (A) (A) (A) (A) (A) (A) (A) (A) (A) (A) (A) (A)
                 (A) (A) (A) (A) (A) (A) (A) (A) (A) (A) (A) (A)
                 (A) (A) (A) (A) (A) (A)
 Initial guess <Sx>= 0.0000 <Sy>= 0.0000 <Sz>= 1.0000 <S**2>= 2.0178 S= 1.0059
 Harris functional with IExCor= 1009 diagonalized for initial guess.
 ExpMin= 8.45D-02 ExpMax= 8.59D+03 ExpMxC= 1.30D+03 IAcc=2 IRadAn=         1 AccDes= 0.00D+00
 HarFok:  IExCor= 1009 AccDes= 0.00D+00 IRadAn=         1 IDoV= 1
 ScaDFX=  1.000000  1.000000  1.000000  1.000000
 FoFCou: FMM=F IPFlag=           0 FMFlag=      100000 FMFlg1=           0
         NFxFlg=           0 DoJE=T BraDBF=F KetDBF=T FulRan=T
         Omega=  0.000000  0.000000  1.000000  0.000000  0.000000 ICntrl=     500 IOpCl=  0
         NMat0=    1 NMatS0=    1 NMatT0=    0 NMatD0=    1 NMtDS0=    0 NMtDT0=    0
         I1Cent=           4 NGrid=           0.
 Petite list used in FoFCou.
 Requested convergence on RMS density matrix=1.00D-08 within 128 cycles.
 Requested convergence on MAX density matrix=1.00D-06.
 Requested convergence on             energy=1.00D-06.
 No special actions if energy rises.
 Keep R1 and R2 ints in memory in canonical form, NReq=23684999.
 SCF Done:  E(UM062X) =  -151.403193965     A.U. after   13 cycles
             Convg  =    0.3890D-08             -V/T =  2.0018
 <Sx>= 0.0000 <Sy>= 0.0000 <Sz>= 1.0000 <S**2>= 2.0177 S= 1.0059
 <L.S>= 0.000000000000E+00
 Annihilation of the first spin contaminant:
 S**2 before annihilation     2.0177,   after     2.0002
 Calling FoFJK, ICntrl=      2127 FMM=F ISym2X=0 I1Cent= 0 IOpClX= 1 NMat=1 NMatS=1 NMatT=0.
 ***** Axes restored to original set *****
 -------------------------------------------------------------------
 Center     Atomic                   Forces (Hartrees/Bohr)
 Number     Number              X              Y              Z
 -------------------------------------------------------------------
      1        8          -0.057231741    0.022470791   -0.003406167
      2        8           0.000268900    0.000261911    0.000095204
      3        1           0.071024136   -0.027106226   -0.011983460
      4        1          -0.014061294    0.004373524    0.015294423
 -------------------------------------------------------------------
 Cartesian Forces:  Max     0.071024136 RMS     0.029105707

 GradGradGradGradGradGradGradGradGradGradGradGradGradGradGradGradGradGrad
 Berny optimization.
 Using GEDIIS/GDIIS optimizer.
 Internal  Forces:  Max     0.045242652 RMS     0.022592023
 Search for a local minimum.
 Step number   6 out of a maximum of   20
 All quantities printed in internal units (Hartrees-Bohrs-Radians)
 Mixed Optimization -- En-DIIS/RFO-DIIS
 Swaping is turned off.
 Update second derivatives using D2CorX and points    4    5    6
 DE= -3.09D-05 DEPred=-1.10D-05 R= 2.82D+00
 SS=  1.41D+00  RLast= 1.54D-01 DXNew= 1.3660D+00 4.6305D-01
 Trust test= 2.82D+00 RLast= 1.54D-01 DXMaxT set to 8.12D-01
 The second derivative matrix:
                          R1        R2        R3        R4        A1
           R1           0.64149
           R2           0.10410   0.31778
           R3           0.03544   0.00836   0.04173
           R4          -0.07235  -0.02072  -0.00582   0.20219
           A1           0.08370  -0.03712  -0.00679   0.02612   0.22502
           A2           0.00740  -0.00104   0.00009   0.00076   0.00811
           D1          -0.00192  -0.00032  -0.00034   0.00019   0.00258
                          A2        D1
           A2           0.16072
           D1          -0.00041   0.00063
 ITU=  1  1  1  1  1  0
     Eigenvalues ---    0.00059   0.20887   0.657691000.000001000.00000
     Eigenvalues --- 1000.000001000.00000
 En-DIIS/RFO-DIIS IScMMF=        0 using points:     6    5    4
 RFO step:  Lambda=-1.13474741D-04.
 DidBck=F Rises=F RFO-DIIS coefs:    1.71497   -0.88827    0.17329
 Iteration  1 RMS(Cart)=  0.01567356 RMS(Int)=  0.00047511
 Iteration  2 RMS(Cart)=  0.00036507 RMS(Int)=  0.00000108
 Iteration  3 RMS(Cart)=  0.00000009 RMS(Int)=  0.00000106
 Iteration  1 RMS(Cart)=  0.00000062 RMS(Int)=  0.00000251
 Variable       Old X    -DE/DX   Delta X   Delta X   Delta X     New X
                                  (DIIS)     (GDIIS)  (Total)
    R1        2.31494  -0.00028  -0.00073   0.00015  -0.00058   2.31436
    R2        2.17096   0.04524   0.00000   0.00000   0.00000   2.17096
    R3        3.88992   0.01600   0.00000   0.00000   0.00000   3.88992
    R4        1.85426  -0.03429   0.00000   0.00000   0.00000   1.85426
    A1        1.96438  -0.00042  -0.00103  -0.00011  -0.00114   1.96324
    A2        2.61992   0.00968   0.00001   0.00001   0.00001   2.61993
    D1        1.66568  -0.00004  -0.07557  -0.00019  -0.07576   1.58992
         Item               Value     Threshold  Converged?
 Maximum Force            0.000422     0.002500     YES
 RMS     Force            0.000253     0.001667     YES
 Maximum Displacement     0.023523     0.010000     NO 
 RMS     Displacement     0.015620     0.006667     NO 
 Predicted change in Energy=-1.800992D-06
 GradGradGradGradGradGradGradGradGradGradGradGradGradGradGradGradGradGrad

                          Input orientation:                          
 ---------------------------------------------------------------------
 Center     Atomic      Atomic             Coordinates (Angstroms)
 Number     Number       Type             X           Y           Z
 ---------------------------------------------------------------------
      1          8           0       -0.529665    0.511660   -0.014318
      2          8           0       -1.375718   -0.372627   -0.060510
      3          1           0        0.522443    0.102416    0.198699
      4          1           0        1.382940   -0.241449   -0.123972
 ---------------------------------------------------------------------
                    Distance matrix (angstroms):
                    1          2          3          4
     1  O    0.000000
     2  O    1.224706   0.000000
     3  H    1.148820   1.973796   0.000000
     4  H    2.058460   2.762505   0.981232   0.000000
 Stoichiometry    H2O2(3)
 Framework group  C1[X(H2O2)]
 Deg. of freedom     6
 Full point group                 C1      NOp   1
 Largest Abelian subgroup         C1      NOp   1
 Largest concise Abelian subgroup C1      NOp   1
                         Standard orientation:                         
 ---------------------------------------------------------------------
 Center     Atomic      Atomic             Coordinates (Angstroms)
 Number     Number       Type             X           Y           Z
 ---------------------------------------------------------------------
      1          8           0       -0.343741   -0.368726   -0.012139
      2          8           0        0.736748    0.207721    0.000438
      3          1           0       -1.221951    0.339173    0.205607
      4          1           0       -1.922104    0.948867   -0.112000
 ---------------------------------------------------------------------
 Rotational constants (GHZ):    146.6084952     31.5432439     26.1112243
 Standard basis: 6-311+G(2df,2p) (5D, 7F)
 There are    86 symmetry adapted basis functions of A   symmetry.
 Integral buffers will be    131072 words long.
 Raffenetti 2 integral format.
 Two-electron integral symmetry is turned on.
    86 basis functions,   126 primitive gaussians,    96 cartesian basis functions
    10 alpha electrons        8 beta electrons
       nuclear repulsion energy        37.6116202523 Hartrees.
 NAtoms=    4 NActive=    4 NUniq=    4 SFac= 1.00D+00 NAtFMM=   50 NAOKFM=F Big=F
 One-electron integrals computed using PRISM.
 NBasis=    86 RedAO= T  NBF=    86
 NBsUse=    86 1.00D-06 NBFU=    86
 Initial guess read from the read-write file.
 B after Tr=     0.000000    0.000000    0.000000
         Rot=    1.000000    0.000000    0.000000    0.000000 Ang=   0.00 deg.
 Initial guess orbital symmetries:
 Alpha Orbitals:
       Occupied  (A) (A) (A) (A) (A) (A) (A) (A) (A) (A)
       Virtual   (A) (A) (A) (A) (A) (A) (A) (A) (A) (A) (A) (A)
                 (A) (A) (A) (A) (A) (A) (A) (A) (A) (A) (A) (A)
                 (A) (A) (A) (A) (A) (A) (A) (A) (A) (A) (A) (A)
                 (A) (A) (A) (A) (A) (A) (A) (A) (A) (A) (A) (A)
                 (A) (A) (A) (A) (A) (A) (A) (A) (A) (A) (A) (A)
                 (A) (A) (A) (A) (A) (A) (A) (A) (A) (A) (A) (A)
                 (A) (A) (A) (A)
 Beta  Orbitals:
       Occupied  (A) (A) (A) (A) (A) (A) (A) (A)
       Virtual   (A) (A) (A) (A) (A) (A) (A) (A) (A) (A) (A) (A)
                 (A) (A) (A) (A) (A) (A) (A) (A) (A) (A) (A) (A)
                 (A) (A) (A) (A) (A) (A) (A) (A) (A) (A) (A) (A)
                 (A) (A) (A) (A) (A) (A) (A) (A) (A) (A) (A) (A)
                 (A) (A) (A) (A) (A) (A) (A) (A) (A) (A) (A) (A)
                 (A) (A) (A) (A) (A) (A) (A) (A) (A) (A) (A) (A)
                 (A) (A) (A) (A) (A) (A)
 Initial guess <Sx>= 0.0000 <Sy>= 0.0000 <Sz>= 1.0000 <S**2>= 2.0177 S= 1.0059
 Harris functional with IExCor= 1009 diagonalized for initial guess.
 ExpMin= 8.45D-02 ExpMax= 8.59D+03 ExpMxC= 1.30D+03 IAcc=2 IRadAn=         1 AccDes= 0.00D+00
 HarFok:  IExCor= 1009 AccDes= 0.00D+00 IRadAn=         1 IDoV= 1
 ScaDFX=  1.000000  1.000000  1.000000  1.000000
 FoFCou: FMM=F IPFlag=           0 FMFlag=      100000 FMFlg1=           0
         NFxFlg=           0 DoJE=T BraDBF=F KetDBF=T FulRan=T
         Omega=  0.000000  0.000000  1.000000  0.000000  0.000000 ICntrl=     500 IOpCl=  0
         NMat0=    1 NMatS0=    1 NMatT0=    0 NMatD0=    1 NMtDS0=    0 NMtDT0=    0
         I1Cent=           4 NGrid=           0.
 Petite list used in FoFCou.
 Requested convergence on RMS density matrix=1.00D-08 within 128 cycles.
 Requested convergence on MAX density matrix=1.00D-06.
 Requested convergence on             energy=1.00D-06.
 No special actions if energy rises.
 Keep R1 and R2 ints in memory in canonical form, NReq=23684999.
 SCF Done:  E(UM062X) =  -151.403206197     A.U. after   11 cycles
             Convg  =    0.8999D-08             -V/T =  2.0018
 <Sx>= 0.0000 <Sy>= 0.0000 <Sz>= 1.0000 <S**2>= 2.0177 S= 1.0059
 <L.S>= 0.000000000000E+00
 Annihilation of the first spin contaminant:
 S**2 before annihilation     2.0177,   after     2.0002
 Calling FoFJK, ICntrl=      2127 FMM=F ISym2X=0 I1Cent= 0 IOpClX= 1 NMat=1 NMatS=1 NMatT=0.
 ***** Axes restored to original set *****
 -------------------------------------------------------------------
 Center     Atomic                   Forces (Hartrees/Bohr)
 Number     Number              X              Y              Z
 -------------------------------------------------------------------
      1        8          -0.056991310    0.022416906   -0.003242764
      2        8          -0.000055811    0.000217650    0.000096061
      3        1           0.070684517   -0.028040509   -0.012212885
      4        1          -0.013637395    0.005405952    0.015359589
 -------------------------------------------------------------------
 Cartesian Forces:  Max     0.070684517 RMS     0.029074542

 GradGradGradGradGradGradGradGradGradGradGradGradGradGradGradGradGradGrad
 Berny optimization.
 Using GEDIIS/GDIIS optimizer.
 Internal  Forces:  Max     0.045272725 RMS     0.022604201
 Search for a local minimum.
 Step number   7 out of a maximum of   20
 All quantities printed in internal units (Hartrees-Bohrs-Radians)
 Mixed Optimization -- En-DIIS/RFO-DIIS
 Swaping is turned off.
 Update second derivatives using D2CorX and points    4    5    6    7
 DE= -1.22D-05 DEPred=-1.80D-06 R= 6.79D+00
 SS=  1.41D+00  RLast= 7.58D-02 DXNew= 1.3660D+00 2.2732D-01
 Trust test= 6.79D+00 RLast= 7.58D-02 DXMaxT set to 8.12D-01
 The second derivative matrix:
                          R1        R2        R3        R4        A1
           R1           0.63165
           R2           0.10687   0.31769
           R3           0.03637   0.00836   0.04171
           R4          -0.07440  -0.02067  -0.00582   0.20216
           A1           0.06997  -0.03261  -0.00543   0.02277   0.20596
           A2           0.00780  -0.00098   0.00005   0.00072   0.00849
           D1          -0.00247   0.00005  -0.00020  -0.00009   0.00217
                          A2        D1
           A2           0.16060
           D1          -0.00033   0.00073
 ITU=  1  1  1  1  1  1  0
     Eigenvalues ---    0.00069   0.19479   0.642871000.000001000.00000
     Eigenvalues --- 1000.000001000.00000
 En-DIIS/RFO-DIIS IScMMF=        0 using points:     7    6    5    4
 RFO step:  Lambda=-1.13110316D-04.
 DidBck=T Rises=F RFO-DIIS coefs:    0.74307    0.37902   -0.19201    0.06992
 Iteration  1 RMS(Cart)=  0.00286595 RMS(Int)=  0.00001738
 Iteration  2 RMS(Cart)=  0.00001360 RMS(Int)=  0.00000107
 Iteration  3 RMS(Cart)=  0.00000000 RMS(Int)=  0.00000107
 Iteration  1 RMS(Cart)=  0.00000075 RMS(Int)=  0.00000302
 Variable       Old X    -DE/DX   Delta X   Delta X   Delta X     New X
                                  (DIIS)     (GDIIS)  (Total)
    R1        2.31436  -0.00001   0.00005  -0.00001   0.00004   2.31440
    R2        2.17096   0.04527   0.00000   0.00000   0.00000   2.17095
    R3        3.88992   0.01600   0.00000   0.00000   0.00000   3.88993
    R4        1.85426  -0.03432   0.00000   0.00000   0.00000   1.85426
    A1        1.96324   0.00002  -0.00018   0.00001  -0.00017   1.96307
    A2        2.61993   0.00967   0.00000   0.00001   0.00000   2.61994
    D1        1.58992   0.00001   0.01466  -0.00005   0.01461   1.60453
         Item               Value     Threshold  Converged?
 Maximum Force            0.000019     0.002500     YES
 RMS     Force            0.000013     0.001667     YES
 Maximum Displacement     0.004519     0.010000     YES
 RMS     Displacement     0.002868     0.006667     YES
 Predicted change in Energy=-1.561428D-07
 Optimization completed.
    -- Stationary point found.
                           ----------------------------
                           !   Optimized Parameters   !
                           ! (Angstroms and Degrees)  !
 --------------------------                            --------------------------
 ! Name  Definition              Value          Derivative Info.                !
 --------------------------------------------------------------------------------
 ! R1    R(1,2)                  1.2247         -DE/DX =    0.0                 !
 ! R2    R(1,3)                  1.1488         -DE/DX =    0.0453              !
 ! R3    R(1,4)                  2.0585         -DE/DX =    0.016               !
 ! R4    R(3,4)                  0.9812         -DE/DX =   -0.0343              !
 ! A1    A(2,1,3)              112.4853         -DE/DX =    0.0                 !
 ! A2    A(1,3,4)              150.1111         -DE/DX =    0.0097              !
 ! D1    D(2,1,3,4)             91.0957         -DE/DX =    0.0                 !
 --------------------------------------------------------------------------------
 GradGradGradGradGradGradGradGradGradGradGradGradGradGradGradGradGradGrad

                          Input orientation:                          
 ---------------------------------------------------------------------
 Center     Atomic      Atomic             Coordinates (Angstroms)
 Number     Number       Type             X           Y           Z
 ---------------------------------------------------------------------
      1          8           0       -0.529665    0.511660   -0.014318
      2          8           0       -1.375718   -0.372627   -0.060510
      3          1           0        0.522443    0.102416    0.198699
      4          1           0        1.382940   -0.241449   -0.123972
 ---------------------------------------------------------------------
                    Distance matrix (angstroms):
                    1          2          3          4
     1  O    0.000000
     2  O    1.224706   0.000000
     3  H    1.148820   1.973796   0.000000
     4  H    2.058460   2.762505   0.981232   0.000000
 Stoichiometry    H2O2(3)
 Framework group  C1[X(H2O2)]
 Deg. of freedom     6
 Full point group                 C1      NOp   1
 Largest Abelian subgroup         C1      NOp   1
 Largest concise Abelian subgroup C1      NOp   1
                         Standard orientation:                         
 ---------------------------------------------------------------------
 Center     Atomic      Atomic             Coordinates (Angstroms)
 Number     Number       Type             X           Y           Z
 ---------------------------------------------------------------------
      1          8           0       -0.343741   -0.368726   -0.012139
      2          8           0        0.736748    0.207721    0.000438
      3          1           0       -1.221951    0.339173    0.205607
      4          1           0       -1.922104    0.948867   -0.112000
 ---------------------------------------------------------------------
 Rotational constants (GHZ):    146.6084952     31.5432439     26.1112243

 **********************************************************************

            Population analysis using the SCF density.

 **********************************************************************

 Orbital symmetries:
 Alpha Orbitals:
       Occupied  (A) (A) (A) (A) (A) (A) (A) (A) (A) (A)
       Virtual   (A) (A) (A) (A) (A) (A) (A) (A) (A) (A) (A) (A)
                 (A) (A) (A) (A) (A) (A) (A) (A) (A) (A) (A) (A)
                 (A) (A) (A) (A) (A) (A) (A) (A) (A) (A) (A) (A)
                 (A) (A) (A) (A) (A) (A) (A) (A) (A) (A) (A) (A)
                 (A) (A) (A) (A) (A) (A) (A) (A) (A) (A) (A) (A)
                 (A) (A) (A) (A) (A) (A) (A) (A) (A) (A) (A) (A)
                 (A) (A) (A) (A)
 Beta  Orbitals:
       Occupied  (A) (A) (A) (A) (A) (A) (A) (A)
       Virtual   (A) (A) (A) (A) (A) (A) (A) (A) (A) (A) (A) (A)
                 (A) (A) (A) (A) (A) (A) (A) (A) (A) (A) (A) (A)
                 (A) (A) (A) (A) (A) (A) (A) (A) (A) (A) (A) (A)
                 (A) (A) (A) (A) (A) (A) (A) (A) (A) (A) (A) (A)
                 (A) (A) (A) (A) (A) (A) (A) (A) (A) (A) (A) (A)
                 (A) (A) (A) (A) (A) (A) (A) (A) (A) (A) (A) (A)
                 (A) (A) (A) (A) (A) (A)
 The electronic state is 3-A.
 Alpha  occ. eigenvalues --  -19.80614 -19.77406  -1.44809  -1.00719  -0.72582
 Alpha  occ. eigenvalues --   -0.67530  -0.65066  -0.46534  -0.41695  -0.35516
 Alpha virt. eigenvalues --    0.09880   0.11412   0.12913   0.16728   0.18045
 Alpha virt. eigenvalues --    0.19420   0.21441   0.23016   0.29364   0.31998
 Alpha virt. eigenvalues --    0.38450   0.50872   0.60592   0.66217   0.84444
 Alpha virt. eigenvalues --    0.87402   0.92808   0.94786   0.99170   1.02195
 Alpha virt. eigenvalues --    1.05860   1.07925   1.15665   1.26765   1.31281
 Alpha virt. eigenvalues --    1.38962   1.46597   1.55104   1.57316   1.64597
 Alpha virt. eigenvalues --    2.03462   2.15813   2.22668   2.25348   2.30020
 Alpha virt. eigenvalues --    2.45198   2.50980   2.61870   3.42921   3.60852
 Alpha virt. eigenvalues --    3.63916   3.84069   3.87543   4.40907   4.43886
 Alpha virt. eigenvalues --    4.55235   4.55765   4.70216   4.83477   4.90314
 Alpha virt. eigenvalues --    4.91555   4.92133   4.99003   5.01264   5.04029
 Alpha virt. eigenvalues --    5.10999   5.18893   5.20027   5.56396   5.63001
 Alpha virt. eigenvalues --    6.26182   6.59280   6.61407   6.63426   6.66917
 Alpha virt. eigenvalues --    6.79139   6.83180   6.86455   6.90703   7.17328
 Alpha virt. eigenvalues --    7.21928   7.49820   7.88506   7.94587  49.91960
 Alpha virt. eigenvalues --   50.01380
  Beta  occ. eigenvalues --  -19.78652 -19.75292  -1.38743  -0.92346  -0.65670
  Beta  occ. eigenvalues --   -0.58817  -0.55048  -0.36959
  Beta virt. eigenvalues --   -0.11091  -0.08110   0.09523   0.11332   0.12385
  Beta virt. eigenvalues --    0.16026   0.16859   0.18997   0.21523   0.22996
  Beta virt. eigenvalues --    0.30580   0.32653   0.37754   0.50974   0.60928
  Beta virt. eigenvalues --    0.66340   0.84443   0.87816   0.93494   0.96697
  Beta virt. eigenvalues --    1.02794   1.03253   1.08903   1.09269   1.15997
  Beta virt. eigenvalues --    1.28283   1.34280   1.40543   1.48029   1.56667
  Beta virt. eigenvalues --    1.60527   1.66262   2.03799   2.17197   2.24057
  Beta virt. eigenvalues --    2.27267   2.34783   2.48916   2.51947   2.57693
  Beta virt. eigenvalues --    3.40923   3.61380   3.64499   3.84274   3.87966
  Beta virt. eigenvalues --    4.40871   4.47273   4.57295   4.57516   4.71515
  Beta virt. eigenvalues --    4.85005   4.92823   4.94226   4.97254   5.01623
  Beta virt. eigenvalues --    5.05053   5.05946   5.13728   5.20816   5.22052
  Beta virt. eigenvalues --    5.57807   5.64398   6.25972   6.65240   6.68543
  Beta virt. eigenvalues --    6.70382   6.74687   6.85961   6.86845   6.91419
  Beta virt. eigenvalues --    6.97826   7.20717   7.24483   7.51691   7.89315
  Beta virt. eigenvalues --    7.96696  49.90823  50.00173
          Condensed to atoms (all electrons):
              1          2          3          4
     1  O    7.828599   0.257403  -0.045750  -0.152927
     2  O    0.257403   7.824574  -0.014796   0.012673
     3  H   -0.045750  -0.014796   0.631807   0.396234
     4  H   -0.152927   0.012673   0.396234   0.809346
 Mulliken atomic charges:
              1
     1  O    0.112675
     2  O   -0.079854
     3  H    0.032505
     4  H   -0.065326
 Sum of Mulliken atomic charges =   0.00000
 Mulliken charges with hydrogens summed into heavy atoms:
              1
     1  O    0.079854
     2  O   -0.079854
 Sum of Mulliken charges with hydrogens summed into heavy atoms =   0.00000
          Atomic-Atomic Spin Densities.
              1          2          3          4
     1  O    1.120200  -0.335150   0.009872  -0.089385
     2  O   -0.335150   1.197099   0.019888   0.033679
     3  H    0.009872   0.019888  -0.109563   0.059615
     4  H   -0.089385   0.033679   0.059615   0.395224
 Mulliken atomic spin densities:
              1
     1  O    0.705537
     2  O    0.915517
     3  H   -0.020188
     4  H    0.399134
 Sum of Mulliken atomic spin densities =   2.00000
 Electronic spatial extent (au):  <R**2>=             75.0198
 Charge=              0.0000 electrons
 Dipole moment (field-independent basis, Debye):
    X=             -0.2202    Y=             -0.1811    Z=              0.1319  Tot=              0.3141
 Quadrupole moment (field-independent basis, Debye-Ang):
   XX=            -13.4062   YY=            -12.9765   ZZ=            -12.1782
   XY=              0.2806   XZ=             -0.0459   YZ=             -0.0941
 Traceless Quadrupole moment (field-independent basis, Debye-Ang):
   XX=             -0.5526   YY=             -0.1229   ZZ=              0.6755
   XY=              0.2806   XZ=             -0.0459   YZ=             -0.0941
 Octapole moment (field-independent basis, Debye-Ang**2):
  XXX=              6.0388  YYY=             -2.6594  ZZZ=              0.0730  XYY=              1.9360
  XXY=             -1.6048  XXZ=             -0.1579  XZZ=              1.6390  YZZ=             -0.7707
  YYZ=             -0.1255  XYZ=              0.1891
 Hexadecapole moment (field-independent basis, Debye-Ang**3):
 XXXX=            -71.7881 YYYY=            -24.0615 ZZZZ=             -9.9189 XXXY=              6.1212
 XXXZ=              0.6342 YYYX=              4.2644 YYYZ=             -0.1053 ZZZX=             -0.1040
 ZZZY=              0.0142 XXYY=            -15.7198 XXZZ=            -13.1648 YYZZ=             -5.6659
 XXYZ=             -0.4728 YYXZ=              0.2014 ZZXY=              1.4456
 N-N= 3.761162025226D+01 E-N=-6.366710046310D+02  KE= 2.236701881317D+02
                          Isotropic Fermi Contact Couplings
        Atom                 a.u.       MegaHertz       Gauss      10(-4) cm-1
     1  O(17)              0.13539     -41.03565     -14.64254     -13.68802
     2  O(17)              0.15271     -46.28527     -16.51573     -15.43910
     3  H(1)              -0.04169     -93.16590     -33.24391     -31.07680
     4  H(1)               0.14154     316.33402     112.87584     105.51767
 --------------------------------------------------------
       Center         ----  Spin Dipole Couplings  ----
                      3XX-RR        3YY-RR        3ZZ-RR
 --------------------------------------------------------
     1   Atom       -1.238918      0.253449      0.985469
     2   Atom       -1.544734     -0.648024      2.192758
     3   Atom        0.125839     -0.004794     -0.121045
     4   Atom        0.013107     -0.003316     -0.009791
 --------------------------------------------------------
                        XY            XZ            YZ
 --------------------------------------------------------
     1   Atom       -1.430537      0.074226     -0.153466
     2   Atom       -1.027567      0.065021     -0.223459
     3   Atom       -0.195280     -0.016872      0.005209
     4   Atom       -0.010788     -0.000375      0.000730
 --------------------------------------------------------


 ---------------------------------------------------------------------------------
              Anisotropic Spin Dipole Couplings in Principal Axis System
 ---------------------------------------------------------------------------------

       Atom             a.u.   MegaHertz   Gauss  10(-4) cm-1        Axes

              Baa    -2.1063   152.408    54.383    50.838  0.8550  0.5186  0.0052
     1 O(17)  Bbb     0.8705   -62.986   -22.475   -21.010 -0.2948  0.4776  0.8276
              Bcc     1.2358   -89.422   -31.908   -29.828 -0.4268  0.7091 -0.5613
 
              Baa    -2.2186   160.533    57.282    53.548  0.8357  0.5490  0.0155
     2 O(17)  Bbb     0.0022    -0.156    -0.056    -0.052 -0.5475  0.8307  0.1010
              Bcc     2.2164  -160.377   -57.227   -53.496  0.0426 -0.0929  0.9948
 
              Baa    -0.1467   -78.252   -27.922   -26.102  0.5772  0.7864  0.2202
     3 H(1)   Bbb    -0.1205   -64.291   -22.940   -21.445 -0.0946 -0.2035  0.9745
              Bcc     0.2672   142.543    50.863    47.547  0.8111 -0.5833 -0.0431
 
              Baa    -0.0100    -5.328    -1.901    -1.777 -0.1338 -0.3191  0.9382
     4 H(1)   Bbb    -0.0085    -4.526    -1.615    -1.510  0.4243  0.8371  0.3452
              Bcc     0.0185     9.854     3.516     3.287  0.8956 -0.4443 -0.0234
 

 ---------------------------------------------------------------------------------

 1\1\GINC-COMPUTE-3-043\FOpt\UM062X\6-311+G(2df,2p)\H2O2(3)\ROOT\30-Jul
 -2017\0\\# m062x/6-311+g(2df,2p) Opt=(ModRedun,Loose) Int(Grid=SG1)\\[
 H]+[O]O_[H][H]+[O][O]\\0,3\O,-0.529664784,0.5116601145,-0.0143179183\O
 ,-1.3757184315,-0.3726273244,-0.0605095545\H,0.5224428847,0.1024164204
 ,0.1986994719\H,1.3829403309,-0.2414492105,-0.1239719991\\Version=EM64
 L-G09RevB.01\State=3-A\HF=-151.4032062\S2=2.01772\S2-1=0.\S2A=2.000156
 \RMSD=8.999e-09\RMSF=2.907e-02\Dipole=0.0591799,0.0919143,0.0576305\Qu
 adrupole=-0.5036139,-0.0053937,0.5090077,0.0718436,-0.0011636,0.051916
 4\PG=C01 [X(H2O2)]\\@


 ABSOLUTISM, OBSOLETISM -- IF IT WORKS, IT'S OUT OF DATE

                          -- STAFFORD BEER
 Job cpu time:  0 days  0 hours 44 minutes 24.7 seconds.
 File lengths (MBytes):  RWF=   1216 Int=      0 D2E=      0 Chk=     32 Scr=     32
 Normal termination of Gaussian 09 at Sun Jul 30 15:42:05 2017.
