 Entering Gaussian System, Link 0=/shared/apps/gaussian/G09_LINUX_LINDA/g09/g09
 Input=/gss_gpfs_scratch/harms.n/QMscratch/[H]+[O]O_[H][H]+[O][O]RxnC.gjf
 Output=/gss_gpfs_scratch/harms.n/QMscratch/[H]+[O]O_[H][H]+[O][O]RxnC.log
 Initial command:
 /shared/apps/gaussian/G09_LINUX_LINDA/g09/l1.exe /gss_gpfs_scratch/harms.n/comparerTST/Gau-5197.inp -scrdir=/gss_gpfs_scratch/harms.n/comparerTST/
 Entering Link 1 = /shared/apps/gaussian/G09_LINUX_LINDA/g09/l1.exe PID=      5202.
  
 Copyright (c) 1988,1990,1992,1993,1995,1998,2003,2009,2010,
            Gaussian, Inc.  All Rights Reserved.
  
 This is part of the Gaussian(R) 09 program.  It is based on
 the Gaussian(R) 03 system (copyright 2003, Gaussian, Inc.),
 the Gaussian(R) 98 system (copyright 1998, Gaussian, Inc.),
 the Gaussian(R) 94 system (copyright 1995, Gaussian, Inc.),
 the Gaussian 92(TM) system (copyright 1992, Gaussian, Inc.),
 the Gaussian 90(TM) system (copyright 1990, Gaussian, Inc.),
 the Gaussian 88(TM) system (copyright 1988, Gaussian, Inc.),
 the Gaussian 86(TM) system (copyright 1986, Carnegie Mellon
 University), and the Gaussian 82(TM) system (copyright 1983,
 Carnegie Mellon University). Gaussian is a federally registered
 trademark of Gaussian, Inc.
  
 This software contains proprietary and confidential information,
 including trade secrets, belonging to Gaussian, Inc.
  
 This software is provided under written license and may be
 used, copied, transmitted, or stored only in accord with that
 written license.
  
 The following legend is applicable only to US Government
 contracts under FAR:
  
                    RESTRICTED RIGHTS LEGEND
  
 Use, reproduction and disclosure by the US Government is
 subject to restrictions as set forth in subparagraphs (a)
 and (c) of the Commercial Computer Software - Restricted
 Rights clause in FAR 52.227-19.
  
 Gaussian, Inc.
 340 Quinnipiac St., Bldg. 40, Wallingford CT 06492
  
  
 ---------------------------------------------------------------
 Warning -- This program may not be used in any manner that
 competes with the business of Gaussian, Inc. or will provide
 assistance to any competitor of Gaussian, Inc.  The licensee
 of this program is prohibited from giving any competitor of
 Gaussian, Inc. access to this program.  By using this program,
 the user acknowledges that Gaussian, Inc. is engaged in the
 business of creating and licensing software in the field of
 computational chemistry and represents and warrants to the
 licensee that it is not a competitor of Gaussian, Inc. and that
 it will not use this program in any manner prohibited above.
 ---------------------------------------------------------------
  

 Cite this work as:
 Gaussian 09, Revision B.01,
 M. J. Frisch, G. W. Trucks, H. B. Schlegel, G. E. Scuseria, 
 M. A. Robb, J. R. Cheeseman, G. Scalmani, V. Barone, B. Mennucci, 
 G. A. Petersson, H. Nakatsuji, M. Caricato, X. Li, H. P. Hratchian, 
 A. F. Izmaylov, J. Bloino, G. Zheng, J. L. Sonnenberg, M. Hada, 
 M. Ehara, K. Toyota, R. Fukuda, J. Hasegawa, M. Ishida, T. Nakajima, 
 Y. Honda, O. Kitao, H. Nakai, T. Vreven, J. A. Montgomery, Jr., 
 J. E. Peralta, F. Ogliaro, M. Bearpark, J. J. Heyd, E. Brothers, 
 K. N. Kudin, V. N. Staroverov, T. Keith, R. Kobayashi, J. Normand, 
 K. Raghavachari, A. Rendell, J. C. Burant, S. S. Iyengar, J. Tomasi, 
 M. Cossi, N. Rega, J. M. Millam, M. Klene, J. E. Knox, J. B. Cross, 
 V. Bakken, C. Adamo, J. Jaramillo, R. Gomperts, R. E. Stratmann, 
 O. Yazyev, A. J. Austin, R. Cammi, C. Pomelli, J. W. Ochterski, 
 R. L. Martin, K. Morokuma, V. G. Zakrzewski, G. A. Voth, 
 P. Salvador, J. J. Dannenberg, S. Dapprich, A. D. Daniels, 
 O. Farkas, J. B. Foresman, J. V. Ortiz, J. Cioslowski, 
 and D. J. Fox, Gaussian, Inc., Wallingford CT, 2010.
 
 ******************************************
 Gaussian 09:  EM64L-G09RevB.01 12-Aug-2010
                30-Jul-2017 
 ******************************************
 %nprocshared=20
 Will use up to   20 processors via shared memory.
 %mem=5GB
 ---------------------------------------------------
 # m062x/6-311+g(2df,2p) opt=(ts,calcfc,noeigentest)
 ---------------------------------------------------
 1/5=1,10=4,11=1,14=-1,18=20,26=3,38=1/1,3;
 2/9=110,12=2,17=6,18=5,40=1/2;
 3/5=4,6=6,7=214,11=2,16=1,25=1,30=1,71=2,74=-55/1,2,3;
 4//1;
 5/5=2,38=5/2;
 8/6=4,10=90,11=11/1;
 11/6=1,8=1,9=11,15=111,16=1/1,2,10;
 10/6=1,7=6,13=1/2;
 6/7=2,8=2,9=2,10=2,28=1/1;
 7/10=1,18=20,25=1/1,2,3,16;
 1/5=1,10=4,11=1,14=-1,18=20/3(2);
 2/9=110/2;
 99//99;
 2/9=110/2;
 3/5=4,6=6,7=214,11=2,16=1,25=1,30=1,71=1,74=-55/1,2,3;
 4/5=5,16=3/1;
 5/5=2,38=5/2;
 7//1,2,3,16;
 1/5=1,11=1,14=-1,18=20/3(-5);
 2/9=110/2;
 6/7=2,8=2,9=2,10=2,19=2,28=1/1;
 99/9=1/99;
 ----------------------
 [H]+[O]O_[H][H]+[O][O]
 ----------------------
 Symbolic Z-matrix:
 Charge =  0 Multiplicity = 3
 O                    -0.34374  -0.36873  -0.01214 
 O                     0.73675   0.20772   0.00044 
 H                    -1.22195   0.33917   0.20561 
 H                    -1.9221    0.94887  -0.112 
 

 GradGradGradGradGradGradGradGradGradGradGradGradGradGradGradGradGradGrad
 Berny optimization.
 Initialization pass.
                           ----------------------------
                           !    Initial Parameters    !
                           ! (Angstroms and Degrees)  !
 --------------------------                            --------------------------
 ! Name  Definition              Value          Derivative Info.                !
 --------------------------------------------------------------------------------
 ! R1    R(1,2)                  1.2247         calculate D2E/DX2 analytically  !
 ! R2    R(1,3)                  1.1488         calculate D2E/DX2 analytically  !
 ! R3    R(3,4)                  0.9812         calculate D2E/DX2 analytically  !
 ! A1    A(2,1,3)              112.4854         calculate D2E/DX2 analytically  !
 ! A2    A(1,3,4)              150.1111         calculate D2E/DX2 analytically  !
 ! D1    D(2,1,3,4)             91.0956         calculate D2E/DX2 analytically  !
 --------------------------------------------------------------------------------
 Trust Radius=3.00D-01 FncErr=1.00D-07 GrdErr=1.00D-06
 Number of steps in this run=     20 maximum allowed number of steps=    100.
 Search for a saddle point of order  1.
 GradGradGradGradGradGradGradGradGradGradGradGradGradGradGradGradGradGrad

                          Input orientation:                          
 ---------------------------------------------------------------------
 Center     Atomic      Atomic             Coordinates (Angstroms)
 Number     Number       Type             X           Y           Z
 ---------------------------------------------------------------------
      1          8           0       -0.343741   -0.368726   -0.012139
      2          8           0        0.736748    0.207721    0.000438
      3          1           0       -1.221951    0.339173    0.205607
      4          1           0       -1.922104    0.948867   -0.112000
 ---------------------------------------------------------------------
                    Distance matrix (angstroms):
                    1          2          3          4
     1  O    0.000000
     2  O    1.224706   0.000000
     3  H    1.148820   1.973797   0.000000
     4  H    2.058459   2.762505   0.981231   0.000000
 Stoichiometry    H2O2(3)
 Framework group  C1[X(H2O2)]
 Deg. of freedom     6
 Full point group                 C1      NOp   1
 Largest Abelian subgroup         C1      NOp   1
 Largest concise Abelian subgroup C1      NOp   1
                         Standard orientation:                         
 ---------------------------------------------------------------------
 Center     Atomic      Atomic             Coordinates (Angstroms)
 Number     Number       Type             X           Y           Z
 ---------------------------------------------------------------------
      1          8           0       -0.343741   -0.368726   -0.012139
      2          8           0        0.736748    0.207721    0.000438
      3          1           0       -1.221951    0.339173    0.205607
      4          1           0       -1.922104    0.948867   -0.112000
 ---------------------------------------------------------------------
 Rotational constants (GHZ):    146.6086328     31.5432208     26.1112127
 Standard basis: 6-311+G(2df,2p) (5D, 7F)
 There are    86 symmetry adapted basis functions of A   symmetry.
 Integral buffers will be    131072 words long.
 Raffenetti 2 integral format.
 Two-electron integral symmetry is turned on.
    86 basis functions,   126 primitive gaussians,    96 cartesian basis functions
    10 alpha electrons        8 beta electrons
       nuclear repulsion energy        37.6116105403 Hartrees.
 NAtoms=    4 NActive=    4 NUniq=    4 SFac= 1.00D+00 NAtFMM=   50 NAOKFM=F Big=F
 One-electron integrals computed using PRISM.
 NBasis=    86 RedAO= T  NBF=    86
 NBsUse=    86 1.00D-06 NBFU=    86
 Harris functional with IExCor= 1009 diagonalized for initial guess.
 ExpMin= 8.45D-02 ExpMax= 8.59D+03 ExpMxC= 1.30D+03 IAcc=2 IRadAn=         0 AccDes= 0.00D+00
 HarFok:  IExCor= 1009 AccDes= 0.00D+00 IRadAn=         0 IDoV= 1
 ScaDFX=  1.000000  1.000000  1.000000  1.000000
 FoFCou: FMM=F IPFlag=           0 FMFlag=      100000 FMFlg1=           0
         NFxFlg=           0 DoJE=T BraDBF=F KetDBF=T FulRan=T
         Omega=  0.000000  0.000000  1.000000  0.000000  0.000000 ICntrl=     500 IOpCl=  0
         NMat0=    1 NMatS0=    1 NMatT0=    0 NMatD0=    1 NMtDS0=    0 NMtDT0=    0
         I1Cent=           4 NGrid=           0.
 Petite list used in FoFCou.
 Initial guess orbital symmetries:
 Alpha Orbitals:
       Occupied  (A) (A) (A) (A) (A) (A) (A) (A) (A) (A)
       Virtual   (A) (A) (A) (A) (A) (A) (A) (A) (A) (A) (A) (A)
                 (A) (A) (A) (A) (A) (A) (A) (A) (A) (A) (A) (A)
                 (A) (A) (A) (A) (A) (A) (A) (A) (A) (A) (A) (A)
                 (A) (A) (A) (A) (A) (A) (A) (A) (A) (A) (A) (A)
                 (A) (A) (A) (A) (A) (A) (A) (A) (A) (A) (A) (A)
                 (A) (A) (A) (A) (A) (A) (A) (A) (A) (A) (A) (A)
                 (A) (A) (A) (A)
 Beta  Orbitals:
       Occupied  (A) (A) (A) (A) (A) (A) (A) (A)
       Virtual   (A) (A) (A) (A) (A) (A) (A) (A) (A) (A) (A) (A)
                 (A) (A) (A) (A) (A) (A) (A) (A) (A) (A) (A) (A)
                 (A) (A) (A) (A) (A) (A) (A) (A) (A) (A) (A) (A)
                 (A) (A) (A) (A) (A) (A) (A) (A) (A) (A) (A) (A)
                 (A) (A) (A) (A) (A) (A) (A) (A) (A) (A) (A) (A)
                 (A) (A) (A) (A) (A) (A) (A) (A) (A) (A) (A) (A)
                 (A) (A) (A) (A) (A) (A)
 The electronic state of the initial guess is 3-A.
 Initial guess <Sx>= 0.0000 <Sy>= 0.0000 <Sz>= 1.0000 <S**2>= 2.0000 S= 1.0000
 Requested convergence on RMS density matrix=1.00D-08 within 128 cycles.
 Requested convergence on MAX density matrix=1.00D-06.
 Requested convergence on             energy=1.00D-06.
 No special actions if energy rises.
 Keep R1 and R2 ints in memory in canonical form, NReq=23705193.
 Integral accuracy reduced to 1.0D-05 until final iterations.
 Initial convergence to 1.0D-05 achieved.  Increase integral accuracy.
 SCF Done:  E(UM062X) =  -151.403223725     A.U. after   20 cycles
             Convg  =    0.2564D-08             -V/T =  2.0018
 <Sx>= 0.0000 <Sy>= 0.0000 <Sz>= 1.0000 <S**2>= 2.0177 S= 1.0059
 <L.S>= 0.000000000000E+00
 Annihilation of the first spin contaminant:
 S**2 before annihilation     2.0177,   after     2.0002
 Range of M.O.s used for correlation:     1    86
 NBasis=    86 NAE=    10 NBE=     8 NFC=     0 NFV=     0
 NROrb=     86 NOA=    10 NOB=     8 NVA=    76 NVB=    78

 **** Warning!!: The largest alpha MO coefficient is  0.16825748D+02


 **** Warning!!: The largest beta MO coefficient is  0.16189595D+02

 Symmetrizing basis deriv contribution to polar:
 IMax=3 JMax=2 DiffMx= 0.00D+00
 G2DrvN: will do     5 centers at a time, making    1 passes doing MaxLOS=3.
 Calling FoFCou, ICntrl=  3107 FMM=F I1Cent=   0 AccDes= 0.00D+00.
 FoFDir/FoFCou used for L=0 through L=3.
 End of G2Drv Frequency-dependent properties file   721 does not exist.
 End of G2Drv Frequency-dependent properties file   722 does not exist.
          IDoAtm=1111
          Differentiating once with respect to nuclear coordinates.
          Keep R1 and R2 ints in memory in canonical form, NReq=23624677.
          There are    15 degrees of freedom in the 1st order CPHF.  IDoFFX=5.
      9 vectors produced by pass  0 Test12= 9.23D-11 6.67D-07 XBig12= 3.11D-01 3.32D-01.
 AX will form     9 AO Fock derivatives at one time.
      9 vectors produced by pass  1 Test12= 9.23D-11 6.67D-07 XBig12= 3.39D-02 9.92D-02.
      9 vectors produced by pass  2 Test12= 9.23D-11 6.67D-07 XBig12= 3.58D-03 2.08D-02.
      9 vectors produced by pass  3 Test12= 9.23D-11 6.67D-07 XBig12= 9.26D-05 2.17D-03.
      9 vectors produced by pass  4 Test12= 9.23D-11 6.67D-07 XBig12= 1.96D-06 3.14D-04.
      8 vectors produced by pass  5 Test12= 9.23D-11 6.67D-07 XBig12= 3.19D-08 3.35D-05.
      4 vectors produced by pass  6 Test12= 9.23D-11 6.67D-07 XBig12= 3.84D-10 4.25D-06.
 Inverted reduced A of dimension    57 with in-core refinement.
 End of Minotr Frequency-dependent properties file   721 does not exist.
 End of Minotr Frequency-dependent properties file   722 does not exist.

 **********************************************************************

            Population analysis using the SCF density.

 **********************************************************************

 Orbital symmetries:
 Alpha Orbitals:
       Occupied  (A) (A) (A) (A) (A) (A) (A) (A) (A) (A)
       Virtual   (A) (A) (A) (A) (A) (A) (A) (A) (A) (A) (A) (A)
                 (A) (A) (A) (A) (A) (A) (A) (A) (A) (A) (A) (A)
                 (A) (A) (A) (A) (A) (A) (A) (A) (A) (A) (A) (A)
                 (A) (A) (A) (A) (A) (A) (A) (A) (A) (A) (A) (A)
                 (A) (A) (A) (A) (A) (A) (A) (A) (A) (A) (A) (A)
                 (A) (A) (A) (A) (A) (A) (A) (A) (A) (A) (A) (A)
                 (A) (A) (A) (A)
 Beta  Orbitals:
       Occupied  (A) (A) (A) (A) (A) (A) (A) (A)
       Virtual   (A) (A) (A) (A) (A) (A) (A) (A) (A) (A) (A) (A)
                 (A) (A) (A) (A) (A) (A) (A) (A) (A) (A) (A) (A)
                 (A) (A) (A) (A) (A) (A) (A) (A) (A) (A) (A) (A)
                 (A) (A) (A) (A) (A) (A) (A) (A) (A) (A) (A) (A)
                 (A) (A) (A) (A) (A) (A) (A) (A) (A) (A) (A) (A)
                 (A) (A) (A) (A) (A) (A) (A) (A) (A) (A) (A) (A)
                 (A) (A) (A) (A) (A) (A)
 The electronic state is 3-A.
 Alpha  occ. eigenvalues --  -19.80609 -19.77415  -1.44803  -1.00714  -0.72581
 Alpha  occ. eigenvalues --   -0.67515  -0.65069  -0.46527  -0.41693  -0.35509
 Alpha virt. eigenvalues --    0.09876   0.11409   0.12912   0.16722   0.18026
 Alpha virt. eigenvalues --    0.19413   0.21454   0.23026   0.29357   0.32010
 Alpha virt. eigenvalues --    0.38454   0.50882   0.60598   0.66219   0.84439
 Alpha virt. eigenvalues --    0.87399   0.92806   0.94780   0.99183   1.02184
 Alpha virt. eigenvalues --    1.05866   1.07926   1.15660   1.26793   1.31309
 Alpha virt. eigenvalues --    1.38998   1.46617   1.55130   1.57301   1.64609
 Alpha virt. eigenvalues --    2.03430   2.15810   2.22660   2.25366   2.30013
 Alpha virt. eigenvalues --    2.45208   2.50958   2.61879   3.42945   3.60889
 Alpha virt. eigenvalues --    3.63889   3.84093   3.87562   4.40908   4.43830
 Alpha virt. eigenvalues --    4.55218   4.55783   4.70222   4.83460   4.90279
 Alpha virt. eigenvalues --    4.91532   4.92105   4.98967   5.01240   5.04033
 Alpha virt. eigenvalues --    5.10989   5.18892   5.20015   5.56354   5.62954
 Alpha virt. eigenvalues --    6.26196   6.59277   6.61431   6.63429   6.66879
 Alpha virt. eigenvalues --    6.79143   6.83155   6.86464   6.90727   7.17330
 Alpha virt. eigenvalues --    7.21846   7.49804   7.88550   7.94577  49.91949
 Alpha virt. eigenvalues --   50.01371
  Beta  occ. eigenvalues --  -19.78631 -19.75292  -1.38753  -0.92356  -0.65676
  Beta  occ. eigenvalues --   -0.58821  -0.55057  -0.36964
  Beta virt. eigenvalues --   -0.11095  -0.08115   0.09518   0.11326   0.12382
  Beta virt. eigenvalues --    0.16015   0.16844   0.18992   0.21523   0.22998
  Beta virt. eigenvalues --    0.30578   0.32648   0.37762   0.51007   0.60950
  Beta virt. eigenvalues --    0.66338   0.84454   0.87817   0.93501   0.96703
  Beta virt. eigenvalues --    1.02793   1.03261   1.08910   1.09271   1.15993
  Beta virt. eigenvalues --    1.28279   1.34270   1.40556   1.48030   1.56661
  Beta virt. eigenvalues --    1.60525   1.66271   2.03808   2.17177   2.24055
  Beta virt. eigenvalues --    2.27286   2.34831   2.49034   2.52010   2.57819
  Beta virt. eigenvalues --    3.41209   3.61618   3.64487   3.84586   3.87986
  Beta virt. eigenvalues --    4.41250   4.47278   4.57338   4.57534   4.71589
  Beta virt. eigenvalues --    4.85057   4.92825   4.94214   4.97258   5.01633
  Beta virt. eigenvalues --    5.05042   5.05965   5.13739   5.20812   5.22116
  Beta virt. eigenvalues --    5.57842   5.64404   6.26289   6.65217   6.68547
  Beta virt. eigenvalues --    6.70388   6.74712   6.85916   6.86857   6.91436
  Beta virt. eigenvalues --    6.97868   7.20721   7.24573   7.51740   7.89434
  Beta virt. eigenvalues --    7.96678  49.90814  50.00189
          Condensed to atoms (all electrons):
              1          2          3          4
     1  O    7.828562   0.257008  -0.045285  -0.152821
     2  O    0.257008   7.824876  -0.014612   0.012743
     3  H   -0.045285  -0.014612   0.630953   0.396034
     4  H   -0.152821   0.012743   0.396034   0.809473
 Mulliken atomic charges:
              1
     1  O    0.112536
     2  O   -0.080016
     3  H    0.032910
     4  H   -0.065430
 Sum of Mulliken atomic charges =   0.00000
 Mulliken charges with hydrogens summed into heavy atoms:
              1
     1  O    0.080016
     2  O   -0.080016
 Sum of Mulliken charges with hydrogens summed into heavy atoms =   0.00000
          Atomic-Atomic Spin Densities.
              1          2          3          4
     1  O    1.119057  -0.334977   0.010231  -0.089260
     2  O   -0.334977   1.197742   0.019646   0.033641
     3  H    0.010231   0.019646  -0.109583   0.059438
     4  H   -0.089260   0.033641   0.059438   0.395346
 Mulliken atomic spin densities:
              1
     1  O    0.705051
     2  O    0.916052
     3  H   -0.020268
     4  H    0.399165
 Sum of Mulliken atomic spin densities =   2.00000
 APT atomic charges:
              1
     1  O    0.172319
     2  O   -0.077766
     3  H   -0.248303
     4  H    0.153750
 Sum of APT charges=   0.00000
 APT Atomic charges with hydrogens summed into heavy atoms:
              1
     1  O    0.077766
     2  O   -0.077766
     3  H    0.000000
     4  H    0.000000
 Sum of APT charges=   0.00000
 Electronic spatial extent (au):  <R**2>=             75.0212
 Charge=              0.0000 electrons
 Dipole moment (field-independent basis, Debye):
    X=             -0.2182    Y=             -0.1820    Z=              0.1310  Tot=              0.3129
 Quadrupole moment (field-independent basis, Debye-Ang):
   XX=            -13.4070   YY=            -12.9778   ZZ=            -12.1780
   XY=              0.2817   XZ=             -0.0440   YZ=             -0.0948
 Traceless Quadrupole moment (field-independent basis, Debye-Ang):
   XX=             -0.5527   YY=             -0.1235   ZZ=              0.6762
   XY=              0.2817   XZ=             -0.0440   YZ=             -0.0948
 Octapole moment (field-independent basis, Debye-Ang**2):
  XXX=              6.0434  YYY=             -2.6609  ZZZ=              0.0730  XYY=              1.9381
  XXY=             -1.6079  XXZ=             -0.1611  XZZ=              1.6398  YZZ=             -0.7709
  YYZ=             -0.1261  XYZ=              0.1904
 Hexadecapole moment (field-independent basis, Debye-Ang**3):
 XXXX=            -71.7951 YYYY=            -24.0655 ZZZZ=             -9.9190 XXXY=              6.1269
 XXXZ=              0.6402 YYYX=              4.2666 YYYZ=             -0.1060 ZZZX=             -0.1035
 ZZZY=              0.0138 XXYY=            -15.7233 XXZZ=            -13.1646 YYZZ=             -5.6665
 XXYZ=             -0.4752 YYXZ=              0.2026 ZZXY=              1.4457
 N-N= 3.761161054031D+01 E-N=-6.366734177682D+02  KE= 2.236720894571D+02
  Exact polarizability:   0.000   0.000   0.000   0.000   0.000   0.000
 Approx polarizability:  44.146  -6.339  17.842   1.197  -0.888  11.277
                          Isotropic Fermi Contact Couplings
        Atom                 a.u.       MegaHertz       Gauss      10(-4) cm-1
     1  O(17)              0.12914     -39.14224     -13.96692     -13.05645
     2  O(17)              0.15207     -46.09274     -16.44704     -15.37488
     3  H(1)              -0.04164     -93.05864     -33.20564     -31.04102
     4  H(1)               0.14155     316.36531     112.88701     105.52811
 --------------------------------------------------------
       Center         ----  Spin Dipole Couplings  ----
                      3XX-RR        3YY-RR        3ZZ-RR
 --------------------------------------------------------
     1   Atom       -1.239123      0.255817      0.983306
     2   Atom       -1.544811     -0.648335      2.193146
     3   Atom        0.125766     -0.004834     -0.120932
     4   Atom        0.013163     -0.003304     -0.009859
 --------------------------------------------------------
                        XY            XZ            YZ
 --------------------------------------------------------
     1   Atom       -1.429066      0.073963     -0.152984
     2   Atom       -1.026141      0.065369     -0.223466
     3   Atom       -0.195151     -0.016832      0.005153
     4   Atom       -0.010827     -0.000427      0.000780
 --------------------------------------------------------


 ---------------------------------------------------------------------------------
              Anisotropic Spin Dipole Couplings in Principal Axis System
 ---------------------------------------------------------------------------------

       Atom             a.u.   MegaHertz   Gauss  10(-4) cm-1        Axes

              Baa    -2.1045   152.279    54.337    50.795  0.8553  0.5182  0.0052
     1 O(17)  Bbb     0.8696   -62.923   -22.453   -20.989 -0.2929  0.4751  0.8297
              Bcc     1.2349   -89.355   -31.884   -29.806 -0.4275  0.7112 -0.5581
 
              Baa    -2.2174   160.448    57.252    53.520  0.8358  0.5488  0.0154
     2 O(17)  Bbb     0.0006    -0.042    -0.015    -0.014 -0.5474  0.8308  0.1010
              Bcc     2.2168  -160.406   -57.237   -53.506  0.0426 -0.0928  0.9948
 
              Baa    -0.1466   -78.218   -27.910   -26.091  0.5771  0.7864  0.2206
     3 H(1)   Bbb    -0.1204   -64.224   -22.917   -21.423 -0.0949 -0.2037  0.9744
              Bcc     0.2670   142.442    50.827    47.514  0.8112 -0.5832 -0.0429
 
              Baa    -0.0101    -5.370    -1.916    -1.791 -0.1311 -0.3183  0.9389
     4 H(1)   Bbb    -0.0085    -4.528    -1.616    -1.510  0.4255  0.8373  0.3433
              Bcc     0.0186     9.898     3.532     3.301  0.8954 -0.4445 -0.0257
 

 ---------------------------------------------------------------------------------

 Calling FoFJK, ICntrl=    100147 FMM=F ISym2X=0 I1Cent= 0 IOpClX= 1 NMat=1 NMatS=1 NMatT=0.
 ***** Axes restored to original set *****
 -------------------------------------------------------------------
 Center     Atomic                   Forces (Hartrees/Bohr)
 Number     Number              X              Y              Z
 -------------------------------------------------------------------
      1        8           0.047695546   -0.039263934   -0.003501889
      2        8          -0.000522221    0.000214893    0.000020615
      3        1          -0.057990086    0.049110830   -0.011795234
      4        1           0.010816760   -0.010061790    0.015276508
 -------------------------------------------------------------------
 Cartesian Forces:  Max     0.057990086 RMS     0.029146997

 GradGradGradGradGradGradGradGradGradGradGradGradGradGradGradGradGradGrad
 Berny optimization.
 Internal  Forces:  Max     0.060789302 RMS     0.026996669
 Search for a saddle point.
 Step number   1 out of a maximum of   20
 All quantities printed in internal units (Hartrees-Bohrs-Radians)
 Swaping is turned off.
 Second derivative matrix not updated -- analytic derivatives used.
 The second derivative matrix:
                          R1        R2        R3        A1        A2
           R1           0.65999
           R2           0.13414   0.03954
           R3          -0.03890   0.13684   0.06893
           A1           0.04575  -0.01773   0.00523   0.16271
           A2           0.01745   0.00592   0.01527  -0.00203   0.03861
           D1          -0.00281  -0.00021  -0.00032   0.00280  -0.00047
                          D1
           D1           0.00076
 ITU=  0
     Eigenvalues ---   -0.10711   0.00070   0.03733   0.15666   0.19131
     Eigenvalues ---    0.69164
 Eigenvectors required to have negative eigenvalues:
                          R2        R3        R1        A1        A2
   1                    0.75099  -0.62896  -0.16995   0.09083   0.05699
                          D1
   1                   -0.00692
 RFO step:  Lambda0=2.578621696D-02 Lambda=-6.78759270D-03.
 Linear search not attempted -- option 19 set.
 Maximum step size (   0.300) exceeded in Quadratic search.
    -- Step size scaled by   0.562
 Iteration  1 RMS(Cart)=  0.08261503 RMS(Int)=  0.01349906
 Iteration  2 RMS(Cart)=  0.00609845 RMS(Int)=  0.00016969
 Iteration  3 RMS(Cart)=  0.00013314 RMS(Int)=  0.00000008
 Iteration  4 RMS(Cart)=  0.00000004 RMS(Int)=  0.00000000
 Variable       Old X    -DE/DX   Delta X   Delta X   Delta X     New X
                                 (Linear)    (Quad)   (Total)
    R1        2.31436  -0.00038   0.00000   0.04398   0.04398   2.35834
    R2        2.17095   0.06079   0.00000  -0.15519  -0.15519   2.01576
    R3        1.85426  -0.01890   0.00000   0.20349   0.20349   2.05774
    A1        1.96324  -0.00092   0.00000  -0.04059  -0.04059   1.92265
    A2        2.61993   0.01787   0.00000   0.14462   0.14462   2.76455
    D1        1.58992  -0.00023   0.00000   0.03510   0.03510   1.62502
         Item               Value     Threshold  Converged?
 Maximum Force            0.060789     0.000450     NO 
 RMS     Force            0.026997     0.000300     NO 
 Maximum Displacement     0.117717     0.001800     NO 
 RMS     Displacement     0.085316     0.001200     NO 
 Predicted change in Energy= 8.369265D-03
 GradGradGradGradGradGradGradGradGradGradGradGradGradGradGradGradGradGrad

                          Input orientation:                          
 ---------------------------------------------------------------------
 Center     Atomic      Atomic             Coordinates (Angstroms)
 Number     Number       Type             X           Y           Z
 ---------------------------------------------------------------------
      1          8           0       -0.358070   -0.385227    0.015965
      2          8           0        0.732639    0.221091    0.002280
      3          1           0       -1.159658    0.303360    0.161380
      4          1           0       -1.965960    0.987811   -0.097719
 ---------------------------------------------------------------------
                    Distance matrix (angstroms):
                    1          2          3          4
     1  O    0.000000
     2  O    1.247980   0.000000
     3  H    1.066696   1.900754   0.000000
     4  H    2.117421   2.807186   1.088912   0.000000
 Stoichiometry    H2O2(3)
 Framework group  C1[X(H2O2)]
 Deg. of freedom     6
 Full point group                 C1      NOp   1
 Largest Abelian subgroup         C1      NOp   1
 Largest concise Abelian subgroup C1      NOp   1
                         Standard orientation:                         
 ---------------------------------------------------------------------
 Center     Atomic      Atomic             Coordinates (Angstroms)
 Number     Number       Type             X           Y           Z
 ---------------------------------------------------------------------
      1          8           0       -0.356022   -0.379158   -0.009969
      2          8           0        0.742743    0.212508    0.000044
      3          1           0       -1.148687    0.314620    0.157950
      4          1           0       -1.945074    1.018583   -0.078548
 ---------------------------------------------------------------------
 Rotational constants (GHZ):    138.2570522     31.1136596     25.4814337
 Standard basis: 6-311+G(2df,2p) (5D, 7F)
 There are    86 symmetry adapted basis functions of A   symmetry.
 Integral buffers will be    131072 words long.
 Raffenetti 2 integral format.
 Two-electron integral symmetry is turned on.
    86 basis functions,   126 primitive gaussians,    96 cartesian basis functions
    10 alpha electrons        8 beta electrons
       nuclear repulsion energy        37.3270410653 Hartrees.
 NAtoms=    4 NActive=    4 NUniq=    4 SFac= 1.00D+00 NAtFMM=   50 NAOKFM=F Big=F
 One-electron integrals computed using PRISM.
 NBasis=    86 RedAO= T  NBF=    86
 NBsUse=    86 1.00D-06 NBFU=    86
 Initial guess read from the read-write file.
 B after Tr=     0.000000    0.000000    0.000000
         Rot=    1.000000    0.000000    0.000000    0.000000 Ang=   0.00 deg.
 Initial guess orbital symmetries:
 Alpha Orbitals:
       Occupied  (A) (A) (A) (A) (A) (A) (A) (A) (A) (A)
       Virtual   (A) (A) (A) (A) (A) (A) (A) (A) (A) (A) (A) (A)
                 (A) (A) (A) (A) (A) (A) (A) (A) (A) (A) (A) (A)
                 (A) (A) (A) (A) (A) (A) (A) (A) (A) (A) (A) (A)
                 (A) (A) (A) (A) (A) (A) (A) (A) (A) (A) (A) (A)
                 (A) (A) (A) (A) (A) (A) (A) (A) (A) (A) (A) (A)
                 (A) (A) (A) (A) (A) (A) (A) (A) (A) (A) (A) (A)
                 (A) (A) (A) (A)
 Beta  Orbitals:
       Occupied  (A) (A) (A) (A) (A) (A) (A) (A)
       Virtual   (A) (A) (A) (A) (A) (A) (A) (A) (A) (A) (A) (A)
                 (A) (A) (A) (A) (A) (A) (A) (A) (A) (A) (A) (A)
                 (A) (A) (A) (A) (A) (A) (A) (A) (A) (A) (A) (A)
                 (A) (A) (A) (A) (A) (A) (A) (A) (A) (A) (A) (A)
                 (A) (A) (A) (A) (A) (A) (A) (A) (A) (A) (A) (A)
                 (A) (A) (A) (A) (A) (A) (A) (A) (A) (A) (A) (A)
                 (A) (A) (A) (A) (A) (A)
 Initial guess <Sx>= 0.0000 <Sy>= 0.0000 <Sz>= 1.0000 <S**2>= 2.0181 S= 1.0060
 Harris functional with IExCor= 1009 diagonalized for initial guess.
 ExpMin= 8.45D-02 ExpMax= 8.59D+03 ExpMxC= 1.30D+03 IAcc=2 IRadAn=         0 AccDes= 0.00D+00
 HarFok:  IExCor= 1009 AccDes= 0.00D+00 IRadAn=         0 IDoV= 1
 ScaDFX=  1.000000  1.000000  1.000000  1.000000
 FoFCou: FMM=F IPFlag=           0 FMFlag=      100000 FMFlg1=           0
         NFxFlg=           0 DoJE=T BraDBF=F KetDBF=T FulRan=T
         Omega=  0.000000  0.000000  1.000000  0.000000  0.000000 ICntrl=     500 IOpCl=  0
         NMat0=    1 NMatS0=    1 NMatT0=    0 NMatD0=    1 NMtDS0=    0 NMtDT0=    0
         I1Cent=           4 NGrid=           0.
 Petite list used in FoFCou.
 Requested convergence on RMS density matrix=1.00D-08 within 128 cycles.
 Requested convergence on MAX density matrix=1.00D-06.
 Requested convergence on             energy=1.00D-06.
 No special actions if energy rises.
 Keep R1 and R2 ints in memory in canonical form, NReq=23705193.
 Integral accuracy reduced to 1.0D-05 until final iterations.
 Initial convergence to 1.0D-05 achieved.  Increase integral accuracy.
 SCF Done:  E(UM062X) =  -151.395396987     A.U. after   20 cycles
             Convg  =    0.6532D-08             -V/T =  2.0019
 <Sx>= 0.0000 <Sy>= 0.0000 <Sz>= 1.0000 <S**2>= 2.0181 S= 1.0060
 <L.S>= 0.000000000000E+00
 Annihilation of the first spin contaminant:
 S**2 before annihilation     2.0181,   after     2.0001
 Calling FoFJK, ICntrl=      2127 FMM=F ISym2X=0 I1Cent= 0 IOpClX= 1 NMat=1 NMatS=1 NMatT=0.
 ***** Axes restored to original set *****
 -------------------------------------------------------------------
 Center     Atomic                   Forces (Hartrees/Bohr)
 Number     Number              X              Y              Z
 -------------------------------------------------------------------
      1        8           0.021280170   -0.026326697    0.000023545
      2        8           0.005860354    0.003241649   -0.000071297
      3        1          -0.030595860    0.025852986   -0.005847204
      4        1           0.003455336   -0.002767938    0.005894956
 -------------------------------------------------------------------
 Cartesian Forces:  Max     0.030595860 RMS     0.015502212

 GradGradGradGradGradGradGradGradGradGradGradGradGradGradGradGradGradGrad
 Berny optimization.
 Internal  Forces:  Max     0.035310736 RMS     0.015368266
 Search for a saddle point.
 Step number   2 out of a maximum of   20
 All quantities printed in internal units (Hartrees-Bohrs-Radians)
 Swaping is turned off.
 Update second derivatives using D2CorX and points    1    2
 The second derivative matrix:
                          R1        R2        R3        A1        A2
           R1           0.64691
           R2           0.14066   0.05208
           R3          -0.06135   0.13287   0.04494
           A1           0.04866  -0.01552   0.00671   0.16291
           A2           0.00658  -0.00147   0.00892  -0.00258   0.03998
           D1          -0.00518  -0.00225  -0.00128   0.00258   0.00018
                          D1
           D1           0.00099
 ITU=  0  0
     Eigenvalues ---   -0.11413   0.00088   0.04020   0.15578   0.18122
     Eigenvalues ---    0.68386
 Eigenvectors required to have negative eigenvalues:
                          R2        R3        R1        A1        A2
   1                    0.70772  -0.67183  -0.19124   0.09007   0.05534
                          D1
   1                   -0.00432
 RFO step:  Lambda0=6.534456113D-03 Lambda=-3.59365142D-03.
 Linear search not attempted -- option 19 set.
 Maximum step size (   0.300) exceeded in Quadratic search.
    -- Step size scaled by   0.982
 Iteration  1 RMS(Cart)=  0.07501350 RMS(Int)=  0.03162011
 Iteration  2 RMS(Cart)=  0.01911094 RMS(Int)=  0.00114298
 Iteration  3 RMS(Cart)=  0.00063913 RMS(Int)=  0.00000354
 Iteration  4 RMS(Cart)=  0.00000206 RMS(Int)=  0.00000000
 Iteration  5 RMS(Cart)=  0.00000000 RMS(Int)=  0.00000000
 Variable       Old X    -DE/DX   Delta X   Delta X   Delta X     New X
                                 (Linear)    (Quad)   (Total)
    R1        2.35834   0.00669   0.00000   0.05507   0.05507   2.41341
    R2        2.01576   0.03531   0.00000  -0.09675  -0.09675   1.91902
    R3        2.05774  -0.00570   0.00000   0.22996   0.22996   2.28771
    A1        1.92265   0.00006   0.00000  -0.03421  -0.03421   1.88844
    A2        2.76455   0.00964   0.00000   0.15325   0.15325   2.91780
    D1        1.62502  -0.00004   0.00000   0.08445   0.08445   1.70947
         Item               Value     Threshold  Converged?
 Maximum Force            0.035311     0.000450     NO 
 RMS     Force            0.015368     0.000300     NO 
 Maximum Displacement     0.118044     0.001800     NO 
 RMS     Displacement     0.092579     0.001200     NO 
 Predicted change in Energy= 1.559833D-03
 GradGradGradGradGradGradGradGradGradGradGradGradGradGradGradGradGradGrad

                          Input orientation:                          
 ---------------------------------------------------------------------
 Center     Atomic      Atomic             Coordinates (Angstroms)
 Number     Number       Type             X           Y           Z
 ---------------------------------------------------------------------
      1          8           0       -0.358243   -0.408128    0.047714
      2          8           0        0.747763    0.228928    0.003588
      3          1           0       -1.112143    0.269271    0.110997
      4          1           0       -2.028426    1.036964   -0.080393
 ---------------------------------------------------------------------
                    Distance matrix (angstroms):
                    1          2          3          4
     1  O    0.000000
     2  O    1.277121   0.000000
     3  H    1.015500   1.863442   0.000000
     4  H    2.212287   2.892611   1.210602   0.000000
 Stoichiometry    H2O2(3)
 Framework group  C1[X(H2O2)]
 Deg. of freedom     6
 Full point group                 C1      NOp   1
 Largest Abelian subgroup         C1      NOp   1
 Largest concise Abelian subgroup C1      NOp   1
                         Standard orientation:                         
 ---------------------------------------------------------------------
 Center     Atomic      Atomic             Coordinates (Angstroms)
 Number     Number       Type             X           Y           Z
 ---------------------------------------------------------------------
      1          8           0       -0.363926   -0.395304   -0.006547
      2          8           0        0.753219    0.223553   -0.000124
      3          1           0       -1.106442    0.289431    0.098556
      4          1           0       -2.007905    1.084578   -0.045187
 ---------------------------------------------------------------------
 Rotational constants (GHZ):    127.1584251     30.1284825     24.3864080
 Standard basis: 6-311+G(2df,2p) (5D, 7F)
 There are    86 symmetry adapted basis functions of A   symmetry.
 Integral buffers will be    131072 words long.
 Raffenetti 2 integral format.
 Two-electron integral symmetry is turned on.
    86 basis functions,   126 primitive gaussians,    96 cartesian basis functions
    10 alpha electrons        8 beta electrons
       nuclear repulsion energy        36.7733737691 Hartrees.
 NAtoms=    4 NActive=    4 NUniq=    4 SFac= 1.00D+00 NAtFMM=   50 NAOKFM=F Big=F
 One-electron integrals computed using PRISM.
 NBasis=    86 RedAO= T  NBF=    86
 NBsUse=    86 1.00D-06 NBFU=    86
 Initial guess read from the read-write file.
 B after Tr=     0.000000    0.000000    0.000000
         Rot=    1.000000    0.000000    0.000000    0.000000 Ang=   0.00 deg.
 Initial guess orbital symmetries:
 Alpha Orbitals:
       Occupied  (A) (A) (A) (A) (A) (A) (A) (A) (A) (A)
       Virtual   (A) (A) (A) (A) (A) (A) (A) (A) (A) (A) (A) (A)
                 (A) (A) (A) (A) (A) (A) (A) (A) (A) (A) (A) (A)
                 (A) (A) (A) (A) (A) (A) (A) (A) (A) (A) (A) (A)
                 (A) (A) (A) (A) (A) (A) (A) (A) (A) (A) (A) (A)
                 (A) (A) (A) (A) (A) (A) (A) (A) (A) (A) (A) (A)
                 (A) (A) (A) (A) (A) (A) (A) (A) (A) (A) (A) (A)
                 (A) (A) (A) (A)
 Beta  Orbitals:
       Occupied  (A) (A) (A) (A) (A) (A) (A) (A)
       Virtual   (A) (A) (A) (A) (A) (A) (A) (A) (A) (A) (A) (A)
                 (A) (A) (A) (A) (A) (A) (A) (A) (A) (A) (A) (A)
                 (A) (A) (A) (A) (A) (A) (A) (A) (A) (A) (A) (A)
                 (A) (A) (A) (A) (A) (A) (A) (A) (A) (A) (A) (A)
                 (A) (A) (A) (A) (A) (A) (A) (A) (A) (A) (A) (A)
                 (A) (A) (A) (A) (A) (A) (A) (A) (A) (A) (A) (A)
                 (A) (A) (A) (A) (A) (A)
 Initial guess <Sx>= 0.0000 <Sy>= 0.0000 <Sz>= 1.0000 <S**2>= 2.0187 S= 1.0062
 Harris functional with IExCor= 1009 diagonalized for initial guess.
 ExpMin= 8.45D-02 ExpMax= 8.59D+03 ExpMxC= 1.30D+03 IAcc=2 IRadAn=         0 AccDes= 0.00D+00
 HarFok:  IExCor= 1009 AccDes= 0.00D+00 IRadAn=         0 IDoV= 1
 ScaDFX=  1.000000  1.000000  1.000000  1.000000
 FoFCou: FMM=F IPFlag=           0 FMFlag=      100000 FMFlg1=           0
         NFxFlg=           0 DoJE=T BraDBF=F KetDBF=T FulRan=T
         Omega=  0.000000  0.000000  1.000000  0.000000  0.000000 ICntrl=     500 IOpCl=  0
         NMat0=    1 NMatS0=    1 NMatT0=    0 NMatD0=    1 NMtDS0=    0 NMtDT0=    0
         I1Cent=           4 NGrid=           0.
 Petite list used in FoFCou.
 Requested convergence on RMS density matrix=1.00D-08 within 128 cycles.
 Requested convergence on MAX density matrix=1.00D-06.
 Requested convergence on             energy=1.00D-06.
 No special actions if energy rises.
 Keep R1 and R2 ints in memory in canonical form, NReq=23705193.
 Integral accuracy reduced to 1.0D-05 until final iterations.
 Initial convergence to 1.0D-05 achieved.  Increase integral accuracy.
 SCF Done:  E(UM062X) =  -151.393735784     A.U. after   19 cycles
             Convg  =    0.6820D-08             -V/T =  2.0021
 <Sx>= 0.0000 <Sy>= 0.0000 <Sz>= 1.0000 <S**2>= 2.0141 S= 1.0047
 <L.S>= 0.000000000000E+00
 Annihilation of the first spin contaminant:
 S**2 before annihilation     2.0141,   after     2.0001
 Calling FoFJK, ICntrl=      2127 FMM=F ISym2X=0 I1Cent= 0 IOpClX= 1 NMat=1 NMatS=1 NMatT=0.
 ***** Axes restored to original set *****
 -------------------------------------------------------------------
 Center     Atomic                   Forces (Hartrees/Bohr)
 Number     Number              X              Y              Z
 -------------------------------------------------------------------
      1        8           0.015547780   -0.014851177    0.000621834
      2        8           0.001076043    0.000509925   -0.000034257
      3        1          -0.014788342    0.012476470   -0.001833618
      4        1          -0.001835481    0.001864783    0.001246041
 -------------------------------------------------------------------
 Cartesian Forces:  Max     0.015547780 RMS     0.008417320

 GradGradGradGradGradGradGradGradGradGradGradGradGradGradGradGradGradGrad
 Berny optimization.
 Internal  Forces:  Max     0.021874967 RMS     0.009129073
 Search for a saddle point.
 Step number   3 out of a maximum of   20
 All quantities printed in internal units (Hartrees-Bohrs-Radians)
 Swaping is turned off.
 Update second derivatives using D2CorX and points    2    3
 The second derivative matrix:
                          R1        R2        R3        A1        A2
           R1           0.64525
           R2           0.13161   0.09751
           R3          -0.06706   0.09208   0.02622
           A1           0.04916  -0.00861   0.00804   0.16294
           A2           0.00234  -0.02758  -0.00539  -0.00142   0.02923
           D1          -0.00648  -0.01918  -0.00479   0.00255  -0.00285
                          D1
           D1           0.00097
 ITU=  0  0  0
     Eigenvalues ---   -0.06596  -0.00109   0.02713   0.15197   0.16750
     Eigenvalues ---    0.68257
 Eigenvectors required to have negative eigenvalues:
                          R3        R2        R1        A2        D1
   1                   -0.74188   0.61141  -0.18877   0.14434   0.10659
                          A1
   1                    0.08929
 RFO step:  Lambda0=2.101090244D-03 Lambda=-3.70790298D-03.
 Linear search not attempted -- option 19 set.
 Maximum step size (   0.300) exceeded in Quadratic search.
    -- Step size scaled by   0.685
 Iteration  1 RMS(Cart)=  0.04380581 RMS(Int)=  0.15061688
 Iteration  2 RMS(Cart)=  0.03620741 RMS(Int)=  0.07461633
 Iteration  3 RMS(Cart)=  0.01992623 RMS(Int)=  0.01441526
 Iteration  4 RMS(Cart)=  0.00951875 RMS(Int)=  0.00165648
 Iteration  5 RMS(Cart)=  0.00108317 RMS(Int)=  0.00001541
 Iteration  6 RMS(Cart)=  0.00000944 RMS(Int)=  0.00000000
 Iteration  7 RMS(Cart)=  0.00000000 RMS(Int)=  0.00000000
 Variable       Old X    -DE/DX   Delta X   Delta X   Delta X     New X
                                 (Linear)    (Quad)   (Total)
    R1        2.41341   0.00118   0.00000   0.03275   0.03275   2.44616
    R2        1.91902   0.02187   0.00000   0.00216   0.00216   1.92117
    R3        2.28771   0.00238   0.00000   0.24866   0.24866   2.53636
    A1        1.88844   0.00025   0.00000  -0.02663  -0.02663   1.86181
    A2        2.91780   0.00380   0.00000   0.15583   0.15583   3.07363
    D1        1.70947   0.00000   0.00000   0.45803   0.45803   2.16750
         Item               Value     Threshold  Converged?
 Maximum Force            0.021875     0.000450     NO 
 RMS     Force            0.009129     0.000300     NO 
 Maximum Displacement     0.159186     0.001800     NO 
 RMS     Displacement     0.108981     0.001200     NO 
 Predicted change in Energy=-1.270572D-03
 GradGradGradGradGradGradGradGradGradGradGradGradGradGradGradGradGradGrad

                          Input orientation:                          
 ---------------------------------------------------------------------
 Center     Atomic      Atomic             Coordinates (Angstroms)
 Number     Number       Type             X           Y           Z
 ---------------------------------------------------------------------
      1          8           0       -0.330790   -0.439422    0.083837
      2          8           0        0.776502    0.226410    0.005225
      3          1           0       -1.084098    0.242572    0.052670
      4          1           0       -2.112663    1.097476   -0.059825
 ---------------------------------------------------------------------
                    Distance matrix (angstroms):
                    1          2          3          4
     1  O    0.000000
     2  O    1.294452   0.000000
     3  H    1.016641   1.861275   0.000000
     4  H    2.357492   3.018321   1.342186   0.000000
 Stoichiometry    H2O2(3)
 Framework group  C1[X(H2O2)]
 Deg. of freedom     6
 Full point group                 C1      NOp   1
 Largest Abelian subgroup         C1      NOp   1
 Largest concise Abelian subgroup C1      NOp   1
                         Standard orientation:                         
 ---------------------------------------------------------------------
 Center     Atomic      Atomic             Coordinates (Angstroms)
 Number     Number       Type             X           Y           Z
 ---------------------------------------------------------------------
      1          8           0       -0.351745   -0.421182   -0.001830
      2          8           0        0.756328    0.247981   -0.000059
      3          1           0       -1.104707    0.261309    0.026700
      4          1           0       -2.131959    1.124298   -0.011586
 ---------------------------------------------------------------------
 Rotational constants (GHZ):    113.1029751     29.2495796     23.2414980
 Standard basis: 6-311+G(2df,2p) (5D, 7F)
 There are    86 symmetry adapted basis functions of A   symmetry.
 Integral buffers will be    131072 words long.
 Raffenetti 2 integral format.
 Two-electron integral symmetry is turned on.
    86 basis functions,   126 primitive gaussians,    96 cartesian basis functions
    10 alpha electrons        8 beta electrons
       nuclear repulsion energy        36.1946134658 Hartrees.
 NAtoms=    4 NActive=    4 NUniq=    4 SFac= 1.00D+00 NAtFMM=   50 NAOKFM=F Big=F
 One-electron integrals computed using PRISM.
 NBasis=    86 RedAO= T  NBF=    86
 NBsUse=    86 1.00D-06 NBFU=    86
 Initial guess read from the read-write file.
 B after Tr=     0.000000    0.000000    0.000000
         Rot=    1.000000    0.000000    0.000000    0.000000 Ang=   0.00 deg.
 Initial guess orbital symmetries:
 Alpha Orbitals:
       Occupied  (A) (A) (A) (A) (A) (A) (A) (A) (A) (A)
       Virtual   (A) (A) (A) (A) (A) (A) (A) (A) (A) (A) (A) (A)
                 (A) (A) (A) (A) (A) (A) (A) (A) (A) (A) (A) (A)
                 (A) (A) (A) (A) (A) (A) (A) (A) (A) (A) (A) (A)
                 (A) (A) (A) (A) (A) (A) (A) (A) (A) (A) (A) (A)
                 (A) (A) (A) (A) (A) (A) (A) (A) (A) (A) (A) (A)
                 (A) (A) (A) (A) (A) (A) (A) (A) (A) (A) (A) (A)
                 (A) (A) (A) (A)
 Beta  Orbitals:
       Occupied  (A) (A) (A) (A) (A) (A) (A) (A)
       Virtual   (A) (A) (A) (A) (A) (A) (A) (A) (A) (A) (A) (A)
                 (A) (A) (A) (A) (A) (A) (A) (A) (A) (A) (A) (A)
                 (A) (A) (A) (A) (A) (A) (A) (A) (A) (A) (A) (A)
                 (A) (A) (A) (A) (A) (A) (A) (A) (A) (A) (A) (A)
                 (A) (A) (A) (A) (A) (A) (A) (A) (A) (A) (A) (A)
                 (A) (A) (A) (A) (A) (A) (A) (A) (A) (A) (A) (A)
                 (A) (A) (A) (A) (A) (A)
 Initial guess <Sx>= 0.0000 <Sy>= 0.0000 <Sz>= 1.0000 <S**2>= 2.0150 S= 1.0050
 Harris functional with IExCor= 1009 diagonalized for initial guess.
 ExpMin= 8.45D-02 ExpMax= 8.59D+03 ExpMxC= 1.30D+03 IAcc=2 IRadAn=         0 AccDes= 0.00D+00
 HarFok:  IExCor= 1009 AccDes= 0.00D+00 IRadAn=         0 IDoV= 1
 ScaDFX=  1.000000  1.000000  1.000000  1.000000
 FoFCou: FMM=F IPFlag=           0 FMFlag=      100000 FMFlg1=           0
         NFxFlg=           0 DoJE=T BraDBF=F KetDBF=T FulRan=T
         Omega=  0.000000  0.000000  1.000000  0.000000  0.000000 ICntrl=     500 IOpCl=  0
         NMat0=    1 NMatS0=    1 NMatT0=    0 NMatD0=    1 NMtDS0=    0 NMtDT0=    0
         I1Cent=           4 NGrid=           0.
 Petite list used in FoFCou.
 Requested convergence on RMS density matrix=1.00D-08 within 128 cycles.
 Requested convergence on MAX density matrix=1.00D-06.
 Requested convergence on             energy=1.00D-06.
 No special actions if energy rises.
 Keep R1 and R2 ints in memory in canonical form, NReq=23705193.
 Integral accuracy reduced to 1.0D-05 until final iterations.
 Initial convergence to 1.0D-05 achieved.  Increase integral accuracy.
 SCF Done:  E(UM062X) =  -151.394333670     A.U. after   22 cycles
             Convg  =    0.2591D-08             -V/T =  2.0025
 <Sx>= 0.0000 <Sy>= 0.0000 <Sz>= 1.0000 <S**2>= 2.0122 S= 1.0041
 <L.S>= 0.000000000000E+00
 Annihilation of the first spin contaminant:
 S**2 before annihilation     2.0122,   after     2.0001
 Calling FoFJK, ICntrl=      2127 FMM=F ISym2X=0 I1Cent= 0 IOpClX= 1 NMat=1 NMatS=1 NMatT=0.
 ***** Axes restored to original set *****
 -------------------------------------------------------------------
 Center     Atomic                   Forces (Hartrees/Bohr)
 Number     Number              X              Y              Z
 -------------------------------------------------------------------
      1        8           0.005568031    0.005387324   -0.000212481
      2        8          -0.004809689   -0.004096508    0.000439110
      3        1          -0.000022411   -0.002135379   -0.000375312
      4        1          -0.000735931    0.000844563    0.000148683
 -------------------------------------------------------------------
 Cartesian Forces:  Max     0.005568031 RMS     0.002974291

 GradGradGradGradGradGradGradGradGradGradGradGradGradGradGradGradGradGrad
 Berny optimization.
 Internal  Forces:  Max     0.006236010 RMS     0.002794812
 Search for a saddle point.
 Step number   4 out of a maximum of   20
 All quantities printed in internal units (Hartrees-Bohrs-Radians)
 Swaping is turned off.
 Update second derivatives using D2CorX and points    3    4
 The second derivative matrix:
                          R1        R2        R3        A1        A2
           R1           0.64816
           R2           0.13423   0.09967
           R3          -0.06188   0.09818   0.02547
           A1           0.04778  -0.00993   0.00617   0.16355
           A2           0.00596  -0.02346  -0.00498  -0.00278   0.03007
           D1           0.00356  -0.00754  -0.00499  -0.00115  -0.00131
                          D1
           D1           0.00286
 ITU=  0  0  0  0
     Eigenvalues ---   -0.06897   0.00208   0.02803   0.15235   0.17103
     Eigenvalues ---    0.68526
 Eigenvectors required to have negative eigenvalues:
                          R3        R2        R1        A2        A1
   1                   -0.75487   0.61069  -0.18629   0.12059   0.08595
                          D1
   1                    0.02443
 RFO step:  Lambda0=3.030524747D-06 Lambda=-1.67182201D-04.
 Linear search not attempted -- option 19 set.
 Iteration  1 RMS(Cart)=  0.00867215 RMS(Int)=  0.01764320
 Iteration  2 RMS(Cart)=  0.00627993 RMS(Int)=  0.00456841
 Iteration  3 RMS(Cart)=  0.00342877 RMS(Int)=  0.00054790
 Iteration  4 RMS(Cart)=  0.00022576 RMS(Int)=  0.00000362
 Iteration  5 RMS(Cart)=  0.00000265 RMS(Int)=  0.00000000
 Iteration  6 RMS(Cart)=  0.00000000 RMS(Int)=  0.00000000
 Variable       Old X    -DE/DX   Delta X   Delta X   Delta X     New X
                                 (Linear)    (Quad)   (Total)
    R1        2.44616  -0.00624   0.00000  -0.01012  -0.01012   2.43604
    R2        1.92117  -0.00031   0.00000   0.00334   0.00334   1.92451
    R3        2.53636   0.00109   0.00000   0.02505   0.02505   2.56141
    A1        1.86181   0.00248   0.00000   0.01865   0.01865   1.88046
    A2        3.07363   0.00073   0.00000   0.03838   0.03838   3.11201
    D1        2.16750   0.00001   0.00000   0.08701   0.08701   2.25451
         Item               Value     Threshold  Converged?
 Maximum Force            0.006236     0.000450     NO 
 RMS     Force            0.002795     0.000300     NO 
 Maximum Displacement     0.022953     0.001800     NO 
 RMS     Displacement     0.018516     0.001200     NO 
 Predicted change in Energy=-8.291895D-05
 GradGradGradGradGradGradGradGradGradGradGradGradGradGradGradGradGradGrad

                          Input orientation:                          
 ---------------------------------------------------------------------
 Center     Atomic      Atomic             Coordinates (Angstroms)
 Number     Number       Type             X           Y           Z
 ---------------------------------------------------------------------
      1          8           0       -0.323131   -0.435601    0.090696
      2          8           0        0.782376    0.221965    0.005689
      3          1           0       -1.087828    0.235128    0.040524
      4          1           0       -2.122465    1.105543   -0.055003
 ---------------------------------------------------------------------
                    Distance matrix (angstroms):
                    1          2          3          4
     1  O    0.000000
     2  O    1.289095   0.000000
     3  H    1.018408   1.870574   0.000000
     4  H    2.373596   3.036856   1.355442   0.000000
 Stoichiometry    H2O2(3)
 Framework group  C1[X(H2O2)]
 Deg. of freedom     6
 Full point group                 C1      NOp   1
 Largest Abelian subgroup         C1      NOp   1
 Largest concise Abelian subgroup C1      NOp   1
                         Standard orientation:                         
 ---------------------------------------------------------------------
 Center     Atomic      Atomic             Coordinates (Angstroms)
 Number     Number       Type             X           Y           Z
 ---------------------------------------------------------------------
      1          8           0       -0.345770   -0.420560   -0.000766
      2          8           0        0.754828    0.250594   -0.000012
      3          1           0       -1.115708    0.245933    0.010928
      4          1           0       -2.156761    1.113796   -0.004704
 ---------------------------------------------------------------------
 Rotational constants (GHZ):    113.3943088     29.2239627     23.2359897
 Standard basis: 6-311+G(2df,2p) (5D, 7F)
 There are    86 symmetry adapted basis functions of A   symmetry.
 Integral buffers will be    131072 words long.
 Raffenetti 2 integral format.
 Two-electron integral symmetry is turned on.
    86 basis functions,   126 primitive gaussians,    96 cartesian basis functions
    10 alpha electrons        8 beta electrons
       nuclear repulsion energy        36.2602171792 Hartrees.
 NAtoms=    4 NActive=    4 NUniq=    4 SFac= 1.00D+00 NAtFMM=   50 NAOKFM=F Big=F
 One-electron integrals computed using PRISM.
 NBasis=    86 RedAO= T  NBF=    86
 NBsUse=    86 1.00D-06 NBFU=    86
 Initial guess read from the read-write file.
 B after Tr=     0.000000    0.000000    0.000000
         Rot=    1.000000    0.000000    0.000000    0.000000 Ang=   0.00 deg.
 Initial guess orbital symmetries:
 Alpha Orbitals:
       Occupied  (A) (A) (A) (A) (A) (A) (A) (A) (A) (A)
       Virtual   (A) (A) (A) (A) (A) (A) (A) (A) (A) (A) (A) (A)
                 (A) (A) (A) (A) (A) (A) (A) (A) (A) (A) (A) (A)
                 (A) (A) (A) (A) (A) (A) (A) (A) (A) (A) (A) (A)
                 (A) (A) (A) (A) (A) (A) (A) (A) (A) (A) (A) (A)
                 (A) (A) (A) (A) (A) (A) (A) (A) (A) (A) (A) (A)
                 (A) (A) (A) (A) (A) (A) (A) (A) (A) (A) (A) (A)
                 (A) (A) (A) (A)
 Beta  Orbitals:
       Occupied  (A) (A) (A) (A) (A) (A) (A) (A)
       Virtual   (A) (A) (A) (A) (A) (A) (A) (A) (A) (A) (A) (A)
                 (A) (A) (A) (A) (A) (A) (A) (A) (A) (A) (A) (A)
                 (A) (A) (A) (A) (A) (A) (A) (A) (A) (A) (A) (A)
                 (A) (A) (A) (A) (A) (A) (A) (A) (A) (A) (A) (A)
                 (A) (A) (A) (A) (A) (A) (A) (A) (A) (A) (A) (A)
                 (A) (A) (A) (A) (A) (A) (A) (A) (A) (A) (A) (A)
                 (A) (A) (A) (A) (A) (A)
 Initial guess <Sx>= 0.0000 <Sy>= 0.0000 <Sz>= 1.0000 <S**2>= 2.0123 S= 1.0041
 Harris functional with IExCor= 1009 diagonalized for initial guess.
 ExpMin= 8.45D-02 ExpMax= 8.59D+03 ExpMxC= 1.30D+03 IAcc=2 IRadAn=         0 AccDes= 0.00D+00
 HarFok:  IExCor= 1009 AccDes= 0.00D+00 IRadAn=         0 IDoV= 1
 ScaDFX=  1.000000  1.000000  1.000000  1.000000
 FoFCou: FMM=F IPFlag=           0 FMFlag=      100000 FMFlg1=           0
         NFxFlg=           0 DoJE=T BraDBF=F KetDBF=T FulRan=T
         Omega=  0.000000  0.000000  1.000000  0.000000  0.000000 ICntrl=     500 IOpCl=  0
         NMat0=    1 NMatS0=    1 NMatT0=    0 NMatD0=    1 NMtDS0=    0 NMtDT0=    0
         I1Cent=           4 NGrid=           0.
 Petite list used in FoFCou.
 Requested convergence on RMS density matrix=1.00D-08 within 128 cycles.
 Requested convergence on MAX density matrix=1.00D-06.
 Requested convergence on             energy=1.00D-06.
 No special actions if energy rises.
 Keep R1 and R2 ints in memory in canonical form, NReq=23705193.
 Integral accuracy reduced to 1.0D-05 until final iterations.
 Initial convergence to 1.0D-05 achieved.  Increase integral accuracy.
 SCF Done:  E(UM062X) =  -151.394424325     A.U. after   16 cycles
             Convg  =    0.9371D-08             -V/T =  2.0025
 <Sx>= 0.0000 <Sy>= 0.0000 <Sz>= 1.0000 <S**2>= 2.0123 S= 1.0041
 <L.S>= 0.000000000000E+00
 Annihilation of the first spin contaminant:
 S**2 before annihilation     2.0123,   after     2.0001
 Calling FoFJK, ICntrl=      2127 FMM=F ISym2X=0 I1Cent= 0 IOpClX= 1 NMat=1 NMatS=1 NMatT=0.
 ***** Axes restored to original set *****
 -------------------------------------------------------------------
 Center     Atomic                   Forces (Hartrees/Bohr)
 Number     Number              X              Y              Z
 -------------------------------------------------------------------
      1        8           0.000546377    0.001684948   -0.000045667
      2        8          -0.002282123   -0.000847729    0.000129069
      3        1           0.002040606   -0.001201128   -0.000144207
      4        1          -0.000304861    0.000363908    0.000060804
 -------------------------------------------------------------------
 Cartesian Forces:  Max     0.002282123 RMS     0.001115784

 GradGradGradGradGradGradGradGradGradGradGradGradGradGradGradGradGradGrad
 Berny optimization.
 Internal  Forces:  Max     0.002387917 RMS     0.001333643
 Search for a saddle point.
 Step number   5 out of a maximum of   20
 All quantities printed in internal units (Hartrees-Bohrs-Radians)
 Swaping is turned off.
 Update second derivatives using D2CorX and points    4    5
 The second derivative matrix:
                          R1        R2        R3        A1        A2
           R1           0.64247
           R2           0.13241   0.10031
           R3          -0.05541   0.10277   0.02330
           A1           0.05058  -0.00649   0.00824   0.16748
           A2           0.01529  -0.01642  -0.00723   0.00109   0.02824
           D1           0.02382   0.00844  -0.00847   0.00867  -0.00303
                          D1
           D1           0.00441
 ITU=  0  0  0  0  0
     Eigenvalues ---   -0.07211   0.00319   0.02661   0.15732   0.17097
     Eigenvalues ---    0.68023
 Eigenvectors required to have negative eigenvalues:
                          R3        R2        R1        D1        A1
   1                   -0.76338   0.60387  -0.17494  -0.10341   0.08297
                          A2
   1                    0.06640
 RFO step:  Lambda0=1.763474675D-05 Lambda=-2.43899162D-05.
 Linear search not attempted -- option 19 set.
 Iteration  1 RMS(Cart)=  0.00606058 RMS(Int)=  0.00434259
 Iteration  2 RMS(Cart)=  0.00439717 RMS(Int)=  0.00062119
 Iteration  3 RMS(Cart)=  0.00024214 RMS(Int)=  0.00000499
 Iteration  4 RMS(Cart)=  0.00000511 RMS(Int)=  0.00000000
 Iteration  5 RMS(Cart)=  0.00000000 RMS(Int)=  0.00000000
 Variable       Old X    -DE/DX   Delta X   Delta X   Delta X     New X
                                 (Linear)    (Quad)   (Total)
    R1        2.43604  -0.00239   0.00000  -0.00704  -0.00704   2.42899
    R2        1.92451  -0.00186   0.00000   0.00685   0.00685   1.93136
    R3        2.56141   0.00046   0.00000  -0.01478  -0.01478   2.54663
    A1        1.88046  -0.00111   0.00000  -0.00445  -0.00445   1.87601
    A2        3.11201   0.00028   0.00000   0.01593   0.01593   3.12794
    D1        2.25451   0.00000   0.00000   0.01648   0.01648   2.27099
         Item               Value     Threshold  Converged?
 Maximum Force            0.002388     0.000450     NO 
 RMS     Force            0.001334     0.000300     NO 
 Maximum Displacement     0.016108     0.001800     NO 
 RMS     Displacement     0.010704     0.001200     NO 
 Predicted change in Energy=-3.382942D-06
 GradGradGradGradGradGradGradGradGradGradGradGradGradGradGradGradGradGrad

                          Input orientation:                          
 ---------------------------------------------------------------------
 Center     Atomic      Atomic             Coordinates (Angstroms)
 Number     Number       Type             X           Y           Z
 ---------------------------------------------------------------------
      1          8           0       -0.321584   -0.437403    0.093647
      2          8           0        0.775681    0.226207    0.005312
      3          1           0       -1.091204    0.232603    0.035964
      4          1           0       -2.113941    1.105627   -0.053017
 ---------------------------------------------------------------------
                    Distance matrix (angstroms):
                    1          2          3          4
     1  O    0.000000
     2  O    1.285368   0.000000
     3  H    1.022033   1.867147   0.000000
     4  H    2.369598   3.021042   1.347620   0.000000
 Stoichiometry    H2O2(3)
 Framework group  C1[X(H2O2)]
 Deg. of freedom     6
 Full point group                 C1      NOp   1
 Largest Abelian subgroup         C1      NOp   1
 Largest concise Abelian subgroup C1      NOp   1
                         Standard orientation:                         
 ---------------------------------------------------------------------
 Center     Atomic      Atomic             Coordinates (Angstroms)
 Number     Number       Type             X           Y           Z
 ---------------------------------------------------------------------
      1          8           0       -0.343454   -0.422479   -0.000349
      2          8           0        0.750861    0.251794   -0.000003
      3          1           0       -1.116271    0.246309    0.004957
      4          1           0       -2.142985    1.119171   -0.002142
 ---------------------------------------------------------------------
 Rotational constants (GHZ):    112.4518811     29.5093739     23.3753504
 Standard basis: 6-311+G(2df,2p) (5D, 7F)
 There are    86 symmetry adapted basis functions of A   symmetry.
 Integral buffers will be    131072 words long.
 Raffenetti 2 integral format.
 Two-electron integral symmetry is turned on.
    86 basis functions,   126 primitive gaussians,    96 cartesian basis functions
    10 alpha electrons        8 beta electrons
       nuclear repulsion energy        36.3383808776 Hartrees.
 NAtoms=    4 NActive=    4 NUniq=    4 SFac= 1.00D+00 NAtFMM=   50 NAOKFM=F Big=F
 One-electron integrals computed using PRISM.
 NBasis=    86 RedAO= T  NBF=    86
 NBsUse=    86 1.00D-06 NBFU=    86
 Initial guess read from the read-write file.
 B after Tr=     0.000000    0.000000    0.000000
         Rot=    1.000000    0.000000    0.000000    0.000000 Ang=   0.00 deg.
 Initial guess orbital symmetries:
 Alpha Orbitals:
       Occupied  (A) (A) (A) (A) (A) (A) (A) (A) (A) (A)
       Virtual   (A) (A) (A) (A) (A) (A) (A) (A) (A) (A) (A) (A)
                 (A) (A) (A) (A) (A) (A) (A) (A) (A) (A) (A) (A)
                 (A) (A) (A) (A) (A) (A) (A) (A) (A) (A) (A) (A)
                 (A) (A) (A) (A) (A) (A) (A) (A) (A) (A) (A) (A)
                 (A) (A) (A) (A) (A) (A) (A) (A) (A) (A) (A) (A)
                 (A) (A) (A) (A) (A) (A) (A) (A) (A) (A) (A) (A)
                 (A) (A) (A) (A)
 Beta  Orbitals:
       Occupied  (A) (A) (A) (A) (A) (A) (A) (A)
       Virtual   (A) (A) (A) (A) (A) (A) (A) (A) (A) (A) (A) (A)
                 (A) (A) (A) (A) (A) (A) (A) (A) (A) (A) (A) (A)
                 (A) (A) (A) (A) (A) (A) (A) (A) (A) (A) (A) (A)
                 (A) (A) (A) (A) (A) (A) (A) (A) (A) (A) (A) (A)
                 (A) (A) (A) (A) (A) (A) (A) (A) (A) (A) (A) (A)
                 (A) (A) (A) (A) (A) (A) (A) (A) (A) (A) (A) (A)
                 (A) (A) (A) (A) (A) (A)
 Initial guess <Sx>= 0.0000 <Sy>= 0.0000 <Sz>= 1.0000 <S**2>= 2.0123 S= 1.0041
 Requested convergence on RMS density matrix=1.00D-08 within 128 cycles.
 Requested convergence on MAX density matrix=1.00D-06.
 Requested convergence on             energy=1.00D-06.
 No special actions if energy rises.
 Keep R1 and R2 ints in memory in canonical form, NReq=23705193.
 SCF Done:  E(UM062X) =  -151.394417195     A.U. after   14 cycles
             Convg  =    0.2247D-08             -V/T =  2.0024
 <Sx>= 0.0000 <Sy>= 0.0000 <Sz>= 1.0000 <S**2>= 2.0127 S= 1.0042
 <L.S>= 0.000000000000E+00
 Annihilation of the first spin contaminant:
 S**2 before annihilation     2.0127,   after     2.0001
 Calling FoFJK, ICntrl=      2127 FMM=F ISym2X=0 I1Cent= 0 IOpClX= 1 NMat=1 NMatS=1 NMatT=0.
 ***** Axes restored to original set *****
 -------------------------------------------------------------------
 Center     Atomic                   Forces (Hartrees/Bohr)
 Number     Number              X              Y              Z
 -------------------------------------------------------------------
      1        8          -0.002380698    0.001877612   -0.000099504
      2        8           0.000696117    0.000072196   -0.000017864
      3        1           0.001574498   -0.001888641    0.000063807
      4        1           0.000110083   -0.000061167    0.000053561
 -------------------------------------------------------------------
 Cartesian Forces:  Max     0.002380698 RMS     0.001146079

 GradGradGradGradGradGradGradGradGradGradGradGradGradGradGradGradGradGrad
 Berny optimization.
 Internal  Forces:  Max     0.002558225 RMS     0.001116271
 Search for a saddle point.
 Step number   6 out of a maximum of   20
 All quantities printed in internal units (Hartrees-Bohrs-Radians)
 Swaping is turned off.
 Update second derivatives using D2CorX and points    4    5    6
 The second derivative matrix:
                          R1        R2        R3        A1        A2
           R1           0.65179
           R2           0.10593   0.15069
           R3          -0.05065   0.07400   0.01636
           A1           0.05843  -0.02324   0.01565   0.17285
           A2           0.00780   0.02542   0.00157  -0.00982   0.01719
           D1           0.01366   0.06062   0.00063  -0.00512  -0.01419
                          D1
           D1          -0.00641
 ITU=  0  0  0  0  0  0
     Eigenvalues ---   -0.05602  -0.00791   0.02376   0.15508   0.20603
     Eigenvalues ---    0.68152
 Eigenvectors required to have negative eigenvalues:
                          D1        R3        R2        A2        R1
   1                   -0.60742  -0.56907   0.47620  -0.24767  -0.10495
                          A1
   1                    0.08984
 RFO step:  Lambda0=2.461435287D-05 Lambda=-7.90978954D-03.
 Linear search not attempted -- option 19 set.
 Maximum step size (   0.300) exceeded in Quadratic search.
    -- Step size scaled by   0.515
 Iteration  1 RMS(Cart)=  0.07660536 RMS(Int)=  0.10786297
 Iteration  2 RMS(Cart)=  0.02219233 RMS(Int)=  0.03033527
 Iteration  3 RMS(Cart)=  0.00687800 RMS(Int)=  0.00019561
 Iteration  4 RMS(Cart)=  0.00019954 RMS(Int)=  0.00000021
 Iteration  5 RMS(Cart)=  0.00000006 RMS(Int)=  0.00000000
 Variable       Old X    -DE/DX   Delta X   Delta X   Delta X     New X
                                 (Linear)    (Quad)   (Total)
    R1        2.42899   0.00064   0.00000   0.03804   0.03804   2.46703
    R2        1.93136  -0.00256   0.00000  -0.04272  -0.04272   1.88864
    R3        2.54663  -0.00013   0.00000   0.25218   0.25218   2.79882
    A1        1.87601   0.00070   0.00000  -0.05211  -0.05211   1.82390
    A2        3.12794   0.00010   0.00000  -0.14078  -0.14078   2.98715
    D1        2.27099   0.00000   0.00000  -0.24439  -0.24439   2.02661
         Item               Value     Threshold  Converged?
 Maximum Force            0.002558     0.000450     NO 
 RMS     Force            0.001116     0.000300     NO 
 Maximum Displacement     0.130956     0.001800     NO 
 RMS     Displacement     0.092834     0.001200     NO 
 Predicted change in Energy=-6.382359D-04
 GradGradGradGradGradGradGradGradGradGradGradGradGradGradGradGradGradGrad

                          Input orientation:                          
 ---------------------------------------------------------------------
 Center     Atomic      Atomic             Coordinates (Angstroms)
 Number     Number       Type             X           Y           Z
 ---------------------------------------------------------------------
      1          8           0       -0.315075   -0.466877    0.068433
      2          8           0        0.788679    0.227290    0.003800
      3          1           0       -1.041412    0.219304    0.089369
      4          1           0       -2.183240    1.147319   -0.079696
 ---------------------------------------------------------------------
                    Distance matrix (angstroms):
                    1          2          3          4
     1  O    0.000000
     2  O    1.305495   0.000000
     3  H    0.999424   1.832107   0.000000
     4  H    2.473380   3.112190   1.481069   0.000000
 Stoichiometry    H2O2(3)
 Framework group  C1[X(H2O2)]
 Deg. of freedom     6
 Full point group                 C1      NOp   1
 Largest Abelian subgroup         C1      NOp   1
 Largest concise Abelian subgroup C1      NOp   1
                         Standard orientation:                         
 ---------------------------------------------------------------------
 Center     Atomic      Atomic             Coordinates (Angstroms)
 Number     Number       Type             X           Y           Z
 ---------------------------------------------------------------------
      1          8           0       -0.341089   -0.441921   -0.004869
      2          8           0        0.754182    0.268485   -0.000267
      3          1           0       -1.076220    0.231075    0.069336
      4          1           0       -2.228524    1.156408   -0.028245
 ---------------------------------------------------------------------
 Rotational constants (GHZ):    103.0147776     28.8063675     22.5233367
 Standard basis: 6-311+G(2df,2p) (5D, 7F)
 There are    86 symmetry adapted basis functions of A   symmetry.
 Integral buffers will be    131072 words long.
 Raffenetti 2 integral format.
 Two-electron integral symmetry is turned on.
    86 basis functions,   126 primitive gaussians,    96 cartesian basis functions
    10 alpha electrons        8 beta electrons
       nuclear repulsion energy        35.9178393062 Hartrees.
 NAtoms=    4 NActive=    4 NUniq=    4 SFac= 1.00D+00 NAtFMM=   50 NAOKFM=F Big=F
 One-electron integrals computed using PRISM.
 NBasis=    86 RedAO= T  NBF=    86
 NBsUse=    86 1.00D-06 NBFU=    86
 Initial guess read from the read-write file.
 B after Tr=     0.000000    0.000000    0.000000
         Rot=    1.000000    0.000000    0.000000    0.000000 Ang=   0.00 deg.
 Initial guess orbital symmetries:
 Alpha Orbitals:
       Occupied  (A) (A) (A) (A) (A) (A) (A) (A) (A) (A)
       Virtual   (A) (A) (A) (A) (A) (A) (A) (A) (A) (A) (A) (A)
                 (A) (A) (A) (A) (A) (A) (A) (A) (A) (A) (A) (A)
                 (A) (A) (A) (A) (A) (A) (A) (A) (A) (A) (A) (A)
                 (A) (A) (A) (A) (A) (A) (A) (A) (A) (A) (A) (A)
                 (A) (A) (A) (A) (A) (A) (A) (A) (A) (A) (A) (A)
                 (A) (A) (A) (A) (A) (A) (A) (A) (A) (A) (A) (A)
                 (A) (A) (A) (A)
 Beta  Orbitals:
       Occupied  (A) (A) (A) (A) (A) (A) (A) (A)
       Virtual   (A) (A) (A) (A) (A) (A) (A) (A) (A) (A) (A) (A)
                 (A) (A) (A) (A) (A) (A) (A) (A) (A) (A) (A) (A)
                 (A) (A) (A) (A) (A) (A) (A) (A) (A) (A) (A) (A)
                 (A) (A) (A) (A) (A) (A) (A) (A) (A) (A) (A) (A)
                 (A) (A) (A) (A) (A) (A) (A) (A) (A) (A) (A) (A)
                 (A) (A) (A) (A) (A) (A) (A) (A) (A) (A) (A) (A)
                 (A) (A) (A) (A) (A) (A)
 Initial guess <Sx>= 0.0000 <Sy>= 0.0000 <Sz>= 1.0000 <S**2>= 2.0132 S= 1.0044
 Harris functional with IExCor= 1009 diagonalized for initial guess.
 ExpMin= 8.45D-02 ExpMax= 8.59D+03 ExpMxC= 1.30D+03 IAcc=2 IRadAn=         0 AccDes= 0.00D+00
 HarFok:  IExCor= 1009 AccDes= 0.00D+00 IRadAn=         0 IDoV= 1
 ScaDFX=  1.000000  1.000000  1.000000  1.000000
 FoFCou: FMM=F IPFlag=           0 FMFlag=      100000 FMFlg1=           0
         NFxFlg=           0 DoJE=T BraDBF=F KetDBF=T FulRan=T
         Omega=  0.000000  0.000000  1.000000  0.000000  0.000000 ICntrl=     500 IOpCl=  0
         NMat0=    1 NMatS0=    1 NMatT0=    0 NMatD0=    1 NMtDS0=    0 NMtDT0=    0
         I1Cent=           4 NGrid=           0.
 Petite list used in FoFCou.
 Requested convergence on RMS density matrix=1.00D-08 within 128 cycles.
 Requested convergence on MAX density matrix=1.00D-06.
 Requested convergence on             energy=1.00D-06.
 No special actions if energy rises.
 Keep R1 and R2 ints in memory in canonical form, NReq=23705193.
 Integral accuracy reduced to 1.0D-05 until final iterations.
 Initial convergence to 1.0D-05 achieved.  Increase integral accuracy.
 SCF Done:  E(UM062X) =  -151.394647761     A.U. after   23 cycles
             Convg  =    0.6160D-08             -V/T =  2.0025
 <Sx>= 0.0000 <Sy>= 0.0000 <Sz>= 1.0000 <S**2>= 2.0093 S= 1.0031
 <L.S>= 0.000000000000E+00
 Annihilation of the first spin contaminant:
 S**2 before annihilation     2.0093,   after     2.0000
 Calling FoFJK, ICntrl=      2127 FMM=F ISym2X=0 I1Cent= 0 IOpClX= 1 NMat=1 NMatS=1 NMatT=0.
 ***** Axes restored to original set *****
 -------------------------------------------------------------------
 Center     Atomic                   Forces (Hartrees/Bohr)
 Number     Number              X              Y              Z
 -------------------------------------------------------------------
      1        8           0.002823192    0.011927445    0.000235402
      2        8          -0.002881220   -0.005587140    0.000241558
      3        1           0.002543040   -0.008721349   -0.000456419
      4        1          -0.002485012    0.002381044   -0.000020541
 -------------------------------------------------------------------
 Cartesian Forces:  Max     0.011927445 RMS     0.004868676

 GradGradGradGradGradGradGradGradGradGradGradGradGradGradGradGradGradGrad
 Berny optimization.
 Internal  Forces:  Max     0.007878236 RMS     0.004548493
 Search for a saddle point.
 Step number   7 out of a maximum of   20
 All quantities printed in internal units (Hartrees-Bohrs-Radians)
 Swaping is turned off.
 Update second derivatives using D2CorX and points    4    5    6    7
 The second derivative matrix:
                          R1        R2        R3        A1        A2
           R1           0.65401
           R2           0.10478   0.14953
           R3          -0.03653   0.07805   0.00479
           A1           0.05505  -0.02239  -0.00090   0.17819
           A2           0.00341   0.02284  -0.00082  -0.00332   0.02036
           D1           0.00730   0.05476   0.00075   0.00483  -0.01043
                          D1
           D1          -0.00279
 ITU=  0  0  0  0  0  0  0
     Eigenvalues ---   -0.05600  -0.00433   0.02423   0.15155   0.20761
     Eigenvalues ---    0.68103
 Eigenvectors required to have negative eigenvalues:
                          R3        D1        R2        A2        R1
   1                   -0.66901  -0.51437   0.47590  -0.21187  -0.10417
                          A1
   1                    0.07503
 RFO step:  Lambda0=2.159981567D-04 Lambda=-4.96295673D-03.
 Linear search not attempted -- option 19 set.
 Maximum step size (   0.300) exceeded in Quadratic search.
    -- Step size scaled by   0.654
 Iteration  1 RMS(Cart)=  0.09057952 RMS(Int)=  0.12434800
 Iteration  2 RMS(Cart)=  0.03534837 RMS(Int)=  0.04109889
 Iteration  3 RMS(Cart)=  0.01651566 RMS(Int)=  0.00053808
 Iteration  4 RMS(Cart)=  0.00049940 RMS(Int)=  0.00000105
 Iteration  5 RMS(Cart)=  0.00000045 RMS(Int)=  0.00000000
 Variable       Old X    -DE/DX   Delta X   Delta X   Delta X     New X
                                 (Linear)    (Quad)   (Total)
    R1        2.46703  -0.00542   0.00000   0.01265   0.01265   2.47968
    R2        1.88864  -0.00441   0.00000  -0.00478  -0.00478   1.88385
    R3        2.79882   0.00341   0.00000   0.27514   0.27514   3.07396
    A1        1.82390   0.00788   0.00000   0.03366   0.03366   1.85756
    A2        2.98715   0.00130   0.00000  -0.10688  -0.10688   2.88028
    D1        2.02661  -0.00003   0.00000  -0.39473  -0.39473   1.63188
         Item               Value     Threshold  Converged?
 Maximum Force            0.007878     0.000450     NO 
 RMS     Force            0.004548     0.000300     NO 
 Maximum Displacement     0.140732     0.001800     NO 
 RMS     Displacement     0.105440     0.001200     NO 
 Predicted change in Energy=-1.484882D-03
 GradGradGradGradGradGradGradGradGradGradGradGradGradGradGradGradGradGrad

                          Input orientation:                          
 ---------------------------------------------------------------------
 Center     Atomic      Atomic             Coordinates (Angstroms)
 Number     Number       Type             X           Y           Z
 ---------------------------------------------------------------------
      1          8           0       -0.284510   -0.480072    0.045796
      2          8           0        0.821715    0.224100   -0.001685
      3          1           0       -1.030541    0.173315    0.147374
      4          1           0       -2.257712    1.209692   -0.109578
 ---------------------------------------------------------------------
                    Distance matrix (angstroms):
                    1          2          3          4
     1  O    0.000000
     2  O    1.312192   0.000000
     3  H    0.996893   1.858938   0.000000
     4  H    2.602493   3.235106   1.626668   0.000000
 Stoichiometry    H2O2(3)
 Framework group  C1[X(H2O2)]
 Deg. of freedom     6
[...]
 NAtoms=    4 NActive=    4 NUniq=    4 SFac= 1.00D+00 NAtFMM=   50 NAOKFM=F Big=F
 One-electron integrals computed using PRISM.
 NBasis=    86 RedAO= T  NBF=    86
 NBsUse=    86 1.00D-06 NBFU=    86
 Initial guess read from the read-write file.
 B after Tr=     0.000000    0.000000    0.000000
         Rot=    1.000000    0.000000    0.000000    0.000000 Ang=   0.00 deg.
 Initial guess orbital symmetries:
 Alpha Orbitals:
       Occupied  (A) (A) (A) (A) (A) (A) (A) (A) (A) (A)
       Virtual   (A) (A) (A) (A) (A) (A) (A) (A) (A) (A) (A) (A)
                 (A) (A) (A) (A) (A) (A) (A) (A) (A) (A) (A) (A)
                 (A) (A) (A) (A) (A) (A) (A) (A) (A) (A) (A) (A)
                 (A) (A) (A) (A) (A) (A) (A) (A) (A) (A) (A) (A)
                 (A) (A) (A) (A) (A) (A) (A) (A) (A) (A) (A) (A)
                 (A) (A) (A) (A) (A) (A) (A) (A) (A) (A) (A) (A)
                 (A) (A) (A) (A)
 Beta  Orbitals:
       Occupied  (A) (A) (A) (A) (A) (A) (A) (A)
       Virtual   (A) (A) (A) (A) (A) (A) (A) (A) (A) (A) (A) (A)
                 (A) (A) (A) (A) (A) (A) (A) (A) (A) (A) (A) (A)
                 (A) (A) (A) (A) (A) (A) (A) (A) (A) (A) (A) (A)
                 (A) (A) (A) (A) (A) (A) (A) (A) (A) (A) (A) (A)
                 (A) (A) (A) (A) (A) (A) (A) (A) (A) (A) (A) (A)
                 (A) (A) (A) (A) (A) (A) (A) (A) (A) (A) (A) (A)
                 (A) (A) (A) (A) (A) (A)
 Initial guess <Sx>= 0.0000 <Sy>= 0.0000 <Sz>= 1.0000 <S**2>= 2.0083 S= 1.0028
 Harris functional with IExCor= 1009 diagonalized for initial guess.
 ExpMin= 8.45D-02 ExpMax= 8.59D+03 ExpMxC= 1.30D+03 IAcc=2 IRadAn=         0 AccDes= 0.00D+00
 HarFok:  IExCor= 1009 AccDes= 0.00D+00 IRadAn=         0 IDoV= 1
 ScaDFX=  1.000000  1.000000  1.000000  1.000000
 FoFCou: FMM=F IPFlag=           0 FMFlag=      100000 FMFlg1=           0
         NFxFlg=           0 DoJE=T BraDBF=F KetDBF=T FulRan=T
         Omega=  0.000000  0.000000  1.000000  0.000000  0.000000 ICntrl=     500 IOpCl=  0
         NMat0=    1 NMatS0=    1 NMatT0=    0 NMatD0=    1 NMtDS0=    0 NMtDT0=    0
         I1Cent=           4 NGrid=           0.
 Petite list used in FoFCou.
 Requested convergence on RMS density matrix=1.00D-08 within 128 cycles.
 Requested convergence on MAX density matrix=1.00D-06.
 Requested convergence on             energy=1.00D-06.
 No special actions if energy rises.
 Keep R1 and R2 ints in memory in canonical form, NReq=23705193.
 Integral accuracy reduced to 1.0D-05 until final iterations.
 EnCoef did     3 forward-backward iterations
 EnCoef did   100 forward-backward iterations
 EnCoef did   100 forward-backward iterations
 Rare condition: small coef for last iteration: -0.153D-15
 EnCoef did   100 forward-backward iterations
 Initial convergence to 1.0D-05 achieved.  Increase integral accuracy.
 EnCoef did    16 forward-backward iterations
 EnCoef did    12 forward-backward iterations
 Rare condition: small coef for last iteration:  0.444D-15
 EnCoef did   100 forward-backward iterations
 EnCoef did   100 forward-backward iterations
 Rare condition: small coef for last iteration: -0.650D-15
 EnCoef did   100 forward-backward iterations
 EnCoef did    15 forward-backward iterations
 EnCoef did    11 forward-backward iterations
 EnCoef did     9 forward-backward iterations
 Rare condition: small coef for last iteration:  0.000D+00
 SCF Done:  E(UM062X) =  -151.395985128     A.U. after   49 cycles
             Convg  =    0.2751D-08             -V/T =  2.0026
 <Sx>= 0.0000 <Sy>= 0.0000 <Sz>= 1.0000 <S**2>= 2.0073 S= 1.0024
 <L.S>= 0.000000000000E+00
 Annihilation of the first spin contaminant:
 S**2 before annihilation     2.0073,   after     2.0000
 Calling FoFJK, ICntrl=      2127 FMM=F ISym2X=0 I1Cent= 0 IOpClX= 1 NMat=1 NMatS=1 NMatT=0.
 ***** Axes restored to original set *****
 -------------------------------------------------------------------
 Center     Atomic                   Forces (Hartrees/Bohr)
 Number     Number              X              Y              Z
 -------------------------------------------------------------------
      1        8          -0.008614899    0.013431701    0.003111071
      2        8          -0.002309711   -0.003368807   -0.000103811
      3        1           0.012157124   -0.011589691   -0.002958751
      4        1          -0.001232513    0.001526797   -0.000048509
 -------------------------------------------------------------------
 Cartesian Forces:  Max     0.013431701 RMS     0.006926541

 GradGradGradGradGradGradGradGradGradGradGradGradGradGradGradGradGradGrad
 Berny optimization.
 Internal  Forces:  Max     0.014989306 RMS     0.006496671
 Search for a saddle point.
 Step number   9 out of a maximum of   20
 All quantities printed in internal units (Hartrees-Bohrs-Radians)
 Swaping is turned off.
 Update second derivatives using D2CorX and points    8    9
 The second derivative matrix:
                          R1        R2        R3        A1        A2
           R1           0.65774
           R2           0.10737   0.15191
           R3          -0.02592   0.09353   0.00327
           A1           0.05799  -0.02083   0.00242   0.18058
           A2          -0.00125   0.01498  -0.00207  -0.00453   0.02179
           D1          -0.00871   0.02549   0.00084   0.00169  -0.00724
                          D1
           D1           0.00153
 ITU=  0  0  0  0  0  0  0
     Eigenvalues ---   -0.05483  -0.00054   0.02410   0.15465   0.20822
     Eigenvalues ---    0.68520
 Eigenvectors required to have negative eigenvalues:
                          R3        R2        D1        A2        R1
   1                   -0.82300   0.47747  -0.24072  -0.13558  -0.11134
                          A1
   1                    0.07725
 RFO step:  Lambda0=1.161587436D-03 Lambda=-1.67676217D-03.
 Linear search not attempted -- option 19 set.
 Iteration  1 RMS(Cart)=  0.11961743 RMS(Int)=  0.24688828
 Iteration  2 RMS(Cart)=  0.06118868 RMS(Int)=  0.16542579
 Iteration  3 RMS(Cart)=  0.05084724 RMS(Int)=  0.08400064
 Iteration  4 RMS(Cart)=  0.04533060 RMS(Int)=  0.00440334
 Iteration  5 RMS(Cart)=  0.00612903 RMS(Int)=  0.00003628
 Iteration  6 RMS(Cart)=  0.00002833 RMS(Int)=  0.00000000
 Iteration  7 RMS(Cart)=  0.00000000 RMS(Int)=  0.00000000
 Variable       Old X    -DE/DX   Delta X   Delta X   Delta X     New X
                                 (Linear)    (Quad)   (Total)
    R1        2.47189  -0.00397   0.00000  -0.01654  -0.01654   2.45535
    R2        1.88410  -0.01499   0.00000   0.00946   0.00946   1.89356
    R3        3.32133   0.00195   0.00000   0.08232   0.08232   3.40364
    A1        1.83179   0.00289   0.00000   0.02324   0.02324   1.85503
    A2        2.72470   0.00066   0.00000  -0.19472  -0.19472   2.52999
    D1        1.00897  -0.00049   0.00000  -0.73625  -0.73625   0.27272
         Item               Value     Threshold  Converged?
 Maximum Force            0.014989     0.000450     NO 
 RMS     Force            0.006497     0.000300     NO 
 Maximum Displacement     0.300911     0.001800     NO 
 RMS     Displacement     0.231544     0.001200     NO 
 Predicted change in Energy=-7.112945D-04
 GradGradGradGradGradGradGradGradGradGradGradGradGradGradGradGradGradGrad

                          Input orientation:                          
 ---------------------------------------------------------------------
 Center     Atomic      Atomic             Coordinates (Angstroms)
 Number     Number       Type             X           Y           Z
 ---------------------------------------------------------------------
      1          8           0       -0.202031   -0.542138    0.124312
      2          8           0        0.634732    0.429087   -0.087285
      3          1           0       -1.109597   -0.122236    0.188112
      4          1           0       -2.074152    1.362322   -0.143234
 ---------------------------------------------------------------------
                    Distance matrix (angstroms):
                    1          2          3          4
     1  O    0.000000
     2  O    1.299317   0.000000
     3  H    1.002030   1.849995   0.000000
     4  H    2.683913   2.865678   1.801130   0.000000
 Stoichiometry    H2O2(3)
 Framework group  C1[X(H2O2)]
 Deg. of freedom     6
 Full point group                 C1      NOp   1
 Largest Abelian subgroup         C1      NOp   1
 Largest concise Abelian subgroup C1      NOp   1
                         Standard orientation:                         
 ---------------------------------------------------------------------
 Center     Atomic      Atomic             Coordinates (Angstroms)
 Number     Number       Type             X           Y           Z
 ---------------------------------------------------------------------
      1          8           0       -0.293785   -0.535237   -0.009357
      2          8           0        0.672358    0.333464    0.002907
      3          1           0       -1.143484   -0.011773    0.080429
      4          1           0       -1.885097    1.625952   -0.028828
 ---------------------------------------------------------------------
 Rotational constants (GHZ):     69.4239181     33.8430546     22.7693722
 Standard basis: 6-311+G(2df,2p) (5D, 7F)
 There are    86 symmetry adapted basis functions of A   symmetry.
 Integral buffers will be    131072 words long.
 Raffenetti 2 integral format.
 Two-electron integral symmetry is turned on.
    86 basis functions,   126 primitive gaussians,    96 cartesian basis functions
    10 alpha electrons        8 beta electrons
       nuclear repulsion energy        35.9270983736 Hartrees.
 NAtoms=    4 NActive=    4 NUniq=    4 SFac= 1.00D+00 NAtFMM=   50 NAOKFM=F Big=F
 One-electron integrals computed using PRISM.
 NBasis=    86 RedAO= T  NBF=    86
 NBsUse=    86 1.00D-06 NBFU=    86
 Initial guess read from the read-write file.
 B after Tr=     0.000000    0.000000    0.000000
         Rot=    1.000000    0.000000    0.000000    0.000000 Ang=   0.00 deg.
 Initial guess orbital symmetries:
 Alpha Orbitals:
       Occupied  (A) (A) (A) (A) (A) (A) (A) (A) (A) (A)
       Virtual   (A) (A) (A) (A) (A) (A) (A) (A) (A) (A) (A) (A)
                 (A) (A) (A) (A) (A) (A) (A) (A) (A) (A) (A) (A)
                 (A) (A) (A) (A) (A) (A) (A) (A) (A) (A) (A) (A)
                 (A) (A) (A) (A) (A) (A) (A) (A) (A) (A) (A) (A)
                 (A) (A) (A) (A) (A) (A) (A) (A) (A) (A) (A) (A)
                 (A) (A) (A) (A) (A) (A) (A) (A) (A) (A) (A) (A)
                 (A) (A) (A) (A)
 Beta  Orbitals:
       Occupied  (A) (A) (A) (A) (A) (A) (A) (A)
       Virtual   (A) (A) (A) (A) (A) (A) (A) (A) (A) (A) (A) (A)
                 (A) (A) (A) (A) (A) (A) (A) (A) (A) (A) (A) (A)
                 (A) (A) (A) (A) (A) (A) (A) (A) (A) (A) (A) (A)
                 (A) (A) (A) (A) (A) (A) (A) (A) (A) (A) (A) (A)
                 (A) (A) (A) (A) (A) (A) (A) (A) (A) (A) (A) (A)
                 (A) (A) (A) (A) (A) (A) (A) (A) (A) (A) (A) (A)
                 (A) (A) (A) (A) (A) (A)
 Initial guess <Sx>= 0.0000 <Sy>= 0.0000 <Sz>= 1.0000 <S**2>= 2.0074 S= 1.0025
 Harris functional with IExCor= 1009 diagonalized for initial guess.
 ExpMin= 8.45D-02 ExpMax= 8.59D+03 ExpMxC= 1.30D+03 IAcc=2 IRadAn=         0 AccDes= 0.00D+00
 HarFok:  IExCor= 1009 AccDes= 0.00D+00 IRadAn=         0 IDoV= 1
 ScaDFX=  1.000000  1.000000  1.000000  1.000000
 FoFCou: FMM=F IPFlag=           0 FMFlag=      100000 FMFlg1=           0
         NFxFlg=           0 DoJE=T BraDBF=F KetDBF=T FulRan=T
         Omega=  0.000000  0.000000  1.000000  0.000000  0.000000 ICntrl=     500 IOpCl=  0
         NMat0=    1 NMatS0=    1 NMatT0=    0 NMatD0=    1 NMtDS0=    0 NMtDT0=    0
         I1Cent=           4 NGrid=           0.
 Petite list used in FoFCou.
 Requested convergence on RMS density matrix=1.00D-08 within 128 cycles.
 Requested convergence on MAX density matrix=1.00D-06.
 Requested convergence on             energy=1.00D-06.
 No special actions if energy rises.
 Keep R1 and R2 ints in memory in canonical form, NReq=23705193.
 Integral accuracy reduced to 1.0D-05 until final iterations.
 Rare condition: small coef for last iteration:  0.000D+00
 EnCoef did   100 forward-backward iterations
 Rare condition: small coef for last iteration:  0.000D+00
 EnCoef did   100 forward-backward iterations
 Rare condition: small coef for last iteration:  0.000D+00
 Initial convergence to 1.0D-05 achieved.  Increase integral accuracy.
 Rare condition: small coef for last iteration:  0.000D+00
 EnCoef did   100 forward-backward iterations
 EnCoef did    21 forward-backward iterations
 Rare condition: small coef for last iteration: -0.444D-15
 Rare condition: small coef for last iteration:  0.000D+00
 Rare condition: small coef for last iteration:  0.000D+00
 EnCoef did   100 forward-backward iterations
 Rare condition: small coef for last iteration:  0.611D-05
 Matrix for removal  1 Erem= -149.960320801410     Crem= 0.000D+00
 EnCoef did   100 forward-backward iterations
 Matrix for removal  1 Erem= -150.192414762478     Crem= 0.000D+00
 Matrix for removal  6 Erem= -150.331330353272     Crem= 0.000D+00
 EnCoef did     4 forward-backward iterations
 Matrix for removal 16 Erem= -150.714754695605     Crem= 0.000D+00
 Rare condition: small coef for last iteration: -0.222D-15
 Matrix for removal 10 Erem= -150.721957098207     Crem= 0.000D+00
 EnCoef did     5 forward-backward iterations
 Matrix for removal 12 Erem= -150.737857629358     Crem= 0.000D+00
 Matrix for removal  1 Erem= -150.837432493998     Crem= 0.000D+00
 Rare condition: small coef for last iteration:  0.000D+00
 Matrix for removal  5 Erem= -151.044379627397     Crem= 0.000D+00
 EnCoef did     4 forward-backward iterations
 Matrix for removal  1 Erem= -151.291796666315     Crem= 0.000D+00
 Rare condition: small coef for last iteration:  0.222D-15
 Matrix for removal  4 Erem= -151.314862865534     Crem= 0.000D+00
 Matrix for removal  6 Erem= -151.350849869350     Crem= 0.000D+00
 EnCoef did   100 forward-backward iterations
 Matrix for removal 19 Erem= -150.198065558674     Crem= 0.000D+00
 EnCoef did   100 forward-backward iterations
 Matrix for removal 18 Erem= -150.672467331813     Crem= 0.000D+00
 EnCoef did   100 forward-backward iterations
 Rare condition: small coef for last iteration: -0.230D-15
 Matrix for removal 18 Erem= -151.350756618904     Crem= 0.000D+00
 Matrix for removal  7 Erem= -151.351060090711     Crem= 0.000D+00
 EnCoef did   100 forward-backward iterations
 Rare condition: small coef for last iteration:  0.906D-06
 Matrix for removal 19 Erem= -150.239567214566     Crem= 0.000D+00
 EnCoef did   100 forward-backward iterations
 Rare condition: small coef for last iteration:  0.556D-06
 Matrix for removal 18 Erem= -150.715507785185     Crem= 0.000D+00
 EnCoef did   100 forward-backward iterations
 Matrix for removal 19 Erem= -151.320256115892     Crem= 0.000D+00
 EnCoef did   100 forward-backward iterations
 Matrix for removal 18 Erem= -151.351003110545     Crem= 0.000D+00
 EnCoef did   100 forward-backward iterations
 Rare condition: small coef for last iteration:  0.681D-15
 Matrix for removal  8 Erem= -151.352066951561     Crem= 0.000D+00
 Matrix for removal 17 Erem= -151.352865855837     Crem= 0.000D+00
 EnCoef did   100 forward-backward iterations
 Matrix for removal 19 Erem= -150.196191924041     Crem= 0.000D+00
 EnCoef did   100 forward-backward iterations
 Rare condition: small coef for last iteration:  0.000D+00
 EnCoef did   100 forward-backward iterations
 Rare condition: small coef for last iteration:  0.000D+00
 Rare condition: small coef for last iteration:  0.000D+00
 Rare condition: small coef for last iteration:  0.000D+00
 EnCoef did   100 forward-backward iterations
 Rare condition: small coef for last iteration:  0.000D+00
 Rare condition: small coef for last iteration:  0.000D+00
 EnCoef did   100 forward-backward iterations
 EnCoef did   100 forward-backward iterations
 EnCoef did   100 forward-backward iterations
 Rare condition: small coef for last iteration:  0.114D-15
 EnCoef did   100 forward-backward iterations
 Rare condition: small coef for last iteration:  0.000D+00
 Matrix for removal  5 Erem= -150.233739409092     Crem= 0.000D+00
 EnCoef did   100 forward-backward iterations
 Matrix for removal  4 Erem= -150.332515238545     Crem= 0.000D+00
 Rare condition: small coef for last iteration:  0.000D+00
 EnCoef did   100 forward-backward iterations
 EnCoef did   100 forward-backward iterations
 Rare condition: small coef for last iteration:  0.000D+00
 EnCoef did   100 forward-backward iterations
 EnCoef did   100 forward-backward iterations
 EnCoef did   100 forward-backward iterations
 EnCoef did   100 forward-backward iterations
 Rare condition: small coef for last iteration: -0.110D-15
 EnCoef did   100 forward-backward iterations
 Rare condition: small coef for last iteration:  0.000D+00
 EnCoef did   100 forward-backward iterations
 EnCoef did   100 forward-backward iterations
 EnCoef did   100 forward-backward iterations
 EnCoef did   100 forward-backward iterations
 EnCoef did   100 forward-backward iterations
 Rare condition: small coef for last iteration:  0.376D-15
 EnCoef did   100 forward-backward iterations
 Matrix for removal  9 Erem= -150.181705712319     Crem= 0.000D+00
 Matrix for removal  8 Erem= -150.267369974411     Crem= 0.000D+00
 Matrix for removal  8 Erem= -151.009191300318     Crem= 0.000D+00
 Matrix for removal  8 Erem= -151.237742183388     Crem= 0.000D+00
 EnCoef did     1 forward-backward iterations
 Matrix for removal  8 Erem= -151.341893557611     Crem= 0.000D+00
 Matrix for removal  5 Erem= -151.350045082069     Crem= 0.000D+00
 Matrix for removal  6 Erem= -151.364513271893     Crem= 0.000D+00
 EnCoef did   100 forward-backward iterations
 Matrix for removal  6 Erem= -151.393406603964     Crem= 0.000D+00
 EnCoef did   100 forward-backward iterations
 Rare condition: small coef for last iteration: -0.106D-14
 Matrix for removal  4 Erem= -151.393440400593     Crem= 0.000D+00
 EnCoef did   100 forward-backward iterations
 Rare condition: small coef for last iteration:  0.000D+00
 Matrix for removal  4 Erem= -151.395026906142     Crem= 0.000D+00
 EnCoef did   100 forward-backward iterations
 Matrix for removal  3 Erem= -151.395031567955     Crem= 0.000D+00
 EnCoef did   100 forward-backward iterations
 Rare condition: small coef for last iteration: -0.614D-15
 Matrix for removal  3 Erem= -151.395066823945     Crem= 0.000D+00
 EnCoef did   100 forward-backward iterations
 Rare condition: small coef for last iteration:  0.000D+00
 Matrix for removal  4 Erem= -151.395646682736     Crem= 0.000D+00
 EnCoef did   100 forward-backward iterations
 Rare condition: small coef for last iteration:  0.000D+00
 Matrix for removal  4 Erem= -151.395669800002     Crem= 0.000D+00
 Matrix for removal 19 Erem= -151.304112406307     Crem= 0.000D+00
 Rare condition: small coef for last iteration:  0.000D+00
 Matrix for removal 19 Erem= -151.392166198325     Crem= 0.000D+00
 Matrix for removal  3 Erem= -151.395815281511     Crem= 0.000D+00
 Matrix for removal 18 Erem= -149.853395350132     Crem= 0.000D+00
 Matrix for removal 18 Erem= -150.200722264077     Crem= 0.000D+00
 Matrix for removal 18 Erem= -150.678247385838     Crem= 0.000D+00
 >>>>>>>>>> Convergence criterion not met.
 SCF Done:  E(UM062X) =  -151.279928775     A.U. after  129 cycles
             Convg  =    0.2296D-02             -V/T =  2.0046
 <Sx>= 0.0000 <Sy>= 0.0000 <Sz>= 1.0000 <S**2>= 2.0090 S= 1.0030
 <L.S>= 0.000000000000E+00
 Annihilation of the first spin contaminant:
 S**2 before annihilation     2.0090,   after     2.0000
 Convergence failure -- run terminated.
 Error termination via Lnk1e in /shared/apps/gaussian/G09_LINUX_LINDA/g09/l502.exe at Sun Jul 30 15:54:55 2017.
 Job cpu time:  0 days  2 hours  6 minutes 35.1 seconds.
 File lengths (MBytes):  RWF=   1376 Int=      0 D2E=      0 Chk=     32 Scr=     32
