 Entering Gaussian System, Link 0=/shared/apps/gaussian/G09_LINUX_LINDA/g09/g09
 Input=/gss_gpfs_scratch/harms.n/QMscratch/[O]CCC=O+[O][O]_[O]C[CH]C=O+[O]O.gjf
 Output=/gss_gpfs_scratch/harms.n/QMscratch/[O]CCC=O+[O][O]_[O]C[CH]C=O+[O]O.log
 Initial command:
 /shared/apps/gaussian/G09_LINUX_LINDA/g09/l1.exe /gss_gpfs_scratch/harms.n/comparerTST/Gau-26056.inp -scrdir=/gss_gpfs_scratch/harms.n/comparerTST/
 Entering Link 1 = /shared/apps/gaussian/G09_LINUX_LINDA/g09/l1.exe PID=     26057.
  
 Copyright (c) 1988,1990,1992,1993,1995,1998,2003,2009,2010,
            Gaussian, Inc.  All Rights Reserved.
  
 This is part of the Gaussian(R) 09 program.  It is based on
 the Gaussian(R) 03 system (copyright 2003, Gaussian, Inc.),
 the Gaussian(R) 98 system (copyright 1998, Gaussian, Inc.),
 the Gaussian(R) 94 system (copyright 1995, Gaussian, Inc.),
 the Gaussian 92(TM) system (copyright 1992, Gaussian, Inc.),
 the Gaussian 90(TM) system (copyright 1990, Gaussian, Inc.),
 the Gaussian 88(TM) system (copyright 1988, Gaussian, Inc.),
 the Gaussian 86(TM) system (copyright 1986, Carnegie Mellon
 University), and the Gaussian 82(TM) system (copyright 1983,
 Carnegie Mellon University). Gaussian is a federally registered
 trademark of Gaussian, Inc.
  
 This software contains proprietary and confidential information,
 including trade secrets, belonging to Gaussian, Inc.
  
 This software is provided under written license and may be
 used, copied, transmitted, or stored only in accord with that
 written license.
  
 The following legend is applicable only to US Government
 contracts under FAR:
  
                    RESTRICTED RIGHTS LEGEND
  
 Use, reproduction and disclosure by the US Government is
 subject to restrictions as set forth in subparagraphs (a)
 and (c) of the Commercial Computer Software - Restricted
 Rights clause in FAR 52.227-19.
  
 Gaussian, Inc.
 340 Quinnipiac St., Bldg. 40, Wallingford CT 06492
  
  
 ---------------------------------------------------------------
 Warning -- This program may not be used in any manner that
 competes with the business of Gaussian, Inc. or will provide
 assistance to any competitor of Gaussian, Inc.  The licensee
 of this program is prohibited from giving any competitor of
 Gaussian, Inc. access to this program.  By using this program,
 the user acknowledges that Gaussian, Inc. is engaged in the
 business of creating and licensing software in the field of
 computational chemistry and represents and warrants to the
 licensee that it is not a competitor of Gaussian, Inc. and that
 it will not use this program in any manner prohibited above.
 ---------------------------------------------------------------
  

 Cite this work as:
 Gaussian 09, Revision B.01,
 M. J. Frisch, G. W. Trucks, H. B. Schlegel, G. E. Scuseria, 
 M. A. Robb, J. R. Cheeseman, G. Scalmani, V. Barone, B. Mennucci, 
 G. A. Petersson, H. Nakatsuji, M. Caricato, X. Li, H. P. Hratchian, 
 A. F. Izmaylov, J. Bloino, G. Zheng, J. L. Sonnenberg, M. Hada, 
 M. Ehara, K. Toyota, R. Fukuda, J. Hasegawa, M. Ishida, T. Nakajima, 
 Y. Honda, O. Kitao, H. Nakai, T. Vreven, J. A. Montgomery, Jr., 
 J. E. Peralta, F. Ogliaro, M. Bearpark, J. J. Heyd, E. Brothers, 
 K. N. Kudin, V. N. Staroverov, T. Keith, R. Kobayashi, J. Normand, 
 K. Raghavachari, A. Rendell, J. C. Burant, S. S. Iyengar, J. Tomasi, 
 M. Cossi, N. Rega, J. M. Millam, M. Klene, J. E. Knox, J. B. Cross, 
 V. Bakken, C. Adamo, J. Jaramillo, R. Gomperts, R. E. Stratmann, 
 O. Yazyev, A. J. Austin, R. Cammi, C. Pomelli, J. W. Ochterski, 
 R. L. Martin, K. Morokuma, V. G. Zakrzewski, G. A. Voth, 
 P. Salvador, J. J. Dannenberg, S. Dapprich, A. D. Daniels, 
 O. Farkas, J. B. Foresman, J. V. Ortiz, J. Cioslowski, 
 and D. J. Fox, Gaussian, Inc., Wallingford CT, 2010.
 
 ******************************************
 Gaussian 09:  EM64L-G09RevB.01 12-Aug-2010
                19-Aug-2017 
 ******************************************
 %nprocshared=20
 Will use up to   20 processors via shared memory.
 %mem=5GB
 %chk=/gss_gpfs_scratch/harms.n/QMscratch/[O]CCC=O+[O][O]_[O]C[CH]C=O+[O]O
 --------------------------------------------------------
 # m062x/6-311+g(2df,2p) opt=(ts,calcfc,noeigentest) freq
 --------------------------------------------------------
 1/5=1,10=4,11=1,14=-1,18=20,26=3,38=1/1,3;
 2/9=110,12=2,17=6,18=5,40=1/2;
 3/5=4,6=6,7=214,11=2,16=1,25=1,30=1,71=2,74=-55/1,2,3;
 4//1;
 5/5=2,38=5/2;
 8/6=4,10=90,11=11/1;
 11/6=1,8=1,9=11,15=111,16=1/1,2,10;
 10/6=1,7=6,13=1/2;
 6/7=2,8=2,9=2,10=2,28=1/1;
 7/10=1,18=20,25=1/1,2,3,16;
 1/5=1,10=4,11=1,14=-1,18=20/3(2);
 2/9=110/2;
 99//99;
 2/9=110/2;
 3/5=4,6=6,7=214,11=2,16=1,25=1,30=1,71=1,74=-55/1,2,3;
 4/5=5,16=3/1;
 5/5=2,38=5/2;
 7//1,2,3,16;
 1/5=1,11=1,14=-1,18=20/3(-5);
 2/9=110/2;
 6/7=2,8=2,9=2,10=2,19=2,28=1/1;
 99/9=1/99;
 --------------------------------
 [O]CCC=O+[O][O]_[O]C[CH]C=O+[O]O
 --------------------------------
 Symbolic Z-matrix:
 Charge =  0 Multiplicity = 4
 C                     0.74406  -0.12567   0.00033 
 C                     2.26166   0.06906  -0.01125 
 C                     0.03319   1.16298   0.3096 
 H                     0.50308  -0.84366   0.78933 
 H                     0.39098  -0.51609  -0.95212 
 O                     2.97862  -1.09012   0.00034 
 H                     2.58619   0.70384  -0.8474 
 H                     2.58864   0.61225   0.89487 
 O                    -0.7916    1.67245  -0.3939 
 H                     0.32571   1.64539   1.26508 
 O                    -2.25865  -1.02559  -0.39322 
 O                    -3.00687  -0.58673   0.41905 
 

 GradGradGradGradGradGradGradGradGradGradGradGradGradGradGradGradGradGrad
 Berny optimization.
 Initialization pass.
                           ----------------------------
                           !    Initial Parameters    !
                           ! (Angstroms and Degrees)  !
 --------------------------                            --------------------------
 ! Name  Definition              Value          Derivative Info.                !
 --------------------------------------------------------------------------------
 ! R1    R(1,2)                  1.5301         calculate D2E/DX2 analytically  !
 ! R2    R(1,3)                  1.5039         calculate D2E/DX2 analytically  !
 ! R3    R(1,4)                  1.0937         calculate D2E/DX2 analytically  !
 ! R4    R(1,5)                  1.0882         calculate D2E/DX2 analytically  !
 ! R5    R(1,11)                 3.1593         calculate D2E/DX2 analytically  !
 ! R6    R(2,6)                  1.363          calculate D2E/DX2 analytically  !
 ! R7    R(2,7)                  1.0988         calculate D2E/DX2 analytically  !
 ! R8    R(2,8)                  1.1059         calculate D2E/DX2 analytically  !
 ! R9    R(3,9)                  1.1978         calculate D2E/DX2 analytically  !
 ! R10   R(3,10)                 1.1096         calculate D2E/DX2 analytically  !
 ! R11   R(3,11)                 3.246          calculate D2E/DX2 analytically  !
 ! R12   R(3,12)                 3.5093         calculate D2E/DX2 analytically  !
 ! R13   R(4,11)                 3.0098         calculate D2E/DX2 analytically  !
 ! R14   R(4,12)                 3.5388         calculate D2E/DX2 analytically  !
 ! R15   R(5,11)                 2.7554         calculate D2E/DX2 analytically  !
 ! R16   R(9,11)                 3.0711         calculate D2E/DX2 analytically  !
 ! R17   R(9,12)                 3.2668         calculate D2E/DX2 analytically  !
 ! R18   R(11,12)                1.1884         calculate D2E/DX2 analytically  !
 ! A1    A(2,1,3)              111.1827         calculate D2E/DX2 analytically  !
 ! A2    A(2,1,4)              107.9122         calculate D2E/DX2 analytically  !
 ! A3    A(2,1,5)              111.1518         calculate D2E/DX2 analytically  !
 ! A4    A(2,1,11)             167.9582         calculate D2E/DX2 analytically  !
 ! A5    A(3,1,4)              108.0609         calculate D2E/DX2 analytically  !
 ! A6    A(3,1,5)              109.5141         calculate D2E/DX2 analytically  !
 ! A7    A(4,1,5)              108.9292         calculate D2E/DX2 analytically  !
 ! A8    A(1,2,6)              114.4196         calculate D2E/DX2 analytically  !
 ! A9    A(1,2,7)              111.8524         calculate D2E/DX2 analytically  !
 ! A10   A(1,2,8)              110.4605         calculate D2E/DX2 analytically  !
 ! A11   A(6,2,7)              110.0238         calculate D2E/DX2 analytically  !
 ! A12   A(6,2,8)              104.7866         calculate D2E/DX2 analytically  !
 ! A13   A(7,2,8)              104.6203         calculate D2E/DX2 analytically  !
 ! A14   A(1,3,9)              124.6924         calculate D2E/DX2 analytically  !
 ! A15   A(1,3,10)             115.1511         calculate D2E/DX2 analytically  !
 ! A16   A(1,3,12)              89.3506         calculate D2E/DX2 analytically  !
 ! A17   A(9,3,10)             120.1561         calculate D2E/DX2 analytically  !
 ! A18   A(10,3,11)            131.7372         calculate D2E/DX2 analytically  !
 ! A19   A(10,3,12)            114.7263         calculate D2E/DX2 analytically  !
 ! A20   A(1,4,12)              95.4742         calculate D2E/DX2 analytically  !
 ! A21   A(1,11,9)              45.2316         calculate D2E/DX2 analytically  !
 ! A22   A(1,11,12)            114.0839         calculate D2E/DX2 analytically  !
 ! A23   A(3,11,4)              39.3128         calculate D2E/DX2 analytically  !
 ! A24   A(3,11,5)              40.5626         calculate D2E/DX2 analytically  !
 ! A25   A(4,11,5)              35.5279         calculate D2E/DX2 analytically  !
 ! A26   A(4,11,9)              60.5709         calculate D2E/DX2 analytically  !
 ! A27   A(5,11,9)              51.5492         calculate D2E/DX2 analytically  !
 ! A28   A(5,11,12)            132.5157         calculate D2E/DX2 analytically  !
 ! A29   A(3,12,4)              34.9391         calculate D2E/DX2 analytically  !
 ! A30   A(4,12,9)              53.3919         calculate D2E/DX2 analytically  !
 ! D1    D(3,1,2,6)            166.6981         calculate D2E/DX2 analytically  !
 ! D2    D(3,1,2,7)            -67.34           calculate D2E/DX2 analytically  !
 ! D3    D(3,1,2,8)             48.7569         calculate D2E/DX2 analytically  !
 ! D4    D(4,1,2,6)             48.359          calculate D2E/DX2 analytically  !
 ! D5    D(4,1,2,7)            174.3208         calculate D2E/DX2 analytically  !
 ! D6    D(4,1,2,8)            -69.5823         calculate D2E/DX2 analytically  !
 ! D7    D(5,1,2,6)            -71.0217         calculate D2E/DX2 analytically  !
 ! D8    D(5,1,2,7)             54.9401         calculate D2E/DX2 analytically  !
 ! D9    D(5,1,2,8)            171.037          calculate D2E/DX2 analytically  !
 ! D10   D(11,1,2,6)           -39.9762         calculate D2E/DX2 analytically  !
 ! D11   D(11,1,2,7)            85.9856         calculate D2E/DX2 analytically  !
 ! D12   D(11,1,2,8)          -157.9175         calculate D2E/DX2 analytically  !
 ! D13   D(2,1,3,9)            123.1033         calculate D2E/DX2 analytically  !
 ! D14   D(2,1,3,10)           -56.6619         calculate D2E/DX2 analytically  !
 ! D15   D(2,1,3,12)          -173.8428         calculate D2E/DX2 analytically  !
 ! D16   D(4,1,3,9)           -118.6473         calculate D2E/DX2 analytically  !
 ! D17   D(4,1,3,10)            61.5876         calculate D2E/DX2 analytically  !
 ! D18   D(4,1,3,12)           -55.5934         calculate D2E/DX2 analytically  !
 ! D19   D(5,1,3,9)             -0.1204         calculate D2E/DX2 analytically  !
 ! D20   D(5,1,3,10)          -179.8855         calculate D2E/DX2 analytically  !
 ! D21   D(5,1,3,12)            62.9335         calculate D2E/DX2 analytically  !
 ! D22   D(2,1,4,12)           175.5939         calculate D2E/DX2 analytically  !
 ! D23   D(3,1,4,12)            55.2736         calculate D2E/DX2 analytically  !
 ! D24   D(5,1,4,12)           -63.6256         calculate D2E/DX2 analytically  !
 ! D25   D(2,1,11,9)          -134.1357         calculate D2E/DX2 analytically  !
 ! D26   D(2,1,11,12)          164.5288         calculate D2E/DX2 analytically  !
 ! D27   D(10,3,11,4)          -78.8463         calculate D2E/DX2 analytically  !
 ! D28   D(10,3,11,5)         -135.5684         calculate D2E/DX2 analytically  !
 ! D29   D(1,3,12,4)            25.0423         calculate D2E/DX2 analytically  !
 ! D30   D(10,3,12,4)          -92.5203         calculate D2E/DX2 analytically  !
 ! D31   D(1,4,12,3)           -35.7805         calculate D2E/DX2 analytically  !
 ! D32   D(1,4,12,9)           -24.684          calculate D2E/DX2 analytically  !
 ! D33   D(3,9,11,12)          100.8568         calculate D2E/DX2 analytically  !
 --------------------------------------------------------------------------------
 Trust Radius=3.00D-01 FncErr=1.00D-07 GrdErr=1.00D-06
 Number of steps in this run=     91 maximum allowed number of steps=    100.
 Search for a saddle point of order  1.
 GradGradGradGradGradGradGradGradGradGradGradGradGradGradGradGradGradGrad

                          Input orientation:                          
 ---------------------------------------------------------------------
 Center     Atomic      Atomic             Coordinates (Angstroms)
 Number     Number       Type             X           Y           Z
 ---------------------------------------------------------------------
      1          6           0        0.744060   -0.125673    0.000333
      2          6           0        2.261657    0.069055   -0.011252
      3          6           0        0.033186    1.162981    0.309604
      4          1           0        0.503077   -0.843658    0.789334
      5          1           0        0.390975   -0.516086   -0.952119
      6          8           0        2.978619   -1.090122    0.000344
      7          1           0        2.586190    0.703836   -0.847404
      8          1           0        2.588638    0.612246    0.894869
      9          8           0       -0.791599    1.672452   -0.393904
     10          1           0        0.325709    1.645387    1.265080
     11          8           0       -2.258649   -1.025594   -0.393224
     12          8           0       -3.006872   -0.586725    0.419050
 ---------------------------------------------------------------------
                    Distance matrix (angstroms):
                    1          2          3          4          5
     1  C    0.000000
     2  C    1.530083   0.000000
     3  C    1.503868   2.503139   0.000000
     4  H    1.093663   2.136957   2.116019   0.000000
     5  H    1.088235   2.174183   2.130545   1.775536   0.000000
     6  O    2.433807   1.363033   3.721249   2.609896   2.816488
     7  H    2.190933   1.098826   2.840301   3.068063   2.513592
     8  H    2.178804   1.105906   2.678839   2.545655   3.084513
     9  O    2.397274   3.469824   1.197812   3.067091   2.549467
    10  H    2.216135   2.803880   1.109603   2.540303   3.097127
    11  O    3.159273   4.666618   3.245972   3.009763   2.755444
    12  O    3.802287   5.326594   3.509331   3.538766   3.664759
                    6          7          8          9         10
     6  O    0.000000
     7  H    2.022613   0.000000
     8  H    1.962222   1.744680   0.000000
     9  O    4.690607   3.543069   3.769745   0.000000
    10  H    4.015034   3.234019   2.515012   2.000334   0.000000
    11  O    5.252431   5.164269   5.276163   3.071105   4.069769
    12  O    6.021198   5.878078   5.742270   3.266835   4.099291
                   11         12
    11  O    0.000000
    12  O    1.188374   0.000000
 Stoichiometry    C3H5O4(4)
 Framework group  C1[X(C3H5O4)]
 Deg. of freedom    30
 Full point group                 C1      NOp   1
 Largest Abelian subgroup         C1      NOp   1
 Largest concise Abelian subgroup C1      NOp   1
                         Standard orientation:                         
 ---------------------------------------------------------------------
 Center     Atomic      Atomic             Coordinates (Angstroms)
 Number     Number       Type             X           Y           Z
 ---------------------------------------------------------------------
      1          6           0        0.744060   -0.125673    0.000333
      2          6           0        2.261657    0.069055   -0.011252
      3          6           0        0.033186    1.162981    0.309604
      4          1           0        0.503077   -0.843658    0.789334
      5          1           0        0.390975   -0.516086   -0.952119
      6          8           0        2.978619   -1.090122    0.000344
      7          1           0        2.586190    0.703836   -0.847404
      8          1           0        2.588638    0.612246    0.894869
      9          8           0       -0.791599    1.672452   -0.393904
     10          1           0        0.325709    1.645387    1.265080
     11          8           0       -2.258649   -1.025594   -0.393224
     12          8           0       -3.006872   -0.586725    0.419050
 ---------------------------------------------------------------------
 Rotational constants (GHZ):      4.1878627      1.0675623      0.8913658
 Standard basis: 6-311+G(2df,2p) (5D, 7F)
 There are   283 symmetry adapted basis functions of A   symmetry.
 Integral buffers will be    131072 words long.
 Raffenetti 2 integral format.
 Two-electron integral symmetry is turned on.
   283 basis functions,   419 primitive gaussians,   318 cartesian basis functions
    29 alpha electrons       26 beta electrons
       nuclear repulsion energy       273.5529165069 Hartrees.
 NAtoms=   12 NActive=   12 NUniq=   12 SFac= 1.00D+00 NAtFMM=   50 NAOKFM=F Big=F
 One-electron integrals computed using PRISM.
 NBasis=   283 RedAO= T  NBF=   283
 NBsUse=   283 1.00D-06 NBFU=   283
 Harris functional with IExCor= 1009 diagonalized for initial guess.
 ExpMin= 4.38D-02 ExpMax= 8.59D+03 ExpMxC= 1.30D+03 IAcc=2 IRadAn=         0 AccDes= 0.00D+00
 HarFok:  IExCor= 1009 AccDes= 0.00D+00 IRadAn=         0 IDoV= 1
 ScaDFX=  1.000000  1.000000  1.000000  1.000000
 FoFCou: FMM=F IPFlag=           0 FMFlag=      100000 FMFlg1=           0
         NFxFlg=           0 DoJE=T BraDBF=F KetDBF=T FulRan=T
         Omega=  0.000000  0.000000  1.000000  0.000000  0.000000 ICntrl=     500 IOpCl=  0
         NMat0=    1 NMatS0=    1 NMatT0=    0 NMatD0=    1 NMtDS0=    0 NMtDT0=    0
         I1Cent=           4 NGrid=           0.
 Petite list used in FoFCou.
 Initial guess orbital symmetries:
 Alpha Orbitals:
       Occupied  (A) (A) (A) (A) (A) (A) (A) (A) (A) (A) (A) (A)
                 (A) (A) (A) (A) (A) (A) (A) (A) (A) (A) (A) (A)
                 (A) (A) (A) (A) (A)
       Virtual   (A) (A) (A) (A) (A) (A) (A) (A) (A) (A) (A) (A)
                 (A) (A) (A) (A) (A) (A) (A) (A) (A) (A) (A) (A)
                 (A) (A) (A) (A) (A) (A) (A) (A) (A) (A) (A) (A)
                 (A) (A) (A) (A) (A) (A) (A) (A) (A) (A) (A) (A)
                 (A) (A) (A) (A) (A) (A) (A) (A) (A) (A) (A) (A)
                 (A) (A) (A) (A) (A) (A) (A) (A) (A) (A) (A) (A)
                 (A) (A) (A) (A) (A) (A) (A) (A) (A) (A) (A) (A)
                 (A) (A) (A) (A) (A) (A) (A) (A) (A) (A) (A) (A)
                 (A) (A) (A) (A) (A) (A) (A) (A) (A) (A) (A) (A)
                 (A) (A) (A) (A) (A) (A) (A) (A) (A) (A) (A) (A)
                 (A) (A) (A) (A) (A) (A) (A) (A) (A) (A) (A) (A)
                 (A) (A) (A) (A) (A) (A) (A) (A) (A) (A) (A) (A)
                 (A) (A) (A) (A) (A) (A) (A) (A) (A) (A) (A) (A)
                 (A) (A) (A) (A) (A) (A) (A) (A) (A) (A) (A) (A)
                 (A) (A) (A) (A) (A) (A) (A) (A) (A) (A) (A) (A)
                 (A) (A) (A) (A) (A) (A) (A) (A) (A) (A) (A) (A)
                 (A) (A) (A) (A) (A) (A) (A) (A) (A) (A) (A) (A)
                 (A) (A) (A) (A) (A) (A) (A) (A) (A) (A) (A) (A)
                 (A) (A) (A) (A) (A) (A) (A) (A) (A) (A) (A) (A)
                 (A) (A) (A) (A) (A) (A) (A) (A) (A) (A) (A) (A)
                 (A) (A) (A) (A) (A) (A) (A) (A) (A) (A) (A) (A)
                 (A) (A)
 Beta  Orbitals:
       Occupied  (A) (A) (A) (A) (A) (A) (A) (A) (A) (A) (A) (A)
                 (A) (A) (A) (A) (A) (A) (A) (A) (A) (A) (A) (A)
                 (A) (A)
       Virtual   (A) (A) (A) (A) (A) (A) (A) (A) (A) (A) (A) (A)
                 (A) (A) (A) (A) (A) (A) (A) (A) (A) (A) (A) (A)
                 (A) (A) (A) (A) (A) (A) (A) (A) (A) (A) (A) (A)
                 (A) (A) (A) (A) (A) (A) (A) (A) (A) (A) (A) (A)
                 (A) (A) (A) (A) (A) (A) (A) (A) (A) (A) (A) (A)
                 (A) (A) (A) (A) (A) (A) (A) (A) (A) (A) (A) (A)
                 (A) (A) (A) (A) (A) (A) (A) (A) (A) (A) (A) (A)
                 (A) (A) (A) (A) (A) (A) (A) (A) (A) (A) (A) (A)
                 (A) (A) (A) (A) (A) (A) (A) (A) (A) (A) (A) (A)
                 (A) (A) (A) (A) (A) (A) (A) (A) (A) (A) (A) (A)
                 (A) (A) (A) (A) (A) (A) (A) (A) (A) (A) (A) (A)
                 (A) (A) (A) (A) (A) (A) (A) (A) (A) (A) (A) (A)
                 (A) (A) (A) (A) (A) (A) (A) (A) (A) (A) (A) (A)
                 (A) (A) (A) (A) (A) (A) (A) (A) (A) (A) (A) (A)
                 (A) (A) (A) (A) (A) (A) (A) (A) (A) (A) (A) (A)
                 (A) (A) (A) (A) (A) (A) (A) (A) (A) (A) (A) (A)
                 (A) (A) (A) (A) (A) (A) (A) (A) (A) (A) (A) (A)
                 (A) (A) (A) (A) (A) (A) (A) (A) (A) (A) (A) (A)
                 (A) (A) (A) (A) (A) (A) (A) (A) (A) (A) (A) (A)
                 (A) (A) (A) (A) (A) (A) (A) (A) (A) (A) (A) (A)
                 (A) (A) (A) (A) (A) (A) (A) (A) (A) (A) (A) (A)
                 (A) (A) (A) (A) (A)
 The electronic state of the initial guess is 4-A.
 Initial guess <Sx>= 0.0000 <Sy>= 0.0000 <Sz>= 1.5000 <S**2>= 3.7500 S= 1.5000
 Requested convergence on RMS density matrix=1.00D-08 within 128 cycles.
 Requested convergence on MAX density matrix=1.00D-06.
 Requested convergence on             energy=1.00D-06.
 No special actions if energy rises.
 Restarting incremental Fock formation.
 SCF Done:  E(UM062X) =  -417.979126824     A.U. after   20 cycles
             Convg  =    0.8661D-08             -V/T =  2.0029
 <Sx>= 0.0000 <Sy>= 0.0000 <Sz>= 1.5000 <S**2>= 3.7668 S= 1.5042
 <L.S>= 0.000000000000E+00
 Annihilation of the first spin contaminant:
 S**2 before annihilation     3.7668,   after     3.7501
 Range of M.O.s used for correlation:     1   283
 NBasis=   283 NAE=    29 NBE=    26 NFC=     0 NFV=     0
 NROrb=    283 NOA=    29 NOB=    26 NVA=   254 NVB=   257

 **** Warning!!: The largest alpha MO coefficient is  0.38981468D+02


 **** Warning!!: The largest beta MO coefficient is  0.41096078D+02

 Symmetrizing basis deriv contribution to polar:
 IMax=3 JMax=2 DiffMx= 0.00D+00
 G2DrvN: will do    13 centers at a time, making    1 passes doing MaxLOS=3.
 Calling FoFCou, ICntrl=  3107 FMM=F I1Cent=   0 AccDes= 0.00D+00.
 FoFDir/FoFCou used for L=0 through L=3.
 End of G2Drv Frequency-dependent properties file   721 does not exist.
 End of G2Drv Frequency-dependent properties file   722 does not exist.
          IDoAtm=111111111111
          Differentiating once with respect to nuclear coordinates.
          There are    39 degrees of freedom in the 1st order CPHF.  IDoFFX=5.
     33 vectors produced by pass  0 Test12= 3.60D-10 2.56D-07 XBig12= 2.21D-01 1.60D-01.
 AX will form    33 AO Fock derivatives at one time.
     33 vectors produced by pass  1 Test12= 3.60D-10 2.56D-07 XBig12= 2.97D-02 5.12D-02.
     33 vectors produced by pass  2 Test12= 3.60D-10 2.56D-07 XBig12= 1.64D-03 9.10D-03.
     33 vectors produced by pass  3 Test12= 3.60D-10 2.56D-07 XBig12= 1.28D-05 4.21D-04.
     33 vectors produced by pass  4 Test12= 3.60D-10 2.56D-07 XBig12= 1.53D-07 5.55D-05.
     24 vectors produced by pass  5 Test12= 3.60D-10 2.56D-07 XBig12= 1.80D-09 5.03D-06.
      5 vectors produced by pass  6 Test12= 3.60D-10 2.56D-07 XBig12= 2.16D-11 5.47D-07.
 Inverted reduced A of dimension   194 with in-core refinement.
 End of Minotr Frequency-dependent properties file   721 does not exist.
 End of Minotr Frequency-dependent properties file   722 does not exist.

 **********************************************************************

            Population analysis using the SCF density.

 **********************************************************************

 Orbital symmetries:
 Alpha Orbitals:
       Occupied  (A) (A) (A) (A) (A) (A) (A) (A) (A) (A) (A) (A)
                 (A) (A) (A) (A) (A) (A) (A) (A) (A) (A) (A) (A)
                 (A) (A) (A) (A) (A)
       Virtual   (A) (A) (A) (A) (A) (A) (A) (A) (A) (A) (A) (A)
                 (A) (A) (A) (A) (A) (A) (A) (A) (A) (A) (A) (A)
                 (A) (A) (A) (A) (A) (A) (A) (A) (A) (A) (A) (A)
                 (A) (A) (A) (A) (A) (A) (A) (A) (A) (A) (A) (A)
                 (A) (A) (A) (A) (A) (A) (A) (A) (A) (A) (A) (A)
                 (A) (A) (A) (A) (A) (A) (A) (A) (A) (A) (A) (A)
                 (A) (A) (A) (A) (A) (A) (A) (A) (A) (A) (A) (A)
                 (A) (A) (A) (A) (A) (A) (A) (A) (A) (A) (A) (A)
                 (A) (A) (A) (A) (A) (A) (A) (A) (A) (A) (A) (A)
                 (A) (A) (A) (A) (A) (A) (A) (A) (A) (A) (A) (A)
                 (A) (A) (A) (A) (A) (A) (A) (A) (A) (A) (A) (A)
                 (A) (A) (A) (A) (A) (A) (A) (A) (A) (A) (A) (A)
                 (A) (A) (A) (A) (A) (A) (A) (A) (A) (A) (A) (A)
                 (A) (A) (A) (A) (A) (A) (A) (A) (A) (A) (A) (A)
                 (A) (A) (A) (A) (A) (A) (A) (A) (A) (A) (A) (A)
                 (A) (A) (A) (A) (A) (A) (A) (A) (A) (A) (A) (A)
                 (A) (A) (A) (A) (A) (A) (A) (A) (A) (A) (A) (A)
                 (A) (A) (A) (A) (A) (A) (A) (A) (A) (A) (A) (A)
                 (A) (A) (A) (A) (A) (A) (A) (A) (A) (A) (A) (A)
                 (A) (A) (A) (A) (A) (A) (A) (A) (A) (A) (A) (A)
                 (A) (A) (A) (A) (A) (A) (A) (A) (A) (A) (A) (A)
                 (A) (A)
 Beta  Orbitals:
       Occupied  (A) (A) (A) (A) (A) (A) (A) (A) (A) (A) (A) (A)
                 (A) (A) (A) (A) (A) (A) (A) (A) (A) (A) (A) (A)
                 (A) (A)
       Virtual   (A) (A) (A) (A) (A) (A) (A) (A) (A) (A) (A) (A)
                 (A) (A) (A) (A) (A) (A) (A) (A) (A) (A) (A) (A)
                 (A) (A) (A) (A) (A) (A) (A) (A) (A) (A) (A) (A)
                 (A) (A) (A) (A) (A) (A) (A) (A) (A) (A) (A) (A)
                 (A) (A) (A) (A) (A) (A) (A) (A) (A) (A) (A) (A)
                 (A) (A) (A) (A) (A) (A) (A) (A) (A) (A) (A) (A)
                 (A) (A) (A) (A) (A) (A) (A) (A) (A) (A) (A) (A)
                 (A) (A) (A) (A) (A) (A) (A) (A) (A) (A) (A) (A)
                 (A) (A) (A) (A) (A) (A) (A) (A) (A) (A) (A) (A)
                 (A) (A) (A) (A) (A) (A) (A) (A) (A) (A) (A) (A)
                 (A) (A) (A) (A) (A) (A) (A) (A) (A) (A) (A) (A)
                 (A) (A) (A) (A) (A) (A) (A) (A) (A) (A) (A) (A)
                 (A) (A) (A) (A) (A) (A) (A) (A) (A) (A) (A) (A)
                 (A) (A) (A) (A) (A) (A) (A) (A) (A) (A) (A) (A)
                 (A) (A) (A) (A) (A) (A) (A) (A) (A) (A) (A) (A)
                 (A) (A) (A) (A) (A) (A) (A) (A) (A) (A) (A) (A)
                 (A) (A) (A) (A) (A) (A) (A) (A) (A) (A) (A) (A)
                 (A) (A) (A) (A) (A) (A) (A) (A) (A) (A) (A) (A)
                 (A) (A) (A) (A) (A) (A) (A) (A) (A) (A) (A) (A)
                 (A) (A) (A) (A) (A) (A) (A) (A) (A) (A) (A) (A)
                 (A) (A) (A) (A) (A) (A) (A) (A) (A) (A) (A) (A)
                 (A) (A) (A) (A) (A)
 The electronic state is 4-A.
 Alpha  occ. eigenvalues --  -19.78846 -19.78798 -19.68678 -19.64303 -10.64538
 Alpha  occ. eigenvalues --  -10.61961 -10.56197  -1.46492  -1.19562  -1.17975
 Alpha  occ. eigenvalues --   -0.96233  -0.89687  -0.75007  -0.68743  -0.68025
 Alpha  occ. eigenvalues --   -0.67901  -0.64978  -0.60556  -0.58266  -0.55492
 Alpha  occ. eigenvalues --   -0.53393  -0.51149  -0.49191  -0.45938  -0.41387
 Alpha  occ. eigenvalues --   -0.39919  -0.39732  -0.38931  -0.34463
 Alpha virt. eigenvalues --   -0.00662   0.01092   0.02617   0.02946   0.03646
 Alpha virt. eigenvalues --    0.06538   0.06855   0.07214   0.07786   0.08463
 Alpha virt. eigenvalues --    0.10908   0.11692   0.13002   0.14997   0.16117
 Alpha virt. eigenvalues --    0.17246   0.18749   0.19812   0.20077   0.20943
 Alpha virt. eigenvalues --    0.22054   0.23078   0.23278   0.24674   0.25874
 Alpha virt. eigenvalues --    0.26309   0.26854   0.27044   0.28206   0.28482
 Alpha virt. eigenvalues --    0.31506   0.32053   0.32353   0.33874   0.35457
 Alpha virt. eigenvalues --    0.37004   0.38288   0.40359   0.40874   0.43704
 Alpha virt. eigenvalues --    0.49232   0.49841   0.51489   0.54622   0.55189
 Alpha virt. eigenvalues --    0.56007   0.58841   0.59611   0.61155   0.62761
 Alpha virt. eigenvalues --    0.63725   0.66000   0.66670   0.68195   0.74237
 Alpha virt. eigenvalues --    0.76304   0.77718   0.82208   0.82840   0.84423
 Alpha virt. eigenvalues --    0.93571   0.94393   0.97488   0.98679   1.00770
 Alpha virt. eigenvalues --    1.01120   1.01945   1.03586   1.05402   1.06584
 Alpha virt. eigenvalues --    1.07800   1.08128   1.08321   1.09979   1.12991
 Alpha virt. eigenvalues --    1.14101   1.14850   1.15635   1.17619   1.18032
 Alpha virt. eigenvalues --    1.19772   1.21523   1.24027   1.26083   1.28483
 Alpha virt. eigenvalues --    1.29589   1.32663   1.34291   1.35366   1.35859
 Alpha virt. eigenvalues --    1.37067   1.39545   1.40439   1.43867   1.44396
 Alpha virt. eigenvalues --    1.46841   1.47310   1.48559   1.51718   1.52815
 Alpha virt. eigenvalues --    1.55872   1.58753   1.63555   1.64401   1.67097
 Alpha virt. eigenvalues --    1.70150   1.70436   1.71668   1.78114   1.81257
 Alpha virt. eigenvalues --    1.83428   1.94890   2.05273   2.08667   2.13430
 Alpha virt. eigenvalues --    2.27872   2.29001   2.29792   2.30797   2.34354
 Alpha virt. eigenvalues --    2.45226   2.48867   2.52778   2.54676   2.59039
 Alpha virt. eigenvalues --    2.62616   2.66423   2.76105   2.77542   2.82037
 Alpha virt. eigenvalues --    2.83813   2.85404   2.92295   2.98190   2.99468
 Alpha virt. eigenvalues --    3.04126   3.05937   3.07197   3.13083   3.13873
 Alpha virt. eigenvalues --    3.16684   3.18923   3.23112   3.27123   3.29224
 Alpha virt. eigenvalues --    3.33447   3.36648   3.38237   3.43150   3.47129
 Alpha virt. eigenvalues --    3.48460   3.51669   3.55488   3.58396   3.63098
 Alpha virt. eigenvalues --    3.63497   3.70292   3.72146   3.75999   3.80305
 Alpha virt. eigenvalues --    3.84612   3.87745   3.89403   3.93660   3.95485
 Alpha virt. eigenvalues --    3.98088   4.05804   4.13637   4.14540   4.17470
 Alpha virt. eigenvalues --    4.21838   4.24301   4.27859   4.35436   4.38199
 Alpha virt. eigenvalues --    4.41885   4.44079   4.47815   4.48644   4.49270
 Alpha virt. eigenvalues --    4.49530   4.51133   4.54589   4.57141   4.68498
 Alpha virt. eigenvalues --    4.78909   4.81898   4.82126   4.83397   4.92382
 Alpha virt. eigenvalues --    4.96024   5.00021   5.02932   5.03835   5.05905
 Alpha virt. eigenvalues --    5.07154   5.07751   5.08408   5.08781   5.09517
 Alpha virt. eigenvalues --    5.11305   5.13307   5.18361   5.21313   5.26852
 Alpha virt. eigenvalues --    5.27775   5.28510   5.31560   5.38440   5.39435
 Alpha virt. eigenvalues --    5.45345   5.47816   5.49844   5.51317   5.61704
 Alpha virt. eigenvalues --    5.68872   5.69098   5.80706   5.87392   5.93374
 Alpha virt. eigenvalues --    6.31265   6.55228   6.56270   6.60538   6.64842
 Alpha virt. eigenvalues --    6.69389   6.71767   6.74189   6.74558   6.75820
 Alpha virt. eigenvalues --    6.76973   6.78184   6.84420   6.88543   6.89106
 Alpha virt. eigenvalues --    6.91830   7.07651   7.16556   7.21415   7.23613
 Alpha virt. eigenvalues --    7.25359   7.26072   7.38509   7.50704   7.60631
 Alpha virt. eigenvalues --    7.98046   8.00650  24.32552  24.46160  24.65693
 Alpha virt. eigenvalues --   49.96362  50.04691  50.11502  50.25981
  Beta  occ. eigenvalues --  -19.76402 -19.76313 -19.67165 -19.64297 -10.64540
  Beta  occ. eigenvalues --  -10.62009 -10.56193  -1.39375  -1.19541  -1.11968
  Beta  occ. eigenvalues --   -0.89028  -0.85496  -0.73377  -0.68378  -0.59766
  Beta  occ. eigenvalues --   -0.59030  -0.55819  -0.54901  -0.54533  -0.54103
  Beta  occ. eigenvalues --   -0.52152  -0.49574  -0.47010  -0.44876  -0.37037
  Beta  occ. eigenvalues --   -0.34080
  Beta virt. eigenvalues --   -0.09895  -0.05409  -0.05286  -0.00627   0.01099
  Beta virt. eigenvalues --    0.02618   0.03035   0.03632   0.06669   0.06887
  Beta virt. eigenvalues --    0.07359   0.07870   0.08505   0.11014   0.11812
  Beta virt. eigenvalues --    0.13062   0.15313   0.16255   0.17660   0.19221
  Beta virt. eigenvalues --    0.20106   0.20225   0.21087   0.22406   0.23159
  Beta virt. eigenvalues --    0.23464   0.24818   0.25692   0.26508   0.27015
  Beta virt. eigenvalues --    0.27290   0.28239   0.28781   0.31341   0.32206
  Beta virt. eigenvalues --    0.32548   0.34015   0.36087   0.37896   0.39249
  Beta virt. eigenvalues --    0.40111   0.41782   0.43707   0.49447   0.49807
  Beta virt. eigenvalues --    0.51422   0.54758   0.55126   0.56109   0.58664
  Beta virt. eigenvalues --    0.59798   0.61061   0.63078   0.63741   0.65986
  Beta virt. eigenvalues --    0.66799   0.68146   0.74195   0.76280   0.77801
  Beta virt. eigenvalues --    0.82274   0.82913   0.84555   0.93916   0.94695
  Beta virt. eigenvalues --    0.97929   1.00504   1.00877   1.02104   1.03875
  Beta virt. eigenvalues --    1.05032   1.07266   1.07907   1.08807   1.09716
  Beta virt. eigenvalues --    1.10959   1.11553   1.13392   1.14711   1.15228
  Beta virt. eigenvalues --    1.16430   1.17918   1.18687   1.20238   1.23046
  Beta virt. eigenvalues --    1.24618   1.26530   1.29527   1.30145   1.33667
  Beta virt. eigenvalues --    1.35898   1.36806   1.37562   1.39243   1.40089
  Beta virt. eigenvalues --    1.41125   1.43874   1.45640   1.47424   1.48961
  Beta virt. eigenvalues --    1.49574   1.52066   1.53314   1.56262   1.59779
  Beta virt. eigenvalues --    1.64337   1.65941   1.69495   1.70801   1.73457
  Beta virt. eigenvalues --    1.74742   1.79544   1.83091   1.84150   1.95034
  Beta virt. eigenvalues --    2.05666   2.10046   2.13817   2.28168   2.31236
  Beta virt. eigenvalues --    2.31728   2.32650   2.35460   2.45636   2.49034
  Beta virt. eigenvalues --    2.53181   2.54973   2.59178   2.62869   2.66454
  Beta virt. eigenvalues --    2.76020   2.77463   2.82028   2.83710   2.85345
  Beta virt. eigenvalues --    2.92267   2.98100   2.99244   3.04039   3.05825
  Beta virt. eigenvalues --    3.07115   3.12975   3.13790   3.16511   3.18552
  Beta virt. eigenvalues --    3.22987   3.26906   3.28924   3.33289   3.36567
  Beta virt. eigenvalues --    3.38192   3.43210   3.46493   3.48245   3.51358
  Beta virt. eigenvalues --    3.55311   3.58344   3.62901   3.63361   3.70217
  Beta virt. eigenvalues --    3.72005   3.76175   3.79986   3.84404   3.87572
  Beta virt. eigenvalues --    3.89382   3.93513   3.95396   3.97839   4.05693
  Beta virt. eigenvalues --    4.13587   4.14290   4.17380   4.21434   4.24171
  Beta virt. eigenvalues --    4.27463   4.35350   4.37829   4.41743   4.44139
  Beta virt. eigenvalues --    4.48145   4.51138   4.51397   4.51844   4.53819
  Beta virt. eigenvalues --    4.54729   4.57254   4.68555   4.79182   4.84475
  Beta virt. eigenvalues --    4.84726   4.85784   4.97518   5.00059   5.01956
  Beta virt. eigenvalues --    5.06917   5.07206   5.08166   5.08694   5.09555
  Beta virt. eigenvalues --    5.11320   5.11468   5.13499   5.14804   5.15971
  Beta virt. eigenvalues --    5.19209   5.22440   5.28677   5.29923   5.30110
  Beta virt. eigenvalues --    5.32815   5.39249   5.39765   5.45432   5.48237
  Beta virt. eigenvalues --    5.50012   5.51481   5.61909   5.70560   5.70764
  Beta virt. eigenvalues --    5.80773   5.90946   5.93807   6.31281   6.61442
  Beta virt. eigenvalues --    6.64698   6.66996   6.68452   6.78698   6.78952
  Beta virt. eigenvalues --    6.81309   6.81507   6.83612   6.84998   6.86866
  Beta virt. eigenvalues --    6.90069   6.91116   6.93037   6.96272   7.07839
  Beta virt. eigenvalues --    7.21879   7.26008   7.26448   7.27189   7.29908
  Beta virt. eigenvalues --    7.38549   7.55332   7.60639   8.00831   8.01015
  Beta virt. eigenvalues --   24.32508  24.45982  24.65685  49.95004  50.04298
  Beta virt. eigenvalues --   50.10152  50.25976
          Condensed to atoms (all electrons):
              1          2          3          4          5          6
     1  C    5.697874  -0.094883   0.047666   0.447956   0.438817  -0.123202
     2  C   -0.094883   5.432872   0.004891  -0.042273  -0.025369   0.191797
     3  C    0.047666   0.004891   5.179157  -0.052572  -0.050182   0.032221
     4  H    0.447956  -0.042273  -0.052572   0.488799  -0.027939   0.005659
     5  H    0.438817  -0.025369  -0.050182  -0.027939   0.468314   0.001441
     6  O   -0.123202   0.191797   0.032221   0.005659   0.001441   8.128632
     7  H   -0.054230   0.436447  -0.000905   0.004751  -0.006219  -0.032588
     8  H   -0.030194   0.417347  -0.025855  -0.005171   0.004349  -0.028639
     9  O   -0.070665  -0.018884   0.341040  -0.000460   0.002659  -0.000895
    10  H    0.023835  -0.020169   0.347372  -0.003026   0.003377  -0.001378
    11  O    0.009844   0.010699  -0.009746  -0.000531  -0.000659  -0.000045
    12  O   -0.000681   0.004876   0.016202   0.000056   0.001155   0.000022
              7          8          9         10         11         12
     1  C   -0.054230  -0.030194  -0.070665   0.023835   0.009844  -0.000681
     2  C    0.436447   0.417347  -0.018884  -0.020169   0.010699   0.004876
     3  C   -0.000905  -0.025855   0.341040   0.347372  -0.009746   0.016202
     4  H    0.004751  -0.005171  -0.000460  -0.003026  -0.000531   0.000056
     5  H   -0.006219   0.004349   0.002659   0.003377  -0.000659   0.001155
     6  O   -0.032588  -0.028639  -0.000895  -0.001378  -0.000045   0.000022
     7  H    0.512655  -0.031690   0.000110  -0.000407  -0.000016   0.000011
     8  H   -0.031690   0.525328   0.001197   0.002942  -0.000025   0.000009
     9  O    0.000110   0.001197   8.089285  -0.042665  -0.003614  -0.000419
    10  H   -0.000407   0.002942  -0.042665   0.554797   0.000509  -0.000490
    11  O   -0.000016  -0.000025  -0.003614   0.000509   7.680579   0.318376
    12  O    0.000011   0.000009  -0.000419  -0.000490   0.318376   7.619812
 Mulliken atomic charges:
              1
     1  C   -0.292139
     2  C   -0.297351
     3  C    0.170711
     4  H    0.184750
     5  H    0.190257
     6  O   -0.173025
     7  H    0.172081
     8  H    0.170402
     9  O   -0.296689
    10  H    0.135302
    11  O   -0.005370
    12  O    0.041071
 Sum of Mulliken atomic charges =   0.00000
 Mulliken charges with hydrogens summed into heavy atoms:
              1
     1  C    0.082868
     2  C    0.045132
     3  C    0.306014
     6  O   -0.173025
     9  O   -0.296689
    11  O   -0.005370
    12  O    0.041071
 Sum of Mulliken charges with hydrogens summed into heavy atoms =   0.00000
          Atomic-Atomic Spin Densities.
              1          2          3          4          5          6
     1  C    0.002239   0.019848  -0.013739   0.000068  -0.005605  -0.015320
     2  C    0.019848  -0.089352   0.005186  -0.002068   0.001900  -0.006424
     3  C   -0.013739   0.005186   0.004634   0.001662   0.001688  -0.000159
     4  H    0.000068  -0.002068   0.001662   0.006414  -0.000602   0.000927
     5  H   -0.005605   0.001900   0.001688  -0.000602   0.006519   0.002174
     6  O   -0.015320  -0.006424  -0.000159   0.000927   0.002174   0.956405
     7  H    0.018418   0.000284  -0.000617   0.000879  -0.002337  -0.010364
     8  H   -0.012414   0.036502  -0.000303  -0.002413   0.001365  -0.029082
     9  O   -0.002840   0.000980   0.005301   0.000019  -0.000191  -0.000015
    10  H   -0.000201   0.000455   0.001027   0.000090  -0.000072   0.000022
    11  O    0.010322  -0.003469  -0.009721  -0.000562   0.000199  -0.000095
    12  O   -0.003486   0.000844   0.005424   0.000007   0.000131   0.000020
              7          8          9         10         11         12
     1  C    0.018418  -0.012414  -0.002840  -0.000201   0.010322  -0.003486
     2  C    0.000284   0.036502   0.000980   0.000455  -0.003469   0.000844
     3  C   -0.000617  -0.000303   0.005301   0.001027  -0.009721   0.005424
     4  H    0.000879  -0.002413   0.000019   0.000090  -0.000562   0.000007
     5  H   -0.002337   0.001365  -0.000191  -0.000072   0.000199   0.000131
     6  O   -0.010364  -0.029082  -0.000015   0.000022  -0.000095   0.000020
     7  H    0.061166  -0.021339  -0.000334   0.000085   0.000008   0.000003
     8  H   -0.021339   0.114195   0.000469  -0.000448  -0.000005  -0.000002
     9  O   -0.000334   0.000469  -0.001013  -0.000667   0.000598   0.000617
    10  H    0.000085  -0.000448  -0.000667  -0.001245   0.000012   0.000021
    11  O    0.000008  -0.000005   0.000598   0.000012   1.441879  -0.442106
    12  O    0.000003  -0.000002   0.000617   0.000021  -0.442106   1.437048
 Mulliken atomic spin densities:
              1
     1  C   -0.002711
     2  C   -0.035316
     3  C    0.000382
     4  H    0.004421
     5  H    0.005171
     6  O    0.898089
     7  H    0.045853
     8  H    0.086524
     9  O    0.002926
    10  H   -0.000920
    11  O    0.997059
    12  O    0.998523
 Sum of Mulliken atomic spin densities =   3.00000
 APT atomic charges:
              1
     1  C   -0.505573
     2  C   -0.688804
     3  C   -0.069127
     4  H    0.302095
     5  H    0.292852
     6  O   -0.300692
     7  H    0.430104
     8  H    0.409604
     9  O   -0.319652
    10  H    0.411254
    11  O   -0.208744
    12  O    0.246683
 Sum of APT charges=   0.00000
 APT Atomic charges with hydrogens summed into heavy atoms:
              1
     1  C    0.089374
     2  C    0.150905
     3  C    0.342127
     4  H    0.000000
     5  H    0.000000
     6  O   -0.300692
     7  H    0.000000
     8  H    0.000000
     9  O   -0.319652
    10  H    0.000000
    11  O   -0.208744
    12  O    0.246683
 Sum of APT charges=   0.00000
 Electronic spatial extent (au):  <R**2>=           1174.1786
 Charge=              0.0000 electrons
 Dipole moment (field-independent basis, Debye):
    X=              0.9285    Y=              0.2266    Z=              1.3209  Tot=              1.6304
 Quadrupole moment (field-independent basis, Debye-Ang):
   XX=            -45.5489   YY=            -44.7997   ZZ=            -38.3584
   XY=              8.3529   XZ=             -0.2259   YZ=              2.1133
 Traceless Quadrupole moment (field-independent basis, Debye-Ang):
   XX=             -2.6466   YY=             -1.8974   ZZ=              4.5440
   XY=              8.3529   XZ=             -0.2259   YZ=              2.1133
 Octapole moment (field-independent basis, Debye-Ang**2):
  XXX=            -34.8119  YYY=             -9.1961  ZZZ=             -0.4006  XYY=             -5.5616
  XXY=             12.4405  XXZ=              0.1588  XZZ=             -0.9443  YZZ=             -1.8123
  YYZ=              3.0400  XYZ=             -0.6921
 Hexadecapole moment (field-independent basis, Debye-Ang**3):
 XXXX=          -1097.0640 YYYY=           -292.6447 ZZZZ=            -73.1422 XXXY=             60.1044
 XXXZ=              9.1656 YYYX=             22.7476 YYYZ=              4.0048 ZZZX=             -0.8254
 ZZZY=              0.8460 XXYY=           -234.2422 XXZZ=           -173.1745 YYZZ=            -55.7020
 XXYZ=              0.7737 YYXZ=             -2.8607 ZZXY=              2.2316
 N-N= 2.735529165069D+02 E-N=-2.267792039311D+03  KE= 6.203010344446D+02
  Exact polarizability:   0.000   0.000   0.000   0.000   0.000   0.000
 Approx polarizability:  62.349  -9.607  59.056   0.267   1.406  59.611
                          Isotropic Fermi Contact Couplings
        Atom                 a.u.       MegaHertz       Gauss      10(-4) cm-1
     1  C(13)             -0.00021      -0.08012      -0.02859      -0.02672
     2  C(13)             -0.03155     -11.82427      -4.21919      -3.94415
     3  C(13)             -0.00185      -0.69176      -0.24684      -0.23075
     4  H(1)               0.00019       0.27670       0.09873       0.09230
     5  H(1)               0.00042       0.62025       0.22132       0.20689
     6  O(17)              0.13376     -27.02783      -9.64420      -9.01551
     7  H(1)               0.02245      33.45072      11.93605      11.15796
     8  H(1)               0.04634      69.05082      24.63905      23.03287
     9  O(17)             -0.00032       0.06528       0.02330       0.02178
    10  H(1)               0.00031       0.46447       0.16573       0.15493
    11  O(17)              0.17909     -36.18867     -12.91302     -12.07124
    12  O(17)              0.18706     -37.79813     -13.48731     -12.60810
 --------------------------------------------------------
       Center         ----  Spin Dipole Couplings  ----
                      3XX-RR        3YY-RR        3ZZ-RR
 --------------------------------------------------------
     1   Atom        0.033409     -0.013810     -0.019599
     2   Atom       -0.016014      0.007171      0.008843
     3   Atom        0.009782     -0.001401     -0.008380
     4   Atom        0.026598     -0.015433     -0.011165
     5   Atom        0.026832     -0.014908     -0.011924
     6   Atom       -1.553597     -1.654138      3.207735
     7   Atom       -0.006508      0.014614     -0.008105
     8   Atom       -0.008100      0.012760     -0.004660
     9   Atom       -0.002385      0.010777     -0.008392
    10   Atom        0.004576      0.000309     -0.004885
    11   Atom       -0.251971      0.758622     -0.506650
    12   Atom       -0.239009      0.756875     -0.517866
 --------------------------------------------------------
                        XY            XZ            YZ
 --------------------------------------------------------
     1   Atom       -0.001316      0.000609      0.001781
     2   Atom       -0.033606      0.011621      0.007201
     3   Atom        0.006520      0.001682      0.003801
     4   Atom       -0.000170      0.001298      0.000573
     5   Atom        0.001346     -0.001967     -0.001338
     6   Atom        0.180644      1.021291      0.804868
     7   Atom       -0.001310     -0.000343     -0.016364
     8   Atom       -0.003563      0.002813      0.018974
     9   Atom        0.012534     -0.001084      0.006559
    10   Atom        0.001870      0.001236      0.004076
    11   Atom        0.897030      1.644603     -0.972085
    12   Atom        0.888867      1.660246     -0.974720
 --------------------------------------------------------


 ---------------------------------------------------------------------------------
              Anisotropic Spin Dipole Couplings in Principal Axis System
 ---------------------------------------------------------------------------------

       Atom             a.u.   MegaHertz   Gauss  10(-4) cm-1        Axes

              Baa    -0.0201    -2.700    -0.963    -0.901 -0.0177 -0.2751  0.9613
     1 C(13)  Bbb    -0.0133    -1.789    -0.638    -0.597  0.0235  0.9610  0.2754
              Bcc     0.0335     4.489     1.602     1.497  0.9996 -0.0274  0.0106
 
              Baa    -0.0435    -5.841    -2.084    -1.948  0.7897  0.5593 -0.2521
     2 C(13)  Bbb     0.0124     1.658     0.592     0.553  0.1788  0.1833  0.9667
              Bcc     0.0312     4.182     1.492     1.395 -0.5869  0.8085 -0.0447
 
              Baa    -0.0101    -1.359    -0.485    -0.453  0.0689 -0.4413  0.8947
     3 C(13)  Bbb    -0.0031    -0.418    -0.149    -0.139 -0.4523  0.7855  0.4223
              Bcc     0.0132     1.776     0.634     0.593  0.8892  0.4338  0.1455
 
              Baa    -0.0155    -8.276    -2.953    -2.761  0.0081  0.9911 -0.1332
     4 H(1)   Bbb    -0.0111    -5.939    -2.119    -1.981 -0.0335  0.1334  0.9905
              Bcc     0.0266    14.215     5.072     4.742  0.9994 -0.0036  0.0343
 
              Baa    -0.0154    -8.232    -2.937    -2.746 -0.0135  0.9366  0.3501
     5 H(1)   Bbb    -0.0116    -6.163    -2.199    -2.056  0.0602 -0.3487  0.9353
              Bcc     0.0270    14.395     5.136     4.802  0.9981  0.0337 -0.0516
 
              Baa    -1.7924   129.699    46.280    43.263 -0.4729  0.8799 -0.0450
     6 O(17)  Bbb    -1.7559   127.054    45.336    42.381  0.8583  0.4485 -0.2493
              Bcc     3.5483  -256.753   -91.616   -85.644  0.1992  0.1566  0.9674
 
              Baa    -0.0167    -8.936    -3.189    -2.981  0.0888  0.4637  0.8815
     7 H(1)   Bbb    -0.0065    -3.447    -1.230    -1.150  0.9955 -0.0114 -0.0943
              Bcc     0.0232    12.383     4.419     4.131 -0.0337  0.8859 -0.4626
 
              Baa    -0.0186    -9.919    -3.539    -3.309 -0.3801 -0.5101  0.7715
     8 H(1)   Bbb    -0.0064    -3.416    -1.219    -1.140  0.9238 -0.1685  0.3437
              Bcc     0.0250    13.336     4.759     4.448 -0.0453  0.8434  0.5353
 
              Baa    -0.0139     1.007     0.359     0.336  0.5738 -0.4696  0.6710
     9 O(17)  Bbb    -0.0054     0.390     0.139     0.130 -0.6598  0.2202  0.7184
              Bcc     0.0193    -1.396    -0.498    -0.466  0.4851  0.8550  0.1835
 
              Baa    -0.0071    -3.801    -1.356    -1.268 -0.0165 -0.4776  0.8784
    10 H(1)   Bbb     0.0011     0.591     0.211     0.197 -0.5410  0.7431  0.3938
              Bcc     0.0060     3.210     1.145     1.071  0.8409  0.4687  0.2706
 
              Baa    -2.5566   184.993    66.010    61.707 -0.6308  0.3706  0.6818
    11 O(17)  Bbb     1.2700   -91.897   -32.791   -30.653  0.7575  0.1036  0.6445
              Bcc     1.2866   -93.096   -33.219   -31.053  0.1682  0.9230 -0.3461
 
              Baa    -2.5679   185.812    66.302    61.980 -0.6288  0.3688  0.6846
    12 O(17)  Bbb     1.2777   -92.451   -32.989   -30.838  0.5565  0.8283  0.0649
              Bcc     1.2902   -93.361   -33.313   -31.142  0.5431 -0.4218  0.7261
 

 ---------------------------------------------------------------------------------

 Calling FoFJK, ICntrl=    100147 FMM=F ISym2X=0 I1Cent= 0 IOpClX= 1 NMat=1 NMatS=1 NMatT=0.
 ***** Axes restored to original set *****
 -------------------------------------------------------------------
 Center     Atomic                   Forces (Hartrees/Bohr)
 Number     Number              X              Y              Z
 -------------------------------------------------------------------
      1        6           0.000125614    0.000052609   -0.000264268
      2        6          -0.000268442   -0.000095940    0.000236788
      3        6          -0.000197216    0.000069294    0.000031436
      4        1           0.000106655   -0.000180973    0.000107347
      5        1           0.000007899   -0.000057600    0.000115216
      6        8           0.000113629   -0.000040806   -0.000092494
      7        1           0.000035708    0.000114982   -0.000090735
      8        1           0.000064851    0.000069260    0.000046313
      9        8           0.000055415    0.000114474   -0.000045633
     10        1          -0.000003612   -0.000063469   -0.000043726
     11        8           0.000146720   -0.000494485   -0.000181834
     12        8          -0.000187220    0.000512654    0.000181590
 -------------------------------------------------------------------
 Cartesian Forces:  Max     0.000512654 RMS     0.000171097

 GradGradGradGradGradGradGradGradGradGradGradGradGradGradGradGradGradGrad
 Berny optimization.
 Internal  Forces:  Max     0.000359098 RMS     0.000081957
 Search for a saddle point.
 Step number   1 out of a maximum of   91
 All quantities printed in internal units (Hartrees-Bohrs-Radians)
 Swaping is turned off.
 Second derivative matrix not updated -- analytic derivatives used.
 ITU=  0
     Eigenvalues ---    0.00006   0.00048   0.00086   0.00111   0.00114
     Eigenvalues ---    0.00145   0.00384   0.01083   0.01942   0.02247
     Eigenvalues ---    0.02479   0.03246   0.03552   0.03962   0.05971
     Eigenvalues ---    0.06496   0.12684   0.13258   0.14749   0.20444
     Eigenvalues ---    0.22143   0.27375   0.28508   0.30502   0.31039
     Eigenvalues ---    0.31593   0.31861   0.40020   0.78401   0.84275
 Eigenvectors required to have negative eigenvalues:
                          D12       D11       D10       D25       D26
   1                    0.42616   0.42486   0.41936  -0.38989  -0.37945
                          R13       R14       D15       D18       D21
   1                   -0.25235  -0.18446   0.08640   0.08549   0.07883
 RFO step:  Lambda0=6.813008400D-05 Lambda=-6.63737891D-05.
 Linear search not attempted -- option 19 set.
 Maximum step size (   0.300) exceeded in Quadratic search.
    -- Step size scaled by   0.211
 Iteration  1 RMS(Cart)=  0.02774481 RMS(Int)=  0.03322052
 Iteration  2 RMS(Cart)=  0.01143816 RMS(Int)=  0.00215633
 Iteration  3 RMS(Cart)=  0.00053773 RMS(Int)=  0.00181745
 Iteration  4 RMS(Cart)=  0.00001336 RMS(Int)=  0.00181744
 Iteration  5 RMS(Cart)=  0.00000005 RMS(Int)=  0.00181744
 Variable       Old X    -DE/DX   Delta X   Delta X   Delta X     New X
                                 (Linear)    (Quad)   (Total)
    R1        2.89144  -0.00005   0.00000  -0.00092  -0.00092   2.89052
    R2        2.84190   0.00008   0.00000   0.00010   0.00009   2.84198
    R3        2.06672   0.00015   0.00000   0.00067   0.00161   2.06833
    R4        2.05647  -0.00005   0.00000  -0.00005   0.00053   2.05699
    R5        5.97016  -0.00001   0.00000  -0.06012  -0.06082   5.90934
    R6        2.57576   0.00009   0.00000   0.00033   0.00033   2.57609
    R7        2.07648   0.00015   0.00000   0.00003   0.00003   2.07651
    R8        2.08986   0.00009   0.00000   0.00041   0.00041   2.09027
    R9        2.26354   0.00001   0.00000  -0.00019   0.00007   2.26361
   R10        2.09685  -0.00005   0.00000   0.00008   0.00008   2.09693
   R11        6.13400   0.00006   0.00000  -0.04166  -0.04200   6.09200
   R12        6.63167  -0.00013   0.00000  -0.02500  -0.02462   6.60706
   R13        5.68763  -0.00006   0.00000  -0.20769  -0.20550   5.48213
   R14        6.68730   0.00017   0.00000  -0.14186  -0.14132   6.54598
   R15        5.20703   0.00001   0.00000   0.06412   0.06332   5.27036
   R16        5.80355   0.00019   0.00000   0.03589   0.03441   5.83796
   R17        6.17342  -0.00012   0.00000   0.03849   0.03805   6.21147
   R18        2.24570   0.00036   0.00000   0.00016   0.00015   2.24586
    A1        1.94050  -0.00008   0.00000   0.00338  -0.00142   1.93908
    A2        1.88342   0.00002   0.00000  -0.00064   0.00525   1.88867
    A3        1.93996   0.00006   0.00000   0.00244   0.00127   1.94124
    A4        2.93142   0.00007   0.00000   0.02601   0.01680   2.94822
    A5        1.88602   0.00002   0.00000  -0.00326  -0.00358   1.88244
    A6        1.91138   0.00001   0.00000   0.00017   0.00145   1.91283
    A7        1.90117  -0.00003   0.00000  -0.00240  -0.00314   1.89803
    A8        1.99700   0.00015   0.00000  -0.00075  -0.00076   1.99624
    A9        1.95219  -0.00007   0.00000   0.00093   0.00093   1.95313
   A10        1.92790   0.00005   0.00000  -0.00134  -0.00134   1.92656
   A11        1.92028  -0.00007   0.00000   0.00301   0.00301   1.92328
   A12        1.82887  -0.00004   0.00000  -0.00301  -0.00301   1.82586
   A13        1.82597  -0.00003   0.00000   0.00104   0.00104   1.82701
   A14        2.17629  -0.00003   0.00000   0.00010   0.00087   2.17716
   A15        2.00977  -0.00001   0.00000  -0.00026  -0.00052   2.00925
   A16        1.55946   0.00007   0.00000  -0.00128  -0.00200   1.55746
   A17        2.09712   0.00003   0.00000   0.00017  -0.00035   2.09677
   A18        2.29925  -0.00002   0.00000  -0.03852  -0.03670   2.26254
   A19        2.00235  -0.00004   0.00000  -0.03301  -0.03142   1.97093
   A20        1.66634  -0.00006   0.00000   0.05713   0.05651   1.72285
   A21        0.78944   0.00000   0.00000   0.00228   0.00248   0.79192
   A22        1.99114  -0.00007   0.00000   0.01833   0.01797   2.00911
   A23        0.68614   0.00003   0.00000   0.01140   0.01108   0.69722
   A24        0.70795   0.00000   0.00000   0.00273   0.00295   0.71091
   A25        0.62008   0.00001   0.00000   0.01488   0.01303   0.63311
   A26        1.05716   0.00003   0.00000   0.01189   0.01141   1.06857
   A27        0.89970  -0.00002   0.00000  -0.00813  -0.00692   0.89278
   A28        2.31283  -0.00012   0.00000   0.01725   0.01623   2.32907
   A29        0.60980   0.00003   0.00000   0.00749   0.00734   0.61714
   A30        0.93186   0.00003   0.00000   0.00613   0.00589   0.93776
    D1        2.90943   0.00005   0.00000   0.00037   0.00141   2.91084
    D2       -1.17531   0.00002   0.00000   0.00468   0.00571  -1.16960
    D3        0.85097  -0.00003   0.00000   0.00569   0.00672   0.85769
    D4        0.84402   0.00006   0.00000   0.00278   0.00336   0.84739
    D5        3.04247   0.00003   0.00000   0.00709   0.00767   3.05014
    D6       -1.21444  -0.00002   0.00000   0.00810   0.00868  -1.20576
    D7       -1.23956   0.00005   0.00000   0.00468   0.00316  -1.23641
    D8        0.95889   0.00002   0.00000   0.00898   0.00746   0.96635
    D9        2.98516  -0.00003   0.00000   0.00999   0.00847   2.99363
   D10       -0.69772   0.00010   0.00000   0.35239   0.35231  -0.34541
   D11        1.50073   0.00007   0.00000   0.35669   0.35661   1.85734
   D12       -2.75618   0.00002   0.00000   0.35770   0.35762  -2.39856
   D13        2.14856  -0.00004   0.00000   0.03745   0.03361   2.18217
   D14       -0.98894   0.00001   0.00000   0.03322   0.02948  -0.95946
   D15       -3.03413   0.00002   0.00000   0.07119   0.06599  -2.96814
   D16       -2.07079  -0.00006   0.00000   0.03663   0.03698  -2.03381
   D17        1.07491   0.00000   0.00000   0.03240   0.03284   1.10775
   D18       -0.97029   0.00001   0.00000   0.07037   0.06936  -0.90093
   D19       -0.00210  -0.00007   0.00000   0.03195   0.03195   0.02985
   D20       -3.13959  -0.00002   0.00000   0.02772   0.02782  -3.11178
   D21        1.09840  -0.00001   0.00000   0.06569   0.06433   1.16273
   D22        3.06469  -0.00015   0.00000  -0.03466  -0.03753   3.02716
   D23        0.96471  -0.00008   0.00000  -0.03649  -0.03677   0.92793
   D24       -1.11048  -0.00009   0.00000  -0.03348  -0.03472  -1.14519
   D25       -2.34111  -0.00001   0.00000  -0.32126  -0.32278  -2.66389
   D26        2.87157   0.00024   0.00000  -0.30262  -0.30548   2.56609
   D27       -1.37613   0.00004   0.00000   0.00175   0.00042  -1.37570
   D28       -2.36611   0.00004   0.00000  -0.01466  -0.01275  -2.37886
   D29        0.43707   0.00000   0.00000  -0.01697  -0.01748   0.41960
   D30       -1.61478  -0.00002   0.00000  -0.00851  -0.00918  -1.62397
   D31       -0.62449   0.00004   0.00000   0.02245   0.02253  -0.60196
   D32       -0.43082   0.00007   0.00000   0.03210   0.03166  -0.39916
   D33        1.76028   0.00009   0.00000   0.01168   0.01154   1.77183
         Item               Value     Threshold  Converged?
 Maximum Force            0.000359     0.000450     YES
 RMS     Force            0.000082     0.000300     YES
 Maximum Displacement     0.125478     0.001800     NO 
 RMS     Displacement     0.036898     0.001200     NO 
 Predicted change in Energy= 2.451171D-05
 GradGradGradGradGradGradGradGradGradGradGradGradGradGradGradGradGradGrad

                          Input orientation:                          
 ---------------------------------------------------------------------
 Center     Atomic      Atomic             Coordinates (Angstroms)
 Number     Number       Type             X           Y           Z
 ---------------------------------------------------------------------
      1          6           0        0.739899   -0.117409   -0.036978
      2          6           0        2.257962    0.065558    0.003879
      3          6           0        0.030616    1.170257    0.280177
      4          1           0        0.462962   -0.850191    0.727414
      5          1           0        0.413222   -0.484527   -1.008250
      6          8           0        2.965192   -1.099833    0.009052
      7          1           0        2.613674    0.721595   -0.802681
      8          1           0        2.559185    0.578947    0.936192
      9          8           0       -0.791568    1.687331   -0.420892
     10          1           0        0.319005    1.642396    1.242069
     11          8           0       -2.232789   -1.043585   -0.326824
     12          8           0       -2.982369   -0.592440    0.477554
 ---------------------------------------------------------------------
                    Distance matrix (angstroms):
                    1          2          3          4          5
     1  C    0.000000
     2  C    1.529595   0.000000
     3  C    1.503914   2.501554   0.000000
     4  H    1.094513   2.141057   2.114037   0.000000
     5  H    1.088514   2.174872   2.131840   1.774462   0.000000
     6  O    2.432941   1.363208   3.720021   2.615247   2.815326
     7  H    2.191177   1.098842   2.836559   3.072012   2.517732
     8  H    2.177561   1.106124   2.678370   2.545618   3.084962
     9  O    2.397888   3.479973   1.197852   3.054745   2.552151
    10  H    2.215859   2.789102   1.109648   2.549231   3.097840
    11  O    3.127089   4.637500   3.223748   2.901016   2.788953
    12  O    3.787569   5.302679   3.496304   3.463982   3.708004
                    6          7          8          9         10
     6  O    0.000000
     7  H    2.024864   0.000000
     8  H    1.960289   1.745565   0.000000
     9  O    4.697486   3.560067   3.781234   0.000000
    10  H    4.005303   3.208486   2.498577   2.000207   0.000000
    11  O    5.209125   5.179817   5.214483   3.089316   4.023378
    12  O    5.987522   5.889090   5.682545   3.286970   4.059316
                   11         12
    11  O    0.000000
    12  O    1.188455   0.000000
 Stoichiometry    C3H5O4(4)
 Framework group  C1[X(C3H5O4)]
 Deg. of freedom    30
 Full point group                 C1      NOp   1
 Largest Abelian subgroup         C1      NOp   1
 Largest concise Abelian subgroup C1      NOp   1
                         Standard orientation:                         
 ---------------------------------------------------------------------
 Center     Atomic      Atomic             Coordinates (Angstroms)
 Number     Number       Type             X           Y           Z
 ---------------------------------------------------------------------
      1          6           0        0.736611   -0.114489   -0.042356
      2          6           0        2.254112    0.067647    0.018304
      3          6           0        0.023600    1.162880    0.306497
      4          1           0        0.452910   -0.869920    0.697101
      5          1           0        0.419331   -0.452457   -1.027229
      6          8           0        2.961955   -1.097155   -0.004738
      7          1           0        2.617027    0.747655   -0.764854
      8          1           0        2.546218    0.552980    0.968376
      9          8           0       -0.792239    1.700460   -0.386512
     10          1           0        0.302620    1.606091    1.284777
     11          8           0       -2.232658   -1.032498   -0.387881
     12          8           0       -2.990063   -0.605879    0.422526
 ---------------------------------------------------------------------
 Rotational constants (GHZ):      4.1156722      1.0806439      0.8969385
 Standard basis: 6-311+G(2df,2p) (5D, 7F)
 There are   283 symmetry adapted basis functions of A   symmetry.
 Integral buffers will be    131072 words long.
 Raffenetti 2 integral format.
 Two-electron integral symmetry is turned on.
   283 basis functions,   419 primitive gaussians,   318 cartesian basis functions
    29 alpha electrons       26 beta electrons
       nuclear repulsion energy       273.8097410009 Hartrees.
 NAtoms=   12 NActive=   12 NUniq=   12 SFac= 1.00D+00 NAtFMM=   50 NAOKFM=F Big=F
 One-electron integrals computed using PRISM.
 NBasis=   283 RedAO= T  NBF=   283
 NBsUse=   283 1.00D-06 NBFU=   283
 Initial guess read from the read-write file.
 B after Tr=     0.000000    0.000000    0.000000
         Rot=    1.000000    0.000000    0.000000    0.000000 Ang=   0.00 deg.
 Initial guess orbital symmetries:
 Alpha Orbitals:
       Occupied  (A) (A) (A) (A) (A) (A) (A) (A) (A) (A) (A) (A)
                 (A) (A) (A) (A) (A) (A) (A) (A) (A) (A) (A) (A)
                 (A) (A) (A) (A) (A)
       Virtual   (A) (A) (A) (A) (A) (A) (A) (A) (A) (A) (A) (A)
                 (A) (A) (A) (A) (A) (A) (A) (A) (A) (A) (A) (A)
                 (A) (A) (A) (A) (A) (A) (A) (A) (A) (A) (A) (A)
                 (A) (A) (A) (A) (A) (A) (A) (A) (A) (A) (A) (A)
                 (A) (A) (A) (A) (A) (A) (A) (A) (A) (A) (A) (A)
                 (A) (A) (A) (A) (A) (A) (A) (A) (A) (A) (A) (A)
                 (A) (A) (A) (A) (A) (A) (A) (A) (A) (A) (A) (A)
                 (A) (A) (A) (A) (A) (A) (A) (A) (A) (A) (A) (A)
                 (A) (A) (A) (A) (A) (A) (A) (A) (A) (A) (A) (A)
                 (A) (A) (A) (A) (A) (A) (A) (A) (A) (A) (A) (A)
                 (A) (A) (A) (A) (A) (A) (A) (A) (A) (A) (A) (A)
                 (A) (A) (A) (A) (A) (A) (A) (A) (A) (A) (A) (A)
                 (A) (A) (A) (A) (A) (A) (A) (A) (A) (A) (A) (A)
                 (A) (A) (A) (A) (A) (A) (A) (A) (A) (A) (A) (A)
                 (A) (A) (A) (A) (A) (A) (A) (A) (A) (A) (A) (A)
                 (A) (A) (A) (A) (A) (A) (A) (A) (A) (A) (A) (A)
                 (A) (A) (A) (A) (A) (A) (A) (A) (A) (A) (A) (A)
                 (A) (A) (A) (A) (A) (A) (A) (A) (A) (A) (A) (A)
                 (A) (A) (A) (A) (A) (A) (A) (A) (A) (A) (A) (A)
                 (A) (A) (A) (A) (A) (A) (A) (A) (A) (A) (A) (A)
                 (A) (A) (A) (A) (A) (A) (A) (A) (A) (A) (A) (A)
                 (A) (A)
 Beta  Orbitals:
       Occupied  (A) (A) (A) (A) (A) (A) (A) (A) (A) (A) (A) (A)
                 (A) (A) (A) (A) (A) (A) (A) (A) (A) (A) (A) (A)
                 (A) (A)
       Virtual   (A) (A) (A) (A) (A) (A) (A) (A) (A) (A) (A) (A)
                 (A) (A) (A) (A) (A) (A) (A) (A) (A) (A) (A) (A)
                 (A) (A) (A) (A) (A) (A) (A) (A) (A) (A) (A) (A)
                 (A) (A) (A) (A) (A) (A) (A) (A) (A) (A) (A) (A)
                 (A) (A) (A) (A) (A) (A) (A) (A) (A) (A) (A) (A)
                 (A) (A) (A) (A) (A) (A) (A) (A) (A) (A) (A) (A)
                 (A) (A) (A) (A) (A) (A) (A) (A) (A) (A) (A) (A)
                 (A) (A) (A) (A) (A) (A) (A) (A) (A) (A) (A) (A)
                 (A) (A) (A) (A) (A) (A) (A) (A) (A) (A) (A) (A)
                 (A) (A) (A) (A) (A) (A) (A) (A) (A) (A) (A) (A)
                 (A) (A) (A) (A) (A) (A) (A) (A) (A) (A) (A) (A)
                 (A) (A) (A) (A) (A) (A) (A) (A) (A) (A) (A) (A)
                 (A) (A) (A) (A) (A) (A) (A) (A) (A) (A) (A) (A)
                 (A) (A) (A) (A) (A) (A) (A) (A) (A) (A) (A) (A)
                 (A) (A) (A) (A) (A) (A) (A) (A) (A) (A) (A) (A)
                 (A) (A) (A) (A) (A) (A) (A) (A) (A) (A) (A) (A)
                 (A) (A) (A) (A) (A) (A) (A) (A) (A) (A) (A) (A)
                 (A) (A) (A) (A) (A) (A) (A) (A) (A) (A) (A) (A)
                 (A) (A) (A) (A) (A) (A) (A) (A) (A) (A) (A) (A)
                 (A) (A) (A) (A) (A) (A) (A) (A) (A) (A) (A) (A)
                 (A) (A) (A) (A) (A) (A) (A) (A) (A) (A) (A) (A)
                 (A) (A) (A) (A) (A)
 Initial guess <Sx>= 0.0000 <Sy>= 0.0000 <Sz>= 1.5000 <S**2>= 3.7668 S= 1.5042
 Harris functional with IExCor= 1009 diagonalized for initial guess.
 ExpMin= 4.38D-02 ExpMax= 8.59D+03 ExpMxC= 1.30D+03 IAcc=2 IRadAn=         0 AccDes= 0.00D+00
 HarFok:  IExCor= 1009 AccDes= 0.00D+00 IRadAn=         0 IDoV= 1
 ScaDFX=  1.000000  1.000000  1.000000  1.000000
 FoFCou: FMM=F IPFlag=           0 FMFlag=      100000 FMFlg1=           0
         NFxFlg=           0 DoJE=T BraDBF=F KetDBF=T FulRan=T
         Omega=  0.000000  0.000000  1.000000  0.000000  0.000000 ICntrl=     500 IOpCl=  0
         NMat0=    1 NMatS0=    1 NMatT0=    0 NMatD0=    1 NMtDS0=    0 NMtDT0=    0
         I1Cent=           4 NGrid=           0.
 Petite list used in FoFCou.
 Requested convergence on RMS density matrix=1.00D-08 within 128 cycles.
 Requested convergence on MAX density matrix=1.00D-06.
 Requested convergence on             energy=1.00D-06.
 No special actions if energy rises.
 SCF Done:  E(UM062X) =  -417.979096908     A.U. after   18 cycles
             Convg  =    0.7086D-08             -V/T =  2.0029
 <Sx>= 0.0000 <Sy>= 0.0000 <Sz>= 1.5000 <S**2>= 3.7668 S= 1.5042
 <L.S>= 0.000000000000E+00
 Annihilation of the first spin contaminant:
 S**2 before annihilation     3.7668,   after     3.7501
 Calling FoFJK, ICntrl=      2127 FMM=F ISym2X=0 I1Cent= 0 IOpClX= 1 NMat=1 NMatS=1 NMatT=0.
 ***** Axes restored to original set *****
 -------------------------------------------------------------------
 Center     Atomic                   Forces (Hartrees/Bohr)
 Number     Number              X              Y              Z
 -------------------------------------------------------------------
      1        6          -0.000055601    0.000149745   -0.000205066
      2        6          -0.000307374   -0.000611691    0.000448365
      3        6          -0.000766488    0.000108120   -0.000161181
      4        1           0.000681392    0.000102460   -0.000099345
      5        1          -0.000025438    0.000123870    0.000292918
      6        8           0.000226676    0.000013686   -0.000231761
      7        1           0.000042174    0.000056812   -0.000031978
      8        1           0.000047575    0.000108942    0.000021122
      9        8           0.000230845   -0.000021639    0.000063872
     10        1           0.000057110   -0.000079256   -0.000032393
     11        8           0.000004290   -0.000483154   -0.000168138
     12        8          -0.000135161    0.000532105    0.000103584
 -------------------------------------------------------------------
 Cartesian Forces:  Max     0.000766488 RMS     0.000274725

 GradGradGradGradGradGradGradGradGradGradGradGradGradGradGradGradGradGrad
 Berny optimization.
 Internal  Forces:  Max     0.000356109 RMS     0.000114395
 Search for a saddle point.
 Step number   2 out of a maximum of   91
 All quantities printed in internal units (Hartrees-Bohrs-Radians)
 Swaping is turned off.
 Update second derivatives using D2CorX and points    1    2
 ITU=  0  0
     Eigenvalues ---    0.00003   0.00047   0.00086   0.00111   0.00113
     Eigenvalues ---    0.00145   0.00383   0.01082   0.01904   0.02246
     Eigenvalues ---    0.02478   0.03241   0.03537   0.03904   0.05963
     Eigenvalues ---    0.06148   0.12679   0.13244   0.14745   0.20429
     Eigenvalues ---    0.22131   0.27353   0.28482   0.30498   0.31038
     Eigenvalues ---    0.31556   0.31859   0.40017   0.78199   0.84231
 Eigenvectors required to have negative eigenvalues:
                          D12       D11       D10       D25       D26
   1                    0.44058   0.43942   0.43748  -0.39776  -0.36867
                          R13       R14       D15       D18       R15
   1                   -0.20528  -0.16686   0.07279   0.07157   0.06600
 RFO step:  Lambda0=4.872537149D-05 Lambda=-8.57104290D-05.
 Linear search not attempted -- option 19 set.
 Maximum step size (   0.300) exceeded in Quadratic search.
    -- Step size scaled by   0.630
 Iteration  1 RMS(Cart)=  0.02865256 RMS(Int)=  0.06185195
 Iteration  2 RMS(Cart)=  0.01773205 RMS(Int)=  0.01540676
 Iteration  3 RMS(Cart)=  0.00668333 RMS(Int)=  0.00290766
 Iteration  4 RMS(Cart)=  0.00044470 RMS(Int)=  0.00289841
 Iteration  5 RMS(Cart)=  0.00000181 RMS(Int)=  0.00289841
 Iteration  6 RMS(Cart)=  0.00000006 RMS(Int)=  0.00289841
 Variable       Old X    -DE/DX   Delta X   Delta X   Delta X     New X
                                 (Linear)    (Quad)   (Total)
    R1        2.89052  -0.00003   0.00000  -0.00182  -0.00182   2.88870
    R2        2.84198   0.00018   0.00000   0.00000   0.00074   2.84273
    R3        2.06833  -0.00024   0.00000   0.00089   0.00159   2.06992
    R4        2.05699  -0.00023   0.00000   0.00050   0.00148   2.05847
    R5        5.90934  -0.00001   0.00000  -0.02568  -0.02684   5.88250
    R6        2.57609   0.00010   0.00000   0.00038   0.00038   2.57647
    R7        2.07651   0.00007   0.00000   0.00044   0.00044   2.07695
    R8        2.09027   0.00008   0.00000   0.00017   0.00017   2.09044
    R9        2.26361  -0.00020   0.00000  -0.00017  -0.00053   2.26309
   R10        2.09693  -0.00004   0.00000  -0.00009  -0.00009   2.09685
   R11        6.09200   0.00000   0.00000   0.01067   0.00769   6.09969
   R12        6.60706  -0.00023   0.00000  -0.04272  -0.04329   6.56376
   R13        5.48213   0.00013   0.00000  -0.19143  -0.19374   5.28839
   R14        6.54598   0.00031   0.00000  -0.14244  -0.14144   6.40454
   R15        5.27036  -0.00007   0.00000   0.09618   0.10075   5.37111
   R16        5.83796   0.00013   0.00000   0.07178   0.07188   5.90984
   R17        6.21147  -0.00015   0.00000  -0.01685  -0.01475   6.19672
   R18        2.24586   0.00029   0.00000  -0.00106  -0.00485   2.24100
    A1        1.93908   0.00017   0.00000   0.00895   0.00170   1.94078
    A2        1.88867  -0.00013   0.00000  -0.00465  -0.00691   1.88176
    A3        1.94124  -0.00003   0.00000   0.00384   0.01305   1.95429
    A4        2.94822  -0.00015   0.00000  -0.01201  -0.02326   2.92496
    A5        1.88244   0.00007   0.00000  -0.00298  -0.00246   1.87998
    A6        1.91283  -0.00014   0.00000  -0.00206  -0.00224   1.91059
    A7        1.89803   0.00006   0.00000  -0.00361  -0.00387   1.89416
    A8        1.99624   0.00036   0.00000  -0.00176  -0.00176   1.99449
    A9        1.95313  -0.00010   0.00000   0.00244   0.00244   1.95557
   A10        1.92656   0.00002   0.00000   0.00025   0.00025   1.92681
   A11        1.92328  -0.00021   0.00000  -0.00074  -0.00074   1.92254
   A12        1.82586  -0.00006   0.00000   0.00031   0.00031   1.82617
   A13        1.82701  -0.00003   0.00000  -0.00055  -0.00055   1.82645
   A14        2.17716   0.00001   0.00000  -0.00157  -0.00143   2.17573
   A15        2.00925  -0.00006   0.00000   0.00115   0.00024   2.00949
   A16        1.55746   0.00006   0.00000   0.00073   0.00043   1.55789
   A17        2.09677   0.00006   0.00000   0.00041   0.00117   2.09794
   A18        2.26254   0.00001   0.00000  -0.02829  -0.03084   2.23170
   A19        1.97093  -0.00001   0.00000  -0.01897  -0.01994   1.95099
   A20        1.72285  -0.00009   0.00000   0.05285   0.05226   1.77511
   A21        0.79192  -0.00001   0.00000  -0.00340  -0.00338   0.78854
   A22        2.00911  -0.00010   0.00000  -0.00713  -0.00558   2.00353
   A23        0.69722   0.00001   0.00000   0.00565   0.00560   0.70281
   A24        0.71091  -0.00004   0.00000  -0.00454  -0.00431   0.70660
   A25        0.63311  -0.00007   0.00000   0.00839   0.00630   0.63941
   A26        1.06857  -0.00003   0.00000   0.00271   0.00231   1.07088
   A27        0.89278  -0.00006   0.00000  -0.01521  -0.01496   0.87783
   A28        2.32907  -0.00018   0.00000  -0.02051  -0.02144   2.30763
   A29        0.61714   0.00001   0.00000   0.00819   0.00843   0.62557
   A30        0.93776  -0.00002   0.00000   0.00740   0.00734   0.94509
    D1        2.91084   0.00016   0.00000   0.03549   0.03395   2.94479
    D2       -1.16960   0.00009   0.00000   0.03510   0.03356  -1.13603
    D3        0.85769   0.00000   0.00000   0.03607   0.03453   0.89222
    D4        0.84739   0.00006   0.00000   0.03678   0.04020   0.88758
    D5        3.05014  -0.00001   0.00000   0.03638   0.03980   3.08994
    D6       -1.20576  -0.00011   0.00000   0.03735   0.04077  -1.16499
    D7       -1.23641   0.00009   0.00000   0.04185   0.04159  -1.19482
    D8        0.96635   0.00002   0.00000   0.04146   0.04119   1.00754
    D9        2.99363  -0.00008   0.00000   0.04243   0.04216   3.03579
   D10       -0.34541   0.00017   0.00000   0.48403   0.48242   0.13701
   D11        1.85734   0.00010   0.00000   0.48364   0.48202   2.33937
   D12       -2.39856   0.00000   0.00000   0.48461   0.48299  -1.91557
   D13        2.18217  -0.00010   0.00000   0.05653   0.06230   2.24447
   D14       -0.95946   0.00000   0.00000   0.04992   0.05543  -0.90403
   D15       -2.96814  -0.00002   0.00000   0.07062   0.07754  -2.89060
   D16       -2.03381  -0.00012   0.00000   0.05420   0.05337  -1.98043
   D17        1.10775  -0.00002   0.00000   0.04759   0.04650   1.15425
   D18       -0.90093  -0.00003   0.00000   0.06829   0.06861  -0.83232
   D19        0.02985  -0.00008   0.00000   0.04700   0.04610   0.07595
   D20       -3.11178   0.00001   0.00000   0.04039   0.03922  -3.07256
   D21        1.16273   0.00000   0.00000   0.06109   0.06134   1.22406
   D22        3.02716   0.00008   0.00000  -0.03459  -0.04617   2.98099
   D23        0.92793  -0.00009   0.00000  -0.04097  -0.04294   0.88500
   D24       -1.14519   0.00000   0.00000  -0.03483  -0.03678  -1.18197
   D25       -2.66389  -0.00003   0.00000  -0.42015  -0.41790  -3.08179
   D26        2.56609   0.00017   0.00000  -0.35583  -0.35330   2.21279
   D27       -1.37570   0.00000   0.00000  -0.00077  -0.00326  -1.37896
   D28       -2.37886   0.00010   0.00000  -0.01441  -0.01316  -2.39203
   D29        0.41960  -0.00008   0.00000  -0.01895  -0.02026   0.39934
   D30       -1.62397  -0.00004   0.00000  -0.01675  -0.01684  -1.64081
   D31       -0.60196   0.00000   0.00000   0.02391   0.02525  -0.57670
   D32       -0.39916   0.00004   0.00000   0.03330   0.03507  -0.36409
   D33        1.77183   0.00003   0.00000   0.03250   0.03358   1.80541
         Item               Value     Threshold  Converged?
 Maximum Force            0.000356     0.000450     YES
 RMS     Force            0.000114     0.000300     YES
 Maximum Displacement     0.160822     0.001800     NO 
 RMS     Displacement     0.047499     0.001200     NO 
 Predicted change in Energy= 1.497662D-05
 GradGradGradGradGradGradGradGradGradGradGradGradGradGradGradGradGradGrad

                          Input orientation:                          
 ---------------------------------------------------------------------
 Center     Atomic      Atomic             Coordinates (Angstroms)
 Number     Number       Type             X           Y           Z
 ---------------------------------------------------------------------
      1          6           0        0.737093   -0.103322   -0.079995
      2          6           0        2.253267    0.059899    0.026278
      3          6           0        0.027607    1.183728    0.241043
      4          1           0        0.427468   -0.848359    0.660854
      5          1           0        0.432598   -0.449326   -1.066975
      6          8           0        2.947374   -1.112966   -0.012294
      7          1           0        2.646807    0.757734   -0.726132
      8          1           0        2.525045    0.513618    0.997866
      9          8           0       -0.804667    1.693991   -0.452596
     10          1           0        0.321514    1.657292    1.200509
     11          8           0       -2.210279   -1.091710   -0.241720
     12          8           0       -2.948837   -0.582481    0.533874
 ---------------------------------------------------------------------
[...]
 Alpha virt. eigenvalues --    3.05171   3.06122   3.10059   3.11407   3.15202
 Alpha virt. eigenvalues --    3.16388   3.19338   3.24657   3.27741   3.29863
 Alpha virt. eigenvalues --    3.32303   3.32957   3.39237   3.42264   3.47955
 Alpha virt. eigenvalues --    3.49422   3.53133   3.56738   3.60168   3.62013
 Alpha virt. eigenvalues --    3.65999   3.68971   3.73427   3.75482   3.81428
 Alpha virt. eigenvalues --    3.85742   3.86217   3.92382   3.94351   3.95680
 Alpha virt. eigenvalues --    3.98676   4.05551   4.11337   4.15227   4.17854
 Alpha virt. eigenvalues --    4.23347   4.26781   4.30533   4.34699   4.38680
 Alpha virt. eigenvalues --    4.40554   4.45758   4.46870   4.48112   4.48500
 Alpha virt. eigenvalues --    4.48875   4.50114   4.51757   4.62488   4.65725
 Alpha virt. eigenvalues --    4.79507   4.80787   4.80961   4.85888   4.92179
 Alpha virt. eigenvalues --    4.95971   4.98149   5.03047   5.03058   5.06724
 Alpha virt. eigenvalues --    5.07360   5.07525   5.07643   5.08086   5.09233
 Alpha virt. eigenvalues --    5.09884   5.12716   5.19567   5.20757   5.25751
 Alpha virt. eigenvalues --    5.27300   5.27599   5.32117   5.37485   5.40513
 Alpha virt. eigenvalues --    5.44794   5.48394   5.51452   5.54241   5.61198
 Alpha virt. eigenvalues --    5.67877   5.67940   5.79609   5.88455   5.93873
 Alpha virt. eigenvalues --    6.28304   6.52661   6.55268   6.60631   6.63676
 Alpha virt. eigenvalues --    6.68780   6.70498   6.73104   6.73872   6.76208
 Alpha virt. eigenvalues --    6.77031   6.78517   6.84145   6.87793   6.89047
 Alpha virt. eigenvalues --    6.91762   7.08483   7.16513   7.21246   7.24079
 Alpha virt. eigenvalues --    7.24373   7.25949   7.38840   7.51526   7.62514
 Alpha virt. eigenvalues --    7.97049   8.00201  24.32644  24.46749  24.66692
 Alpha virt. eigenvalues --   49.94709  50.05297  50.10370  50.25930
  Beta  occ. eigenvalues --  -19.77445 -19.77359 -19.66909 -19.64167 -10.64384
  Beta  occ. eigenvalues --  -10.61691 -10.55878  -1.40375  -1.19403  -1.11711
  Beta  occ. eigenvalues --   -0.88549  -0.86510  -0.73489  -0.67655  -0.60813
  Beta  occ. eigenvalues --   -0.58981  -0.55883  -0.55560  -0.55457  -0.53356
  Beta  occ. eigenvalues --   -0.52592  -0.49418  -0.46347  -0.44806  -0.36763
  Beta  occ. eigenvalues --   -0.33874
  Beta virt. eigenvalues --   -0.09684  -0.06655  -0.06367  -0.00328   0.01528
  Beta virt. eigenvalues --    0.02709   0.02987   0.03890   0.06475   0.06902
  Beta virt. eigenvalues --    0.07576   0.07838   0.08023   0.10946   0.12072
  Beta virt. eigenvalues --    0.13499   0.14133   0.17235   0.18310   0.18342
  Beta virt. eigenvalues --    0.19253   0.20679   0.22093   0.22883   0.23504
  Beta virt. eigenvalues --    0.24038   0.24751   0.25102   0.25695   0.26186
  Beta virt. eigenvalues --    0.27567   0.28185   0.31749   0.32351   0.32413
  Beta virt. eigenvalues --    0.33021   0.33630   0.34342   0.36954   0.37781
  Beta virt. eigenvalues --    0.40517   0.41431   0.42746   0.47874   0.50712
  Beta virt. eigenvalues --    0.52859   0.54192   0.55908   0.57139   0.58107
  Beta virt. eigenvalues --    0.60634   0.61691   0.63300   0.64410   0.66720
  Beta virt. eigenvalues --    0.67621   0.69896   0.74873   0.76889   0.78268
  Beta virt. eigenvalues --    0.79199   0.81920   0.87287   0.93446   0.95774
  Beta virt. eigenvalues --    0.98886   0.99548   1.01418   1.02799   1.03540
  Beta virt. eigenvalues --    1.04180   1.04965   1.06506   1.08071   1.09544
  Beta virt. eigenvalues --    1.11836   1.13071   1.13799   1.15477   1.15923
  Beta virt. eigenvalues --    1.16640   1.18947   1.19910   1.21287   1.24041
  Beta virt. eigenvalues --    1.24806   1.26869   1.29869   1.30707   1.32056
  Beta virt. eigenvalues --    1.34610   1.35901   1.37170   1.38423   1.40220
  Beta virt. eigenvalues --    1.42335   1.42758   1.44855   1.47539   1.48918
  Beta virt. eigenvalues --    1.50879   1.51728   1.56757   1.57780   1.59504
  Beta virt. eigenvalues --    1.66096   1.66372   1.68684   1.72138   1.73424
  Beta virt. eigenvalues --    1.77552   1.77892   1.79955   1.81674   1.96799
  Beta virt. eigenvalues --    2.06033   2.10263   2.12557   2.30217   2.30577
  Beta virt. eigenvalues --    2.30787   2.32776   2.37050   2.47391   2.51802
  Beta virt. eigenvalues --    2.54689   2.55750   2.56583   2.59254   2.63237
  Beta virt. eigenvalues --    2.73761   2.79160   2.81809   2.84783   2.88781
  Beta virt. eigenvalues --    2.95639   2.98686   2.99770   3.05056   3.06001
  Beta virt. eigenvalues --    3.09970   3.11229   3.15079   3.16279   3.18933
  Beta virt. eigenvalues --    3.24516   3.27536   3.29667   3.32038   3.32685
  Beta virt. eigenvalues --    3.38993   3.42348   3.47953   3.48663   3.52629
  Beta virt. eigenvalues --    3.56631   3.60004   3.62008   3.65726   3.68856
  Beta virt. eigenvalues --    3.73401   3.75644   3.81067   3.85522   3.86180
  Beta virt. eigenvalues --    3.92207   3.94126   3.95577   3.98515   4.05409
  Beta virt. eigenvalues --    4.11201   4.14945   4.17746   4.22997   4.26357
  Beta virt. eigenvalues --    4.30530   4.34585   4.38404   4.40507   4.45527
  Beta virt. eigenvalues --    4.48184   4.49721   4.50708   4.50939   4.51161
  Beta virt. eigenvalues --    4.53544   4.62786   4.65779   4.79616   4.83411
  Beta virt. eigenvalues --    4.83573   4.88472   4.97245   4.98921   5.00631
  Beta virt. eigenvalues --    5.06275   5.08121   5.08421   5.09188   5.09496
  Beta virt. eigenvalues --    5.10257   5.10542   5.12126   5.13891   5.15995
  Beta virt. eigenvalues --    5.20163   5.21820   5.27314   5.29409   5.29693
  Beta virt. eigenvalues --    5.32844   5.39018   5.40833   5.44935   5.48930
  Beta virt. eigenvalues --    5.51573   5.54354   5.61479   5.69573   5.69629
  Beta virt. eigenvalues --    5.79610   5.91967   5.94321   6.28352   6.61274
  Beta virt. eigenvalues --    6.64309   6.64446   6.67008   6.77585   6.78109
  Beta virt. eigenvalues --    6.80645   6.81450   6.83289   6.84338   6.88271
  Beta virt. eigenvalues --    6.89756   6.90222   6.92274   6.96028   7.08746
  Beta virt. eigenvalues --    7.21663   7.25431   7.26502   7.27362   7.29778
  Beta virt. eigenvalues --    7.38973   7.56088   7.62619   7.99798   8.00593
  Beta virt. eigenvalues --   24.32595  24.46569  24.66674  49.93354  50.04900
  Beta virt. eigenvalues --   50.09018  50.25920
          Condensed to atoms (all electrons):
              1          2          3          4          5          6
     1  C    5.842254  -0.061856  -0.165080   0.434535   0.411983  -0.128458
     2  C   -0.061856   5.335982   0.068251  -0.019151  -0.016244   0.191848
     3  C   -0.165080   0.068251   5.368396  -0.054623  -0.034691   0.038894
     4  H    0.434535  -0.019151  -0.054623   0.495281  -0.026820   0.003452
     5  H    0.411983  -0.016244  -0.034691  -0.026820   0.473762   0.003741
     6  O   -0.128458   0.191848   0.038894   0.003452   0.003741   8.130066
     7  H   -0.048196   0.433293  -0.013330   0.004235  -0.006101  -0.026799
     8  H   -0.042263   0.416740  -0.005149  -0.005448   0.004043  -0.031217
     9  O   -0.068805  -0.033907   0.384860   0.004777  -0.008604  -0.001022
    10  H   -0.028937   0.002933   0.387928  -0.001843   0.002582  -0.000714
    11  O   -0.005029   0.017976  -0.006455   0.000861   0.001704   0.000094
    12  O   -0.020634  -0.000365   0.039233   0.000024  -0.000838   0.000037
              7          8          9         10         11         12
     1  C   -0.048196  -0.042263  -0.068805  -0.028937  -0.005029  -0.020634
     2  C    0.433293   0.416740  -0.033907   0.002933   0.017976  -0.000365
     3  C   -0.013330  -0.005149   0.384860   0.387928  -0.006455   0.039233
     4  H    0.004235  -0.005448   0.004777  -0.001843   0.000861   0.000024
     5  H   -0.006101   0.004043  -0.008604   0.002582   0.001704  -0.000838
     6  O   -0.026799  -0.031217  -0.001022  -0.000714   0.000094   0.000037
     7  H    0.490666  -0.027755   0.002808   0.000562  -0.000042   0.000009
     8  H   -0.027755   0.520507  -0.000484  -0.000606  -0.000014   0.000000
     9  O    0.002808  -0.000484   8.069832  -0.052250  -0.004365   0.001758
    10  H    0.000562  -0.000606  -0.052250   0.528541  -0.001547  -0.001129
    11  O   -0.000042  -0.000014  -0.004365  -0.001547   7.721936   0.301456
    12  O    0.000009   0.000000   0.001758  -0.001129   0.301456   7.603090
 Mulliken atomic charges:
              1
     1  C   -0.119511
     2  C   -0.335501
     3  C   -0.008233
     4  H    0.164719
     5  H    0.195483
     6  O   -0.179920
     7  H    0.190651
     8  H    0.171646
     9  O   -0.294599
    10  H    0.164480
    11  O   -0.026574
    12  O    0.077358
 Sum of Mulliken atomic charges =   0.00000
 Mulliken charges with hydrogens summed into heavy atoms:
              1
     1  C    0.240691
     2  C    0.026796
     3  C    0.156248
     6  O   -0.179920
     9  O   -0.294599
    11  O   -0.026574
    12  O    0.077358
 Sum of Mulliken charges with hydrogens summed into heavy atoms =   0.00000
          Atomic-Atomic Spin Densities.
              1          2          3          4          5          6
     1  C    0.005640   0.018344  -0.015841  -0.003970   0.000393  -0.017993
     2  C    0.018344  -0.089589   0.003415   0.000586  -0.002994  -0.003389
     3  C   -0.015841   0.003415   0.002824   0.001454   0.002915  -0.002441
     4  H   -0.003970   0.000586   0.001454   0.004696  -0.001278   0.002068
     5  H    0.000393  -0.002994   0.002915  -0.001278   0.002933   0.001895
     6  O   -0.017993  -0.003389  -0.002441   0.002068   0.001895   0.957946
     7  H    0.004979   0.025952  -0.006136   0.001123  -0.002520  -0.019719
     8  H    0.010677   0.006522   0.005115  -0.002587   0.001067  -0.019726
     9  O   -0.003018   0.001255   0.003717   0.000077  -0.000009  -0.000008
    10  H    0.000041   0.001206  -0.000612   0.000118  -0.000138   0.000049
    11  O    0.009249  -0.001763  -0.006912   0.000277  -0.000508  -0.000023
    12  O    0.000607  -0.000131   0.001263  -0.000054  -0.000086   0.000002
              7          8          9         10         11         12
     1  C    0.004979   0.010677  -0.003018   0.000041   0.009249   0.000607
     2  C    0.025952   0.006522   0.001255   0.001206  -0.001763  -0.000131
     3  C   -0.006136   0.005115   0.003717  -0.000612  -0.006912   0.001263
     4  H    0.001123  -0.002587   0.000077   0.000118   0.000277  -0.000054
     5  H   -0.002520   0.001067  -0.000009  -0.000138  -0.000508  -0.000086
     6  O   -0.019719  -0.019726  -0.000008   0.000049  -0.000023   0.000002
     7  H    0.088641  -0.022430   0.000522   0.000157   0.000005   0.000003
     8  H   -0.022430   0.090662  -0.000512  -0.000452  -0.000006   0.000001
     9  O    0.000522  -0.000512   0.003054  -0.000558   0.000848   0.000131
    10  H    0.000157  -0.000452  -0.000558   0.002181  -0.000593   0.000075
    11  O    0.000005  -0.000006   0.000848  -0.000593   1.430006  -0.445356
    12  O    0.000003   0.000001   0.000131   0.000075  -0.445356   1.452326
 Mulliken atomic spin densities:
              1
     1  C    0.009107
     2  C   -0.040586
     3  C   -0.011240
     4  H    0.002510
     5  H    0.001669
     6  O    0.898661
     7  H    0.070575
     8  H    0.068329
     9  O    0.005499
    10  H    0.001473
    11  O    0.985223
    12  O    1.008780
 Sum of Mulliken atomic spin densities =   3.00000
 Electronic spatial extent (au):  <R**2>=           1206.3567
 Charge=              0.0000 electrons
 Dipole moment (field-independent basis, Debye):
    X=             -0.4106    Y=             -0.5911    Z=              1.7735  Tot=              1.9140
 Quadrupole moment (field-independent basis, Debye-Ang):
   XX=            -44.8757   YY=            -46.1218   ZZ=            -38.0349
   XY=              6.4027   XZ=              0.9546   YZ=              1.5435
 Traceless Quadrupole moment (field-independent basis, Debye-Ang):
   XX=             -1.8649   YY=             -3.1110   ZZ=              4.9759
   XY=              6.4027   XZ=              0.9546   YZ=              1.5435
 Octapole moment (field-independent basis, Debye-Ang**2):
  XXX=            -41.6212  YYY=            -11.8677  ZZZ=             -0.9572  XYY=             -6.9196
  XXY=             13.5496  XXZ=              4.1378  XZZ=             -2.6448  YZZ=             -1.3107
  YYZ=              2.9651  XYZ=             -2.7202
 Hexadecapole moment (field-independent basis, Debye-Ang**3):
 XXXX=          -1174.4507 YYYY=           -271.0189 ZZZZ=            -70.8202 XXXY=             58.5671
 XXXZ=             13.3050 YYYX=             17.1553 YYYZ=              0.9226 ZZZX=             -0.3873
 ZZZY=              1.4284 XXYY=           -231.7692 XXZZ=           -181.5707 YYZZ=            -52.1145
 XXYZ=             -5.4635 YYXZ=              1.3501 ZZXY=              1.9169
 N-N= 2.728160422951D+02 E-N=-2.265632960265D+03  KE= 6.202998909332D+02
                          Isotropic Fermi Contact Couplings
        Atom                 a.u.       MegaHertz       Gauss      10(-4) cm-1
     1  C(13)             -0.00421      -1.57924      -0.56351      -0.52678
     2  C(13)             -0.03220     -12.06734      -4.30593      -4.02523
     3  C(13)             -0.00002      -0.00772      -0.00275      -0.00257
     4  H(1)               0.00004       0.05714       0.02039       0.01906
     5  H(1)               0.00045       0.67240       0.23993       0.22429
     6  O(17)              0.13343     -26.96080      -9.62028      -8.99315
     7  H(1)               0.03787      56.42543      20.13400      18.82150
     8  H(1)               0.03510      52.29367      18.65968      17.44329
     9  O(17)              0.00089      -0.17955      -0.06407      -0.05989
    10  H(1)               0.00023       0.34503       0.12311       0.11509
    11  O(17)              0.17627     -35.61807     -12.70941     -11.88091
    12  O(17)              0.18881     -38.15237     -13.61371     -12.72626
 --------------------------------------------------------
       Center         ----  Spin Dipole Couplings  ----
                      3XX-RR        3YY-RR        3ZZ-RR
 --------------------------------------------------------
     1   Atom        0.027437     -0.012180     -0.015258
     2   Atom       -0.009034     -0.002994      0.012028
     3   Atom        0.012487     -0.003881     -0.008606
     4   Atom        0.024031     -0.013469     -0.010562
     5   Atom        0.025403     -0.013855     -0.011549
     6   Atom       -1.740534     -1.486290      3.226824
     7   Atom       -0.005716      0.019336     -0.013620
     8   Atom       -0.005832      0.004276      0.001556
     9   Atom        0.013964     -0.000397     -0.013567
    10   Atom        0.006245     -0.001892     -0.004353
    11   Atom       -1.242579      0.338947      0.903632
    12   Atom       -1.276941      0.350203      0.926738
 --------------------------------------------------------
                        XY            XZ            YZ
 --------------------------------------------------------
     1   Atom       -0.001584     -0.001834      0.001358
     2   Atom       -0.037772     -0.005975     -0.002462
     3   Atom        0.006363      0.000986      0.000557
     4   Atom       -0.000417     -0.000922     -0.000840
     5   Atom        0.000145     -0.002669     -0.000661
     6   Atom       -0.059232      0.321813     -1.215080
     7   Atom       -0.005999     -0.001262     -0.012080
     8   Atom       -0.003332     -0.001178      0.020787
     9   Atom        0.013555      0.001695      0.002706
    10   Atom        0.007254      0.005955      0.006782
    11   Atom        1.507510     -0.960446      0.575513
    12   Atom        1.563065     -0.983304      0.598278
 --------------------------------------------------------


 ---------------------------------------------------------------------------------
              Anisotropic Spin Dipole Couplings in Principal Axis System
 ---------------------------------------------------------------------------------

       Atom             a.u.   MegaHertz   Gauss  10(-4) cm-1        Axes

              Baa    -0.0158    -2.121    -0.757    -0.707  0.0274 -0.3403  0.9399
     1 C(13)  Bbb    -0.0118    -1.581    -0.564    -0.527  0.0538  0.9394  0.3385
              Bcc     0.0276     3.701     1.321     1.235  0.9982 -0.0413 -0.0440
 
              Baa    -0.0446    -5.979    -2.133    -1.994  0.7327  0.6722  0.1066
     2 C(13)  Bbb     0.0124     1.667     0.595     0.556 -0.0008 -0.1558  0.9878
              Bcc     0.0321     4.312     1.539     1.438 -0.6806  0.7238  0.1136
 
              Baa    -0.0087    -1.164    -0.415    -0.388 -0.0193 -0.0901  0.9957
     3 C(13)  Bbb    -0.0060    -0.811    -0.290    -0.271 -0.3275  0.9416  0.0788
              Bcc     0.0147     1.976     0.705     0.659  0.9447  0.3245  0.0477
 
              Baa    -0.0137    -7.312    -2.609    -2.439  0.0171  0.9647  0.2628
     4 H(1)   Bbb    -0.0104    -5.525    -1.971    -1.843  0.0227 -0.2631  0.9645
              Bcc     0.0241    12.837     4.581     4.282  0.9996 -0.0105 -0.0264
 
              Baa    -0.0140    -7.490    -2.673    -2.499  0.0148  0.9624  0.2713
     5 H(1)   Bbb    -0.0116    -6.166    -2.200    -2.057  0.0704 -0.2717  0.9598
              Bcc     0.0256    13.657     4.873     4.555  0.9974  0.0049 -0.0717
 
              Baa    -1.7919   129.657    46.265    43.249 -0.5057  0.8305  0.2335
     6 O(17)  Bbb    -1.7500   126.628    45.184    42.239  0.8605  0.5050  0.0676
              Bcc     3.5418  -256.286   -91.449   -85.488  0.0617 -0.2351  0.9700
 
              Baa    -0.0184    -9.796    -3.495    -3.267  0.2481  0.3312  0.9104
     7 H(1)   Bbb    -0.0059    -3.137    -1.119    -1.046  0.9527  0.0871 -0.2913
              Bcc     0.0242    12.932     4.615     4.314 -0.1758  0.9395 -0.2939
 
              Baa    -0.0181    -9.648    -3.443    -3.218 -0.1173 -0.6855  0.7185
     8 H(1)   Bbb    -0.0060    -3.209    -1.145    -1.071  0.9872 -0.0021  0.1593
              Bcc     0.0241    12.857     4.588     4.289 -0.1077  0.7281  0.6770
 
              Baa    -0.0142     1.025     0.366     0.342  0.0633 -0.2522  0.9656
     9 O(17)  Bbb    -0.0082     0.592     0.211     0.198 -0.5194  0.8178  0.2477
              Bcc     0.0223    -1.617    -0.577    -0.539  0.8522  0.5173  0.0792
 
              Baa    -0.0100    -5.344    -1.907    -1.783  0.0078 -0.6449  0.7642
    10 H(1)   Bbb    -0.0045    -2.378    -0.849    -0.793  0.6592 -0.5713 -0.4889
              Bcc     0.0145     7.723     2.756     2.576  0.7519  0.5076  0.4207
 
              Baa    -2.5203   182.366    65.073    60.831  0.8135 -0.4915  0.3108
    11 O(17)  Bbb     1.2496   -90.420   -32.264   -30.161  0.4509  0.8707  0.1966
              Bcc     1.2707   -91.946   -32.808   -30.670 -0.3672 -0.0198  0.9299
 
              Baa    -2.6010   188.209    67.158    62.780  0.8127 -0.4933  0.3102
    12 O(17)  Bbb     1.2983   -93.947   -33.523   -31.337  0.5752  0.7645 -0.2911
              Bcc     1.3027   -94.261   -33.635   -31.442 -0.0935  0.4150  0.9050
 

 ---------------------------------------------------------------------------------



 THEREFORE SHALL EVIL COME UPON THEE...
 THOU SHALT NOT KNOW FROM WHENCE IT RISETH...
 AND MISCHIEF SHALL FALL UPON THEE...
 THOU SHALT NOT BE ABLE TO PUT IT OFF...
 AND DESOLATION SHALL COME UPON THEE SUDDENLY...
 WHICH THOU SHALT NOT KNOW...

                                         ISAIAH 47.11
 Error termination request processed by link 9999.
 Error termination via Lnk1e in /shared/apps/gaussian/G09_LINUX_LINDA/g09/l9999.exe at Sat Aug 19 08:54:46 2017.
 Job cpu time:  2 days 15 hours  5 minutes 22.3 seconds.
 File lengths (MBytes):  RWF=   2480 Int=      0 D2E=      0 Chk=     32 Scr=     32
