 Entering Gaussian System, Link 0=/shared/apps/gaussian/G09_LINUX_LINDA/g09/g09
 Input=/gss_gpfs_scratch/harms.n/QMscratch/[O]C1C=CC=C1+[O][O]_[O]O+[O][C]1C=CC=C1Est.gjf
 Output=/gss_gpfs_scratch/harms.n/QMscratch/[O]C1C=CC=C1+[O][O]_[O]O+[O][C]1C=CC=C1Est.log
 Initial command:
 /shared/apps/gaussian/G09_LINUX_LINDA/g09/l1.exe /gss_gpfs_scratch/harms.n/comparerTST/Gau-24477.inp -scrdir=/gss_gpfs_scratch/harms.n/comparerTST/
 Entering Link 1 = /shared/apps/gaussian/G09_LINUX_LINDA/g09/l1.exe PID=     24478.
  
 Copyright (c) 1988,1990,1992,1993,1995,1998,2003,2009,2010,
            Gaussian, Inc.  All Rights Reserved.
  
 This is part of the Gaussian(R) 09 program.  It is based on
 the Gaussian(R) 03 system (copyright 2003, Gaussian, Inc.),
 the Gaussian(R) 98 system (copyright 1998, Gaussian, Inc.),
 the Gaussian(R) 94 system (copyright 1995, Gaussian, Inc.),
 the Gaussian 92(TM) system (copyright 1992, Gaussian, Inc.),
 the Gaussian 90(TM) system (copyright 1990, Gaussian, Inc.),
 the Gaussian 88(TM) system (copyright 1988, Gaussian, Inc.),
 the Gaussian 86(TM) system (copyright 1986, Carnegie Mellon
 University), and the Gaussian 82(TM) system (copyright 1983,
 Carnegie Mellon University). Gaussian is a federally registered
 trademark of Gaussian, Inc.
  
 This software contains proprietary and confidential information,
 including trade secrets, belonging to Gaussian, Inc.
  
 This software is provided under written license and may be
 used, copied, transmitted, or stored only in accord with that
 written license.
  
 The following legend is applicable only to US Government
 contracts under FAR:
  
                    RESTRICTED RIGHTS LEGEND
  
 Use, reproduction and disclosure by the US Government is
 subject to restrictions as set forth in subparagraphs (a)
 and (c) of the Commercial Computer Software - Restricted
 Rights clause in FAR 52.227-19.
  
 Gaussian, Inc.
 340 Quinnipiac St., Bldg. 40, Wallingford CT 06492
  
  
 ---------------------------------------------------------------
 Warning -- This program may not be used in any manner that
 competes with the business of Gaussian, Inc. or will provide
 assistance to any competitor of Gaussian, Inc.  The licensee
 of this program is prohibited from giving any competitor of
 Gaussian, Inc. access to this program.  By using this program,
 the user acknowledges that Gaussian, Inc. is engaged in the
 business of creating and licensing software in the field of
 computational chemistry and represents and warrants to the
 licensee that it is not a competitor of Gaussian, Inc. and that
 it will not use this program in any manner prohibited above.
 ---------------------------------------------------------------
  

 Cite this work as:
 Gaussian 09, Revision B.01,
 M. J. Frisch, G. W. Trucks, H. B. Schlegel, G. E. Scuseria, 
 M. A. Robb, J. R. Cheeseman, G. Scalmani, V. Barone, B. Mennucci, 
 G. A. Petersson, H. Nakatsuji, M. Caricato, X. Li, H. P. Hratchian, 
 A. F. Izmaylov, J. Bloino, G. Zheng, J. L. Sonnenberg, M. Hada, 
 M. Ehara, K. Toyota, R. Fukuda, J. Hasegawa, M. Ishida, T. Nakajima, 
 Y. Honda, O. Kitao, H. Nakai, T. Vreven, J. A. Montgomery, Jr., 
 J. E. Peralta, F. Ogliaro, M. Bearpark, J. J. Heyd, E. Brothers, 
 K. N. Kudin, V. N. Staroverov, T. Keith, R. Kobayashi, J. Normand, 
 K. Raghavachari, A. Rendell, J. C. Burant, S. S. Iyengar, J. Tomasi, 
 M. Cossi, N. Rega, J. M. Millam, M. Klene, J. E. Knox, J. B. Cross, 
 V. Bakken, C. Adamo, J. Jaramillo, R. Gomperts, R. E. Stratmann, 
 O. Yazyev, A. J. Austin, R. Cammi, C. Pomelli, J. W. Ochterski, 
 R. L. Martin, K. Morokuma, V. G. Zakrzewski, G. A. Voth, 
 P. Salvador, J. J. Dannenberg, S. Dapprich, A. D. Daniels, 
 O. Farkas, J. B. Foresman, J. V. Ortiz, J. Cioslowski, 
 and D. J. Fox, Gaussian, Inc., Wallingford CT, 2010.
 
 ******************************************
 Gaussian 09:  EM64L-G09RevB.01 12-Aug-2010
                20-Aug-2017 
 ******************************************
 %nprocshared=20
 Will use up to   20 processors via shared memory.
 %mem=5GB
 ----------------------------------------------------------
 # m062x/6-311+g(2df,2p) Opt=(ModRedun,Loose) Int(Grid=SG1)
 ----------------------------------------------------------
 1/7=-1,14=-1,18=120,19=15,26=2,38=1/1,3;
 2/9=110,12=2,17=6,18=5,40=1/2;
 3/5=4,6=6,7=214,11=2,16=1,25=1,30=1,71=1,74=-55,75=1/1,2,3;
 4//1;
 5/5=2,38=5/2;
 6/7=2,8=2,9=2,10=2,28=1/1;
 7//1,2,3,16;
 1/7=-1,14=-1,18=20,19=15/3(2);
 2/9=110/2;
 99//99;
 2/9=110/2;
 3/5=4,6=6,7=214,11=2,16=1,25=1,30=1,71=1,74=-55,75=1/1,2,3;
 4/5=5,16=3/1;
 5/5=2,38=5/2;
 7//1,2,3,16;
 1/7=-1,14=-1,18=20,19=15/3(-5);
 2/9=110/2;
 6/7=2,8=2,9=2,10=2,19=2,28=1/1;
 99/9=1/99;
 ---------------------------------------
 [O]C1C=CC=C1+[O][O]_[O]O+[O][C]1C=CC=C1
 ---------------------------------------
 Symbolic Z-matrix:
 Charge =  0 Multiplicity = 4
 C                     0.2937   -0.5372   -0.6332 
 C                    -0.2134    0.7738   -1.0093 
 C                    -0.6326   -1.1382    0.3132 
 C                    -1.2484    1.0093   -0.2009 
 C                    -1.5729   -0.2186    0.5364 
 O                     0.7647   -1.3294   -1.6281 
 H                     1.3587   -0.2693    0.0898 
 H                     0.2863    1.5654   -1.528 
 H                    -0.6634   -2.1719    0.6126 
 H                    -1.6465    1.9795    0.1025 
 H                    -2.4004   -0.3148    1.2389 
 O                     2.368    -0.0325    0.7511 
 O                     3.3062    0.6839    1.355 
 
 The following ModRedundant input section has been read:
 B       1       7 F                                                           
 B       1      12 F                                                           
 B       7      12 F                                                           

 GradGradGradGradGradGradGradGradGradGradGradGradGradGradGradGradGradGrad
 Berny optimization.
 Initialization pass.
                           ----------------------------
                           !    Initial Parameters    !
                           ! (Angstroms and Degrees)  !
 --------------------------                            --------------------------
 ! Name  Definition              Value          Derivative Info.                !
 --------------------------------------------------------------------------------
 ! R1    R(1,2)                  1.4551         estimate D2E/DX2                !
 ! R2    R(1,3)                  1.4543         estimate D2E/DX2                !
 ! R3    R(1,6)                  1.3562         estimate D2E/DX2                !
 ! R4    R(1,7)                  1.3148         Frozen                          !
 ! R5    R(1,12)                 2.5444         Frozen                          !
 ! R6    R(2,4)                  1.3342         estimate D2E/DX2                !
 ! R7    R(2,8)                  1.0702         estimate D2E/DX2                !
 ! R8    R(3,5)                  1.334          estimate D2E/DX2                !
 ! R9    R(3,9)                  1.0766         estimate D2E/DX2                !
 ! R10   R(4,5)                  1.4686         estimate D2E/DX2                !
 ! R11   R(4,10)                 1.0917         estimate D2E/DX2                !
 ! R12   R(5,11)                 1.0897         estimate D2E/DX2                !
 ! R13   R(7,12)                 1.2297         Frozen                          !
 ! R14   R(12,13)                1.326          estimate D2E/DX2                !
 ! A1    A(2,1,3)              108.5763         estimate D2E/DX2                !
 ! A2    A(2,1,6)              117.2393         estimate D2E/DX2                !
 ! A3    A(2,1,7)              103.9359         estimate D2E/DX2                !
 ! A4    A(3,1,6)              117.2075         estimate D2E/DX2                !
 ! A5    A(3,1,7)              104.0214         estimate D2E/DX2                !
 ! A6    A(6,1,7)              103.952          estimate D2E/DX2                !
 ! A7    A(1,2,4)              105.8285         estimate D2E/DX2                !
 ! A8    A(1,2,8)              128.9735         estimate D2E/DX2                !
 ! A9    A(4,2,8)              121.688          estimate D2E/DX2                !
 ! A10   A(1,3,5)              105.8405         estimate D2E/DX2                !
 ! A11   A(1,3,9)              126.5828         estimate D2E/DX2                !
 ! A12   A(5,3,9)              126.5241         estimate D2E/DX2                !
 ! A13   A(2,4,5)              109.1486         estimate D2E/DX2                !
 ! A14   A(2,4,10)             127.4536         estimate D2E/DX2                !
 ! A15   A(5,4,10)             121.5312         estimate D2E/DX2                !
 ! A16   A(3,5,4)              109.6714         estimate D2E/DX2                !
 ! A17   A(3,5,11)             125.6085         estimate D2E/DX2                !
 ! A18   A(4,5,11)             124.4203         estimate D2E/DX2                !
 ! A19   A(7,12,13)            158.3952         estimate D2E/DX2                !
 ! A20   L(1,7,12,2,-1)        180.6258         estimate D2E/DX2                !
 ! A21   L(1,7,12,2,-2)        181.4613         estimate D2E/DX2                !
 ! D1    D(3,1,2,4)              8.3279         estimate D2E/DX2                !
 ! D2    D(3,1,2,8)            167.0242         estimate D2E/DX2                !
 ! D3    D(6,1,2,4)            144.0136         estimate D2E/DX2                !
 ! D4    D(6,1,2,8)            -57.2902         estimate D2E/DX2                !
 ! D5    D(7,1,2,4)           -101.9606         estimate D2E/DX2                !
 ! D6    D(7,1,2,8)             56.7357         estimate D2E/DX2                !
 ! D7    D(2,1,3,5)             -3.266          estimate D2E/DX2                !
 ! D8    D(2,1,3,9)            165.5531         estimate D2E/DX2                !
 ! D9    D(6,1,3,5)           -138.9677         estimate D2E/DX2                !
 ! D10   D(6,1,3,9)             29.8514         estimate D2E/DX2                !
 ! D11   D(7,1,3,5)            106.9648         estimate D2E/DX2                !
 ! D12   D(7,1,3,9)            -84.2161         estimate D2E/DX2                !
 ! D13   D(2,1,12,13)           -0.9271         estimate D2E/DX2                !
 ! D14   D(3,1,12,13)         -114.7524         estimate D2E/DX2                !
 ! D15   D(6,1,12,13)          122.1626         estimate D2E/DX2                !
 ! D16   D(1,2,4,5)             -9.8124         estimate D2E/DX2                !
 ! D17   D(1,2,4,10)           154.6267         estimate D2E/DX2                !
 ! D18   D(8,2,4,5)           -170.426          estimate D2E/DX2                !
 ! D19   D(8,2,4,10)            -5.9869         estimate D2E/DX2                !
 ! D20   D(1,3,5,4)             -2.6665         estimate D2E/DX2                !
 ! D21   D(1,3,5,11)          -176.5849         estimate D2E/DX2                !
 ! D22   D(9,3,5,4)           -171.4942         estimate D2E/DX2                !
 ! D23   D(9,3,5,11)            14.5874         estimate D2E/DX2                !
 ! D24   D(2,4,5,3)              8.2939         estimate D2E/DX2                !
 ! D25   D(2,4,5,11)          -177.6996         estimate D2E/DX2                !
 ! D26   D(10,4,5,3)          -157.2376         estimate D2E/DX2                !
 ! D27   D(10,4,5,11)           16.7688         estimate D2E/DX2                !
 --------------------------------------------------------------------------------
 Trust Radius=3.00D-01 FncErr=1.00D-05 GrdErr=1.00D-04
 Number of steps in this run=     72 maximum allowed number of steps=    100.
 GradGradGradGradGradGradGradGradGradGradGradGradGradGradGradGradGradGrad

                          Input orientation:                          
 ---------------------------------------------------------------------
 Center     Atomic      Atomic             Coordinates (Angstroms)
 Number     Number       Type             X           Y           Z
 ---------------------------------------------------------------------
      1          6           0        0.293700   -0.537200   -0.633200
      2          6           0       -0.213400    0.773800   -1.009300
      3          6           0       -0.632600   -1.138200    0.313200
      4          6           0       -1.248400    1.009300   -0.200900
      5          6           0       -1.572900   -0.218600    0.536400
      6          8           0        0.764700   -1.329400   -1.628100
      7          1           0        1.358700   -0.269300    0.089800
      8          1           0        0.286300    1.565400   -1.528000
      9          1           0       -0.663400   -2.171900    0.612600
     10          1           0       -1.646500    1.979500    0.102500
     11          1           0       -2.400400   -0.314800    1.238900
     12          8           0        2.368000   -0.032500    0.751100
     13          8           0        3.306200    0.683900    1.355000
 ---------------------------------------------------------------------
                    Distance matrix (angstroms):
                    1          2          3          4          5
     1  C    0.000000
     2  C    1.455102   0.000000
     3  C    1.454272   2.362304   0.000000
     4  C    2.226346   1.334240   2.292436   0.000000
     5  C    2.225683   2.285232   1.334034   1.468554   0.000000
     6  O    1.356189   2.400634   2.399510   3.399851   3.373916
     7  H    1.314810   2.183478   2.184072   2.918269   2.965856
     8  H    2.285093   1.070224   3.397624   2.103746   3.301670
     9  H    2.267223   3.392670   1.076627   3.335272   2.156010
    10  H    3.261811   2.177978   3.285185   1.091707   2.241725
    11  H    3.288221   3.320003   2.158709   2.270103   1.089733
    12  O    2.544352   3.226880   3.227682   3.882010   3.951129
    13  O    3.810404   4.240941   4.463131   4.824012   5.028939
                    6          7          8          9         10
     6  O    0.000000
     7  H    2.104241   0.000000
     8  H    2.935771   2.670851   0.000000
     9  H    2.787474   2.825260   4.410387   0.000000
    10  H    4.444961   3.753464   2.562367   4.296604   0.000000
    11  H    4.389415   3.931073   4.290600   2.618824   2.669004
    12  O    3.148510   1.229666   3.475781   3.712897   4.537074
    13  O    4.405847   2.510394   4.267145   4.946158   5.270348
                   11         12         13
    11  H    0.000000
    12  O    4.801591   0.000000
    13  O    5.794494   1.325950   0.000000
 Stoichiometry    C5H5O3(4)
 Framework group  C1[X(C5H5O3)]
 Deg. of freedom    33
 Full point group                 C1      NOp   1
 Largest Abelian subgroup         C1      NOp   1
 Largest concise Abelian subgroup C1      NOp   1
                         Standard orientation:                         
 ---------------------------------------------------------------------
 Center     Atomic      Atomic             Coordinates (Angstroms)
 Number     Number       Type             X           Y           Z
 ---------------------------------------------------------------------
      1          6           0       -0.385275    0.666569    0.090689
      2          6           0       -0.855410   -0.153548    1.196901
      3          6           0       -1.062858    0.239637   -1.123196
      4          6           0       -1.599162   -1.114978    0.646736
      5          6           0       -1.816380   -0.803648   -0.771904
      6          8           0       -0.283358    2.001484    0.307162
      7          1           0        0.858446    0.278084   -0.085273
      8          1           0       -0.449616   -0.251217    2.182382
      9          1           0       -1.103197    0.773615   -2.057201
     10          1           0       -1.807286   -2.107131    1.051878
     11          1           0       -2.421305   -1.406086   -1.449142
     12          8           0        2.028928   -0.062320   -0.247061
     13          8           0        3.159113   -0.725596   -0.044850
 ---------------------------------------------------------------------
 Rotational constants (GHZ):      3.0106809      1.2897588      1.1456522
 Standard basis: 6-311+G(2df,2p) (5D, 7F)
 There are   317 symmetry adapted basis functions of A   symmetry.
 Integral buffers will be    131072 words long.
 Raffenetti 2 integral format.
 Two-electron integral symmetry is turned on.
   317 basis functions,   471 primitive gaussians,   357 cartesian basis functions
    31 alpha electrons       28 beta electrons
       nuclear repulsion energy       335.3767928736 Hartrees.
 NAtoms=   13 NActive=   13 NUniq=   13 SFac= 1.00D+00 NAtFMM=   50 NAOKFM=F Big=F
 One-electron integrals computed using PRISM.
 NBasis=   317 RedAO= T  NBF=   317
 NBsUse=   317 1.00D-06 NBFU=   317
 Harris functional with IExCor= 1009 diagonalized for initial guess.
 ExpMin= 4.38D-02 ExpMax= 8.59D+03 ExpMxC= 1.30D+03 IAcc=2 IRadAn=         1 AccDes= 0.00D+00
 HarFok:  IExCor= 1009 AccDes= 0.00D+00 IRadAn=         1 IDoV= 1
 ScaDFX=  1.000000  1.000000  1.000000  1.000000
 FoFCou: FMM=F IPFlag=           0 FMFlag=      100000 FMFlg1=           0
         NFxFlg=           0 DoJE=T BraDBF=F KetDBF=T FulRan=T
         Omega=  0.000000  0.000000  1.000000  0.000000  0.000000 ICntrl=     500 IOpCl=  0
         NMat0=    1 NMatS0=    1 NMatT0=    0 NMatD0=    1 NMtDS0=    0 NMtDT0=    0
         I1Cent=           4 NGrid=           0.
 Petite list used in FoFCou.
 Initial guess orbital symmetries:
 Alpha Orbitals:
       Occupied  (A) (A) (A) (A) (A) (A) (A) (A) (A) (A) (A) (A)
                 (A) (A) (A) (A) (A) (A) (A) (A) (A) (A) (A) (A)
                 (A) (A) (A) (A) (A) (A) (A)
       Virtual   (A) (A) (A) (A) (A) (A) (A) (A) (A) (A) (A) (A)
                 (A) (A) (A) (A) (A) (A) (A) (A) (A) (A) (A) (A)
                 (A) (A) (A) (A) (A) (A) (A) (A) (A) (A) (A) (A)
                 (A) (A) (A) (A) (A) (A) (A) (A) (A) (A) (A) (A)
                 (A) (A) (A) (A) (A) (A) (A) (A) (A) (A) (A) (A)
                 (A) (A) (A) (A) (A) (A) (A) (A) (A) (A) (A) (A)
                 (A) (A) (A) (A) (A) (A) (A) (A) (A) (A) (A) (A)
                 (A) (A) (A) (A) (A) (A) (A) (A) (A) (A) (A) (A)
                 (A) (A) (A) (A) (A) (A) (A) (A) (A) (A) (A) (A)
                 (A) (A) (A) (A) (A) (A) (A) (A) (A) (A) (A) (A)
                 (A) (A) (A) (A) (A) (A) (A) (A) (A) (A) (A) (A)
                 (A) (A) (A) (A) (A) (A) (A) (A) (A) (A) (A) (A)
                 (A) (A) (A) (A) (A) (A) (A) (A) (A) (A) (A) (A)
                 (A) (A) (A) (A) (A) (A) (A) (A) (A) (A) (A) (A)
                 (A) (A) (A) (A) (A) (A) (A) (A) (A) (A) (A) (A)
                 (A) (A) (A) (A) (A) (A) (A) (A) (A) (A) (A) (A)
                 (A) (A) (A) (A) (A) (A) (A) (A) (A) (A) (A) (A)
                 (A) (A) (A) (A) (A) (A) (A) (A) (A) (A) (A) (A)
                 (A) (A) (A) (A) (A) (A) (A) (A) (A) (A) (A) (A)
                 (A) (A) (A) (A) (A) (A) (A) (A) (A) (A) (A) (A)
                 (A) (A) (A) (A) (A) (A) (A) (A) (A) (A) (A) (A)
                 (A) (A) (A) (A) (A) (A) (A) (A) (A) (A) (A) (A)
                 (A) (A) (A) (A) (A) (A) (A) (A) (A) (A) (A) (A)
                 (A) (A) (A) (A) (A) (A) (A) (A) (A) (A)
 Beta  Orbitals:
       Occupied  (A) (A) (A) (A) (A) (A) (A) (A) (A) (A) (A) (A)
                 (A) (A) (A) (A) (A) (A) (A) (A) (A) (A) (A) (A)
                 (A) (A) (A) (A)
       Virtual   (A) (A) (A) (A) (A) (A) (A) (A) (A) (A) (A) (A)
                 (A) (A) (A) (A) (A) (A) (A) (A) (A) (A) (A) (A)
                 (A) (A) (A) (A) (A) (A) (A) (A) (A) (A) (A) (A)
                 (A) (A) (A) (A) (A) (A) (A) (A) (A) (A) (A) (A)
                 (A) (A) (A) (A) (A) (A) (A) (A) (A) (A) (A) (A)
                 (A) (A) (A) (A) (A) (A) (A) (A) (A) (A) (A) (A)
                 (A) (A) (A) (A) (A) (A) (A) (A) (A) (A) (A) (A)
                 (A) (A) (A) (A) (A) (A) (A) (A) (A) (A) (A) (A)
                 (A) (A) (A) (A) (A) (A) (A) (A) (A) (A) (A) (A)
                 (A) (A) (A) (A) (A) (A) (A) (A) (A) (A) (A) (A)
                 (A) (A) (A) (A) (A) (A) (A) (A) (A) (A) (A) (A)
                 (A) (A) (A) (A) (A) (A) (A) (A) (A) (A) (A) (A)
                 (A) (A) (A) (A) (A) (A) (A) (A) (A) (A) (A) (A)
                 (A) (A) (A) (A) (A) (A) (A) (A) (A) (A) (A) (A)
                 (A) (A) (A) (A) (A) (A) (A) (A) (A) (A) (A) (A)
                 (A) (A) (A) (A) (A) (A) (A) (A) (A) (A) (A) (A)
                 (A) (A) (A) (A) (A) (A) (A) (A) (A) (A) (A) (A)
                 (A) (A) (A) (A) (A) (A) (A) (A) (A) (A) (A) (A)
                 (A) (A) (A) (A) (A) (A) (A) (A) (A) (A) (A) (A)
                 (A) (A) (A) (A) (A) (A) (A) (A) (A) (A) (A) (A)
                 (A) (A) (A) (A) (A) (A) (A) (A) (A) (A) (A) (A)
                 (A) (A) (A) (A) (A) (A) (A) (A) (A) (A) (A) (A)
                 (A) (A) (A) (A) (A) (A) (A) (A) (A) (A) (A) (A)
                 (A) (A) (A) (A) (A) (A) (A) (A) (A) (A) (A) (A)
                 (A)
 The electronic state of the initial guess is 4-A.
 Initial guess <Sx>= 0.0000 <Sy>= 0.0000 <Sz>= 1.5000 <S**2>= 3.7500 S= 1.5000
 Requested convergence on RMS density matrix=1.00D-08 within 128 cycles.
 Requested convergence on MAX density matrix=1.00D-06.
 Requested convergence on             energy=1.00D-06.
 No special actions if energy rises.
 Restarting incremental Fock formation.
 SCF Done:  E(UM062X) =  -418.834096043     A.U. after   27 cycles
             Convg  =    0.5257D-08             -V/T =  2.0033
 <Sx>= 0.0000 <Sy>= 0.0000 <Sz>= 1.5000 <S**2>= 3.7758 S= 1.5064
 <L.S>= 0.000000000000E+00
 Annihilation of the first spin contaminant:
 S**2 before annihilation     3.7758,   after     3.7503

 **********************************************************************

            Population analysis using the SCF density.

 **********************************************************************

 Orbital symmetries:
 Alpha Orbitals:
       Occupied  (A) (A) (A) (A) (A) (A) (A) (A) (A) (A) (A) (A)
                 (A) (A) (A) (A) (A) (A) (A) (A) (A) (A) (A) (A)
                 (A) (A) (A) (A) (A) (A) (A)
       Virtual   (A) (A) (A) (A) (A) (A) (A) (A) (A) (A) (A) (A)
                 (A) (A) (A) (A) (A) (A) (A) (A) (A) (A) (A) (A)
                 (A) (A) (A) (A) (A) (A) (A) (A) (A) (A) (A) (A)
                 (A) (A) (A) (A) (A) (A) (A) (A) (A) (A) (A) (A)
                 (A) (A) (A) (A) (A) (A) (A) (A) (A) (A) (A) (A)
                 (A) (A) (A) (A) (A) (A) (A) (A) (A) (A) (A) (A)
                 (A) (A) (A) (A) (A) (A) (A) (A) (A) (A) (A) (A)
                 (A) (A) (A) (A) (A) (A) (A) (A) (A) (A) (A) (A)
                 (A) (A) (A) (A) (A) (A) (A) (A) (A) (A) (A) (A)
                 (A) (A) (A) (A) (A) (A) (A) (A) (A) (A) (A) (A)
                 (A) (A) (A) (A) (A) (A) (A) (A) (A) (A) (A) (A)
                 (A) (A) (A) (A) (A) (A) (A) (A) (A) (A) (A) (A)
                 (A) (A) (A) (A) (A) (A) (A) (A) (A) (A) (A) (A)
                 (A) (A) (A) (A) (A) (A) (A) (A) (A) (A) (A) (A)
                 (A) (A) (A) (A) (A) (A) (A) (A) (A) (A) (A) (A)
                 (A) (A) (A) (A) (A) (A) (A) (A) (A) (A) (A) (A)
                 (A) (A) (A) (A) (A) (A) (A) (A) (A) (A) (A) (A)
                 (A) (A) (A) (A) (A) (A) (A) (A) (A) (A) (A) (A)
                 (A) (A) (A) (A) (A) (A) (A) (A) (A) (A) (A) (A)
                 (A) (A) (A) (A) (A) (A) (A) (A) (A) (A) (A) (A)
                 (A) (A) (A) (A) (A) (A) (A) (A) (A) (A) (A) (A)
                 (A) (A) (A) (A) (A) (A) (A) (A) (A) (A) (A) (A)
                 (A) (A) (A) (A) (A) (A) (A) (A) (A) (A) (A) (A)
                 (A) (A) (A) (A) (A) (A) (A) (A) (A) (A)
 Beta  Orbitals:
       Occupied  (A) (A) (A) (A) (A) (A) (A) (A) (A) (A) (A) (A)
                 (A) (A) (A) (A) (A) (A) (A) (A) (A) (A) (A) (A)
                 (A) (A) (A) (A)
       Virtual   (A) (A) (A) (A) (A) (A) (A) (A) (A) (A) (A) (A)
                 (A) (A) (A) (A) (A) (A) (A) (A) (A) (A) (A) (A)
                 (A) (A) (A) (A) (A) (A) (A) (A) (A) (A) (A) (A)
                 (A) (A) (A) (A) (A) (A) (A) (A) (A) (A) (A) (A)
                 (A) (A) (A) (A) (A) (A) (A) (A) (A) (A) (A) (A)
                 (A) (A) (A) (A) (A) (A) (A) (A) (A) (A) (A) (A)
                 (A) (A) (A) (A) (A) (A) (A) (A) (A) (A) (A) (A)
                 (A) (A) (A) (A) (A) (A) (A) (A) (A) (A) (A) (A)
                 (A) (A) (A) (A) (A) (A) (A) (A) (A) (A) (A) (A)
                 (A) (A) (A) (A) (A) (A) (A) (A) (A) (A) (A) (A)
                 (A) (A) (A) (A) (A) (A) (A) (A) (A) (A) (A) (A)
                 (A) (A) (A) (A) (A) (A) (A) (A) (A) (A) (A) (A)
                 (A) (A) (A) (A) (A) (A) (A) (A) (A) (A) (A) (A)
                 (A) (A) (A) (A) (A) (A) (A) (A) (A) (A) (A) (A)
                 (A) (A) (A) (A) (A) (A) (A) (A) (A) (A) (A) (A)
                 (A) (A) (A) (A) (A) (A) (A) (A) (A) (A) (A) (A)
                 (A) (A) (A) (A) (A) (A) (A) (A) (A) (A) (A) (A)
                 (A) (A) (A) (A) (A) (A) (A) (A) (A) (A) (A) (A)
                 (A) (A) (A) (A) (A) (A) (A) (A) (A) (A) (A) (A)
                 (A) (A) (A) (A) (A) (A) (A) (A) (A) (A) (A) (A)
                 (A) (A) (A) (A) (A) (A) (A) (A) (A) (A) (A) (A)
                 (A) (A) (A) (A) (A) (A) (A) (A) (A) (A) (A) (A)
                 (A) (A) (A) (A) (A) (A) (A) (A) (A) (A) (A) (A)
                 (A) (A) (A) (A) (A) (A) (A) (A) (A) (A) (A) (A)
                 (A)
 The electronic state is 4-A.
 Alpha  occ. eigenvalues --  -19.86527 -19.84686 -19.64150 -10.59044 -10.54223
 Alpha  occ. eigenvalues --  -10.54173 -10.53641 -10.53373  -1.42254  -1.14165
 Alpha  occ. eigenvalues --   -1.08518  -0.97265  -0.81854  -0.77707  -0.72592
 Alpha  occ. eigenvalues --   -0.68978  -0.68824  -0.62504  -0.62320  -0.58539
 Alpha  occ. eigenvalues --   -0.53222  -0.49680  -0.49484  -0.48341  -0.47782
 Alpha  occ. eigenvalues --   -0.47187  -0.43443  -0.39475  -0.35819  -0.31769
 Alpha  occ. eigenvalues --   -0.28644
 Alpha virt. eigenvalues --   -0.01689   0.01701   0.02812   0.03293   0.04828
 Alpha virt. eigenvalues --    0.05000   0.05849   0.06141   0.07447   0.08829
 Alpha virt. eigenvalues --    0.09223   0.09849   0.10546   0.10709   0.12716
 Alpha virt. eigenvalues --    0.14130   0.14547   0.14975   0.15074   0.15520
 Alpha virt. eigenvalues --    0.16927   0.17339   0.18780   0.19216   0.20253
 Alpha virt. eigenvalues --    0.20971   0.21895   0.22323   0.24029   0.24770
 Alpha virt. eigenvalues --    0.25126   0.26013   0.28381   0.29245   0.29771
 Alpha virt. eigenvalues --    0.31110   0.32809   0.35708   0.35894   0.36727
 Alpha virt. eigenvalues --    0.37240   0.39001   0.39996   0.41024   0.44267
 Alpha virt. eigenvalues --    0.45346   0.48222   0.53061   0.54312   0.54523
 Alpha virt. eigenvalues --    0.55583   0.56925   0.58411   0.60019   0.61262
 Alpha virt. eigenvalues --    0.62212   0.62564   0.63998   0.65040   0.67291
 Alpha virt. eigenvalues --    0.68277   0.70042   0.70642   0.71114   0.72567
 Alpha virt. eigenvalues --    0.73936   0.75336   0.75733   0.77505   0.80482
 Alpha virt. eigenvalues --    0.82503   0.84645   0.90388   0.90567   0.93835
 Alpha virt. eigenvalues --    0.96596   0.96894   0.97923   0.99566   1.00654
 Alpha virt. eigenvalues --    1.02258   1.05043   1.06148   1.08834   1.10257
 Alpha virt. eigenvalues --    1.10542   1.11735   1.13356   1.14995   1.15936
 Alpha virt. eigenvalues --    1.16555   1.17343   1.20459   1.23908   1.24610
 Alpha virt. eigenvalues --    1.25791   1.26737   1.28084   1.29043   1.30460
 Alpha virt. eigenvalues --    1.31764   1.34135   1.36012   1.38033   1.39048
 Alpha virt. eigenvalues --    1.40165   1.42030   1.43437   1.43624   1.46467
 Alpha virt. eigenvalues --    1.47257   1.50442   1.50596   1.55300   1.56862
 Alpha virt. eigenvalues --    1.58337   1.61725   1.62035   1.64757   1.66843
 Alpha virt. eigenvalues --    1.68091   1.71145   1.74647   1.75141   1.79701
 Alpha virt. eigenvalues --    1.82869   1.85334   1.86737   1.87942   1.90013
 Alpha virt. eigenvalues --    1.97152   2.13153   2.19201   2.19734   2.27276
 Alpha virt. eigenvalues --    2.36550   2.42055   2.45839   2.55334   2.59920
 Alpha virt. eigenvalues --    2.63726   2.66584   2.70621   2.71137   2.75551
 Alpha virt. eigenvalues --    2.76980   2.78285   2.79313   2.81101   2.81673
 Alpha virt. eigenvalues --    2.83218   2.84564   2.87315   2.88963   2.91591
 Alpha virt. eigenvalues --    2.94533   2.95146   3.00446   3.03582   3.08002
 Alpha virt. eigenvalues --    3.10475   3.12258   3.14950   3.15673   3.18920
 Alpha virt. eigenvalues --    3.20408   3.23491   3.25445   3.28815   3.30938
 Alpha virt. eigenvalues --    3.33394   3.34822   3.35105   3.37787   3.40113
 Alpha virt. eigenvalues --    3.42262   3.44640   3.45183   3.47588   3.50349
 Alpha virt. eigenvalues --    3.53596   3.55670   3.59337   3.60119   3.61957
 Alpha virt. eigenvalues --    3.65843   3.68220   3.69230   3.72244   3.74290
 Alpha virt. eigenvalues --    3.77061   3.77822   3.82567   3.83623   3.87645
 Alpha virt. eigenvalues --    3.89691   3.93205   3.94930   3.98196   4.01630
 Alpha virt. eigenvalues --    4.06123   4.10066   4.11826   4.18204   4.20049
 Alpha virt. eigenvalues --    4.25186   4.27181   4.30109   4.32036   4.37969
 Alpha virt. eigenvalues --    4.41630   4.43883   4.44807   4.47023   4.51116
 Alpha virt. eigenvalues --    4.51869   4.54341   4.54758   4.56323   4.59717
 Alpha virt. eigenvalues --    4.61844   4.63372   4.66115   4.70135   4.73563
 Alpha virt. eigenvalues --    4.83327   4.83440   4.85122   4.88668   4.89611
 Alpha virt. eigenvalues --    4.90008   4.97066   4.97186   4.97301   5.01492
 Alpha virt. eigenvalues --    5.03315   5.06851   5.07126   5.09076   5.10207
 Alpha virt. eigenvalues --    5.12227   5.16783   5.23221   5.25699   5.29862
 Alpha virt. eigenvalues --    5.34757   5.36895   5.38868   5.42495   5.44362
 Alpha virt. eigenvalues --    5.51536   5.52814   5.57267   5.68971   5.80833
 Alpha virt. eigenvalues --    5.85421   6.11325   6.12716   6.22165   6.23953
 Alpha virt. eigenvalues --    6.43469   6.47338   6.48393   6.62566   6.62844
 Alpha virt. eigenvalues --    6.71803   6.78712   6.81959   6.84902   6.89429
 Alpha virt. eigenvalues --    7.08070   7.19443   7.27333   7.29984   7.33918
 Alpha virt. eigenvalues --    7.58737   7.75337   7.91052  23.96584  24.30524
 Alpha virt. eigenvalues --   24.65761  24.92601  24.95140  49.77517  49.89871
 Alpha virt. eigenvalues --   50.13763
  Beta  occ. eigenvalues --  -19.83788 -19.82389 -19.62758 -10.59069 -10.54216
  Beta  occ. eigenvalues --  -10.54161 -10.53606 -10.53339  -1.34097  -1.09402
  Beta  occ. eigenvalues --   -0.98068  -0.96318  -0.81727  -0.75790  -0.68021
  Beta  occ. eigenvalues --   -0.62290  -0.61962  -0.57011  -0.55037  -0.54623
  Beta  occ. eigenvalues --   -0.49131  -0.47521  -0.46746  -0.44197  -0.42506
  Beta  occ. eigenvalues --   -0.35241  -0.33588  -0.28255
  Beta virt. eigenvalues --   -0.16019  -0.15067  -0.06569  -0.00191   0.01857
  Beta virt. eigenvalues --    0.03018   0.03435   0.04985   0.05360   0.06506
  Beta virt. eigenvalues --    0.07286   0.07738   0.09158   0.09591   0.10495
  Beta virt. eigenvalues --    0.10688   0.10855   0.12776   0.14707   0.14856
  Beta virt. eigenvalues --    0.15227   0.15551   0.16865   0.17220   0.17832
  Beta virt. eigenvalues --    0.18951   0.19341   0.20308   0.21395   0.22026
  Beta virt. eigenvalues --    0.22471   0.24113   0.25208   0.25427   0.26362
  Beta virt. eigenvalues --    0.28507   0.29698   0.30291   0.31296   0.33465
  Beta virt. eigenvalues --    0.35786   0.36420   0.36835   0.37560   0.39100
  Beta virt. eigenvalues --    0.40423   0.41695   0.44249   0.45501   0.48330
  Beta virt. eigenvalues --    0.53307   0.54450   0.54718   0.55935   0.56990
  Beta virt. eigenvalues --    0.58570   0.60257   0.61457   0.62542   0.62897
  Beta virt. eigenvalues --    0.64188   0.65163   0.67407   0.68449   0.70089
  Beta virt. eigenvalues --    0.70722   0.71218   0.72650   0.74079   0.75397
  Beta virt. eigenvalues --    0.75783   0.77611   0.80585   0.82648   0.84857
  Beta virt. eigenvalues --    0.90770   0.90936   0.94752   0.97736   0.98763
  Beta virt. eigenvalues --    0.99924   1.01264   1.02906   1.03000   1.05541
  Beta virt. eigenvalues --    1.06569   1.10096   1.11553   1.12338   1.13232
  Beta virt. eigenvalues --    1.14113   1.15181   1.16648   1.17166   1.18568
  Beta virt. eigenvalues --    1.22087   1.24379   1.25219   1.26674   1.28123
  Beta virt. eigenvalues --    1.29022   1.30210   1.31382   1.32782   1.34443
  Beta virt. eigenvalues --    1.36185   1.38617   1.39556   1.40660   1.42247
  Beta virt. eigenvalues --    1.43966   1.44910   1.46820   1.47607   1.50914
  Beta virt. eigenvalues --    1.52787   1.56760   1.58446   1.59893   1.62738
  Beta virt. eigenvalues --    1.63021   1.65899   1.68049   1.69593   1.71871
  Beta virt. eigenvalues --    1.75831   1.76240   1.80682   1.84254   1.86205
  Beta virt. eigenvalues --    1.87893   1.89063   1.90982   1.97936   2.14870
  Beta virt. eigenvalues --    2.19745   2.21714   2.28692   2.37729   2.42848
  Beta virt. eigenvalues --    2.46323   2.55526   2.60108   2.63780   2.66883
  Beta virt. eigenvalues --    2.71109   2.71374   2.75769   2.77104   2.78392
  Beta virt. eigenvalues --    2.79610   2.81196   2.81754   2.83371   2.84977
  Beta virt. eigenvalues --    2.87482   2.89010   2.91689   2.94794   2.95137
  Beta virt. eigenvalues --    3.00429   3.03559   3.08091   3.10439   3.12334
  Beta virt. eigenvalues --    3.15080   3.15707   3.18993   3.20474   3.23465
  Beta virt. eigenvalues --    3.25503   3.28943   3.31026   3.33442   3.34839
  Beta virt. eigenvalues --    3.35161   3.37892   3.40200   3.42361   3.44706
  Beta virt. eigenvalues --    3.45322   3.47635   3.50295   3.53751   3.55644
  Beta virt. eigenvalues --    3.59406   3.60131   3.62290   3.66062   3.68097
  Beta virt. eigenvalues --    3.69405   3.72118   3.74138   3.77129   3.77969
  Beta virt. eigenvalues --    3.82615   3.83694   3.87744   3.89730   3.93158
  Beta virt. eigenvalues --    3.94579   3.98072   4.01190   4.05670   4.10020
  Beta virt. eigenvalues --    4.11430   4.17656   4.20085   4.25104   4.27095
  Beta virt. eigenvalues --    4.30155   4.32282   4.38017   4.41847   4.45070
  Beta virt. eigenvalues --    4.46187   4.48216   4.51579   4.52233   4.54810
  Beta virt. eigenvalues --    4.55009   4.56640   4.61520   4.62245   4.64009
  Beta virt. eigenvalues --    4.66420   4.70338   4.73904   4.84922   4.86004
  Beta virt. eigenvalues --    4.86168   4.88893   4.94762   4.95399   4.97481
  Beta virt. eigenvalues --    4.99961   5.00086   5.03270   5.06643   5.08736
  Beta virt. eigenvalues --    5.09927   5.11485   5.12667   5.13809   5.17361
  Beta virt. eigenvalues --    5.26370   5.30035   5.31307   5.36743   5.38615
  Beta virt. eigenvalues --    5.40374   5.44152   5.45908   5.51896   5.53069
  Beta virt. eigenvalues --    5.57724   5.69315   5.80817   5.87595   6.11656
  Beta virt. eigenvalues --    6.14375   6.23661   6.24594   6.45265   6.59082
  Beta virt. eigenvalues --    6.59601   6.73486   6.74162   6.74371   6.84059
  Beta virt. eigenvalues --    6.91168   6.95507   6.97763   7.11471   7.23633
  Beta virt. eigenvalues --    7.32155   7.34106   7.42454   7.63112   7.73576
  Beta virt. eigenvalues --    7.94123  23.96579  24.30534  24.65580  24.92593
  Beta virt. eigenvalues --   24.95170  49.76159  49.88565  50.13248
          Condensed to atoms (all electrons):
              1          2          3          4          5          6
     1  C    7.292464  -0.745860  -0.548683  -0.163413  -0.242238   0.365858
     2  C   -0.745860   6.078106   0.149754   0.334876   0.082039  -0.171491
     3  C   -0.548683   0.149754   5.772582  -0.007924   0.546721  -0.133028
     4  C   -0.163413   0.334876  -0.007924   5.445776   0.090265   0.037155
     5  C   -0.242238   0.082039   0.546721   0.090265   5.288748  -0.009775
     6  O    0.365858  -0.171491  -0.133028   0.037155  -0.009775   8.145004
     7  H    0.274047  -0.004310  -0.004262  -0.042219  -0.020749  -0.030724
     8  H   -0.007956   0.407329   0.002310  -0.016012   0.003135  -0.000062
     9  H   -0.004088   0.003896   0.367600  -0.006073   0.029997   0.000969
    10  H    0.011912   0.031695  -0.011377   0.336707   0.008756  -0.000584
    11  H    0.019822  -0.013191   0.016904   0.010474   0.349356  -0.000366
    12  O    0.149338  -0.039522  -0.069928   0.032100   0.004274   0.014848
    13  O    0.051973  -0.001078  -0.001493  -0.033783   0.017138  -0.003117
              7          8          9         10         11         12
     1  C    0.274047  -0.007956  -0.004088   0.011912   0.019822   0.149338
     2  C   -0.004310   0.407329   0.003896   0.031695  -0.013191  -0.039522
     3  C   -0.004262   0.002310   0.367600  -0.011377   0.016904  -0.069928
     4  C   -0.042219  -0.016012  -0.006073   0.336707   0.010474   0.032100
     5  C   -0.020749   0.003135   0.029997   0.008756   0.349356   0.004274
     6  O   -0.030724  -0.000062   0.000969  -0.000584  -0.000366   0.014848
     7  H    0.769846   0.001051  -0.001460  -0.000378  -0.000356  -0.391092
     8  H    0.001051   0.464206  -0.000030  -0.004775  -0.000047  -0.000708
     9  H   -0.001460  -0.000030   0.456695  -0.000092  -0.004544   0.000575
    10  H   -0.000378  -0.004775  -0.000092   0.500156  -0.002367   0.000016
    11  H   -0.000356  -0.000047  -0.004544  -0.002367   0.492767   0.000023
    12  O   -0.391092  -0.000708   0.000575   0.000016   0.000023   8.152197
    13  O    0.020768  -0.000936   0.000039   0.000000  -0.000045   0.209815
             13
     1  C    0.051973
     2  C   -0.001078
     3  C   -0.001493
     4  C   -0.033783
     5  C    0.017138
     6  O   -0.003117
     7  H    0.020768
     8  H   -0.000936
     9  H    0.000039
    10  H    0.000000
    11  H   -0.000045
    12  O    0.209815
    13  O    7.654655
 Mulliken atomic charges:
              1
     1  C   -0.453178
     2  C   -0.112243
     3  C   -0.079175
     4  C   -0.017928
     5  C   -0.147667
     6  O   -0.214687
     7  H    0.429837
     8  H    0.152495
     9  H    0.156517
    10  H    0.130332
    11  H    0.131569
    12  O   -0.061936
    13  O    0.086063
 Sum of Mulliken atomic charges =   0.00000
 Mulliken charges with hydrogens summed into heavy atoms:
              1
     1  C   -0.453178
     2  C    0.040252
     3  C    0.077342
     4  C    0.112404
     5  C   -0.016098
     6  O   -0.214687
    12  O    0.367901
    13  O    0.086063
 Sum of Mulliken charges with hydrogens summed into heavy atoms =   0.00000
          Atomic-Atomic Spin Densities.
              1          2          3          4          5          6
     1  C    0.420987  -0.221120  -0.234556   0.040773   0.006747  -0.069422
     2  C   -0.221120   0.170181   0.139103  -0.065709   0.006415   0.007219
     3  C   -0.234556   0.139103   0.142112   0.004624  -0.031331   0.011304
     4  C    0.040773  -0.065709   0.004624   0.089024  -0.062328  -0.003533
     5  C    0.006747   0.006415  -0.031331  -0.062328   0.102027   0.003743
     6  O   -0.069422   0.007219   0.011304  -0.003533   0.003743   0.876544
     7  H    0.187168  -0.051520  -0.077520  -0.007724  -0.002089  -0.054336
     8  H   -0.003059   0.003165   0.000184  -0.000983   0.001003   0.000516
     9  H    0.000639  -0.000006  -0.002364   0.000305   0.001986   0.000572
    10  H   -0.005621   0.002290   0.002255   0.000100   0.000733   0.000029
    11  H   -0.006123   0.002671   0.002458  -0.000412   0.000972  -0.000037
    12  O   -0.089024   0.013983   0.042479   0.008112  -0.001647   0.027117
    13  O    0.006783   0.000638   0.000588  -0.000132  -0.003266  -0.001153
              7          8          9         10         11         12
     1  C    0.187168  -0.003059   0.000639  -0.005621  -0.006123  -0.089024
     2  C   -0.051520   0.003165  -0.000006   0.002290   0.002671   0.013983
     3  C   -0.077520   0.000184  -0.002364   0.002255   0.002458   0.042479
     4  C   -0.007724  -0.000983   0.000305   0.000100  -0.000412   0.008112
     5  C   -0.002089   0.001003   0.001986   0.000733   0.000972  -0.001647
     6  O   -0.054336   0.000516   0.000572   0.000029  -0.000037   0.027117
     7  H    0.252253  -0.002696  -0.001909  -0.000470  -0.000402  -0.132813
     8  H   -0.002696  -0.000739   0.000005   0.000166   0.000012   0.001678
     9  H   -0.001909   0.000005   0.001322   0.000010   0.000131   0.000479
    10  H   -0.000470   0.000166   0.000010   0.002036   0.000159   0.000274
    11  H   -0.000402   0.000012   0.000131   0.000159   0.001471   0.000178
    12  O   -0.132813   0.001678   0.000479   0.000274   0.000178   1.294408
    13  O    0.034420   0.000024  -0.000088  -0.000011  -0.000004  -0.332447
             13
     1  C    0.006783
     2  C    0.000638
     3  C    0.000588
     4  C   -0.000132
     5  C   -0.003266
     6  O   -0.001153
     7  H    0.034420
     8  H    0.000024
     9  H   -0.000088
    10  H   -0.000011
    11  H   -0.000004
    12  O   -0.332447
    13  O    1.451668
 Mulliken atomic spin densities:
              1
     1  C    0.034172
     2  C    0.007310
     3  C   -0.000665
     4  C    0.002116
     5  C    0.022965
     6  O    0.798564
     7  H    0.142360
     8  H   -0.000723
     9  H    0.001082
    10  H    0.001950
    11  H    0.001073
    12  O    0.832776
    13  O    1.157018
 Sum of Mulliken atomic spin densities =   3.00000
 Electronic spatial extent (au):  <R**2>=           1049.8402
 Charge=              0.0000 electrons
 Dipole moment (field-independent basis, Debye):
    X=              2.1687    Y=             -3.0486    Z=             -0.6266  Tot=              3.7934
 Quadrupole moment (field-independent basis, Debye-Ang):
   XX=            -41.3400   YY=            -51.0287   ZZ=            -43.9842
   XY=              1.5359   XZ=              1.6696   YZ=             -2.1195
 Traceless Quadrupole moment (field-independent basis, Debye-Ang):
   XX=              4.1110   YY=             -5.5778   ZZ=              1.4667
   XY=              1.5359   XZ=              1.6696   YZ=             -2.1195
 Octapole moment (field-independent basis, Debye-Ang**2):
  XXX=             45.8833  YYY=            -16.3187  ZZZ=             -1.1013  XYY=              6.9028
  XXY=             -5.7484  XXZ=             -4.8099  XZZ=              7.3167  YZZ=              0.3597
  YYZ=             -2.0866  XYZ=              0.4065
 Hexadecapole moment (field-independent basis, Debye-Ang**3):
 XXXX=           -743.6921 YYYY=           -331.1854 ZZZZ=           -206.2258 XXXY=            -14.5028
 XXXZ=              7.0169 YYYX=             -3.1885 YYYZ=             -6.0150 ZZZX=              6.4274
 ZZZY=             -5.8376 XXYY=           -166.3245 XXZZ=           -164.4087 YYZZ=            -87.3243
 XXYZ=              4.5442 YYXZ=             -0.4115 ZZXY=             -2.5557
 N-N= 3.353767928736D+02 E-N=-2.449617020051D+03  KE= 6.213250680509D+02
                          Isotropic Fermi Contact Couplings
        Atom                 a.u.       MegaHertz       Gauss      10(-4) cm-1
     1  C(13)             -0.02866     -10.73896      -3.83193      -3.58213
     2  C(13)              0.01800       6.74511       2.40682       2.24993
     3  C(13)              0.02052       7.68939       2.74377       2.56491
     4  C(13)              0.00399       1.49512       0.53350       0.49872
     5  C(13)              0.00679       2.54483       0.90806       0.84886
     6  O(17)              0.12081     -24.41050      -8.71027      -8.14247
     7  H(1)               0.06081      90.61186      32.33256      30.22486
     8  H(1)              -0.00048      -0.70801      -0.25264      -0.23617
     9  H(1)              -0.00036      -0.53522      -0.19098      -0.17853
    10  H(1)               0.00104       1.55614       0.55527       0.51907
    11  H(1)               0.00140       2.08481       0.74391       0.69542
    12  O(17)              0.42348     -85.56985     -30.53345     -28.54303
    13  O(17)              0.22582     -45.63035     -16.28204     -15.22065
 --------------------------------------------------------
       Center         ----  Spin Dipole Couplings  ----
                      3XX-RR        3YY-RR        3ZZ-RR
 --------------------------------------------------------
     1   Atom        0.073103     -0.003066     -0.070037
     2   Atom       -0.004367      0.018111     -0.013744
     3   Atom       -0.014678      0.001499      0.013179
     4   Atom       -0.001131      0.009739     -0.008608
     5   Atom        0.003613      0.012177     -0.015790
     6   Atom        3.151285     -1.575142     -1.576142
     7   Atom        0.120224     -0.040037     -0.080187
     8   Atom       -0.001443     -0.004273      0.005716
     9   Atom       -0.000711     -0.006768      0.007480
    10   Atom        0.002266      0.000906     -0.003173
    11   Atom        0.003821     -0.000833     -0.002989
    12   Atom       -1.503332      0.358485      1.144847
    13   Atom       -1.505967      0.411083      1.094884
 --------------------------------------------------------
                        XY            XZ            YZ
 --------------------------------------------------------
     1   Atom       -0.017914     -0.000358      0.011795
     2   Atom       -0.006821     -0.013360     -0.019271
     3   Atom        0.016496      0.024165      0.037051
     4   Atom        0.001607      0.001271     -0.002306
     5   Atom       -0.010655     -0.002684      0.011432
     6   Atom       -0.421911     -0.147969      0.011596
     7   Atom       -0.075029     -0.013189      0.008894
     8   Atom       -0.000107     -0.007841     -0.007478
     9   Atom       -0.000763      0.009720      0.002392
    10   Atom        0.004695     -0.002385     -0.002048
    11   Atom        0.003820      0.004224      0.003037
    12   Atom        1.482666     -0.412610      0.266724
    13   Atom        1.649259     -0.506002      0.315250
 --------------------------------------------------------


 ---------------------------------------------------------------------------------
              Anisotropic Spin Dipole Couplings in Principal Axis System
 ---------------------------------------------------------------------------------

       Atom             a.u.   MegaHertz   Gauss  10(-4) cm-1        Axes

              Baa    -0.0721    -9.676    -3.453    -3.227 -0.0189 -0.1732  0.9847
     1 C(13)  Bbb    -0.0051    -0.679    -0.242    -0.226  0.2208  0.9599  0.1730
              Bcc     0.0772    10.355     3.695     3.454  0.9751 -0.2207 -0.0201
 
              Baa    -0.0312    -4.186    -1.494    -1.396  0.4879  0.3755  0.7880
     2 C(13)  Bbb     0.0040     0.537     0.192     0.179  0.8727 -0.1915 -0.4491
              Bcc     0.0272     3.649     1.302     1.217 -0.0177  0.9068 -0.4211
 
              Baa    -0.0318    -4.269    -1.523    -1.424 -0.4537 -0.5528  0.6990
     3 C(13)  Bbb    -0.0249    -3.342    -1.193    -1.115  0.8071 -0.5874  0.0593
              Bcc     0.0567     7.611     2.716     2.539  0.3778  0.5911  0.7127
 
              Baa    -0.0092    -1.229    -0.439    -0.410 -0.1811  0.1342  0.9743
     4 C(13)  Bbb    -0.0010    -0.140    -0.050    -0.047  0.9752 -0.1035  0.1955
              Bcc     0.0102     1.370     0.489     0.457  0.1271  0.9855 -0.1122
 
              Baa    -0.0199    -2.673    -0.954    -0.892 -0.0519 -0.3503  0.9352
     5 C(13)  Bbb    -0.0027    -0.356    -0.127    -0.119  0.8644  0.4532  0.2177
              Bcc     0.0226     3.029     1.081     1.010 -0.5002  0.8197  0.2792
 
              Baa    -1.6126   116.685    41.636    38.922  0.0896  0.9949  0.0471
     6 O(17)  Bbb    -1.5807   114.378    40.813    38.152  0.0268 -0.0497  0.9984
              Bcc     3.1933  -231.063   -82.449   -77.074  0.9956 -0.0882 -0.0311
 
              Baa    -0.0822   -43.840   -15.643   -14.624 -0.0371 -0.2692  0.9624
     7 H(1)   Bbb    -0.0687   -36.679   -13.088   -12.235  0.3718  0.8902  0.2634
              Bcc     0.1509    80.519    28.731    26.858  0.9276 -0.3676 -0.0671
 
              Baa    -0.0104    -5.566    -1.986    -1.857  0.4883  0.6770  0.5506
     8 H(1)   Bbb    -0.0027    -1.428    -0.510    -0.476  0.7525 -0.6462  0.1272
              Bcc     0.0131     6.994     2.496     2.333 -0.4420 -0.3522  0.8250
 
              Baa    -0.0090    -4.793    -1.710    -1.599  0.5839  0.6800 -0.4435
     9 H(1)   Bbb    -0.0051    -2.704    -0.965    -0.902 -0.6012  0.7293  0.3267
              Bcc     0.0141     7.497     2.675     2.501  0.5456  0.0759  0.8346
 
              Baa    -0.0041    -2.198    -0.784    -0.733  0.2259  0.1792  0.9575
    10 H(1)   Bbb    -0.0032    -1.685    -0.601    -0.562 -0.6515  0.7586  0.0118
              Bcc     0.0073     3.882     1.385     1.295  0.7243  0.6265 -0.2881
 
              Baa    -0.0055    -2.915    -1.040    -0.972 -0.2498 -0.3785  0.8913
    11 H(1)   Bbb    -0.0029    -1.532    -0.547    -0.511 -0.5709  0.8010  0.1802
              Bcc     0.0083     4.447     1.587     1.483  0.7821  0.4638  0.4162
 
              Baa    -2.3911   173.015    61.736    57.712  0.8662 -0.4804  0.1373
    12 O(17)  Bbb     1.1579   -83.784   -29.896   -27.947  0.4767  0.7123 -0.5152
              Bcc     1.2332   -89.231   -31.840   -29.764  0.1497  0.5117  0.8460
 
              Baa    -2.5523   184.686    65.901    61.605  0.8550 -0.4930  0.1612
    13 O(17)  Bbb     1.1897   -86.088   -30.718   -28.716 -0.1987 -0.0241  0.9798
              Bcc     1.3626   -98.598   -35.182   -32.889  0.4791  0.8697  0.1186
 

 ---------------------------------------------------------------------------------

 Calling FoFJK, ICntrl=      2127 FMM=F ISym2X=0 I1Cent= 0 IOpClX= 1 NMat=1 NMatS=1 NMatT=0.
 ***** Axes restored to original set *****
 -------------------------------------------------------------------
 Center     Atomic                   Forces (Hartrees/Bohr)
 Number     Number              X              Y              Z
 -------------------------------------------------------------------
      1        6           0.054276892   -0.033231406   -0.035167676
      2        6          -0.005647756    0.032004491    0.019278760
      3        6          -0.022709491   -0.005824106    0.005081270
      4        6          -0.010937464    0.008807120    0.019690143
      5        6          -0.010157956    0.007412556    0.022485055
      6        8           0.005912212    0.003190009    0.013456885
      7        1          -0.083013494   -0.016958623   -0.058699296
      8        1           0.007564399   -0.002979359   -0.009634686
      9        1           0.006792583    0.000206417    0.001066782
     10        1          -0.004576858   -0.006067579   -0.013040611
     11        1           0.002468193    0.000585036   -0.006390680
     12        8           0.151043031    0.081215573    0.101635408
     13        8          -0.091014291   -0.068360129   -0.059761353
 -------------------------------------------------------------------
 Cartesian Forces:  Max     0.151043031 RMS     0.044184590

 GradGradGradGradGradGradGradGradGradGradGradGradGradGradGradGradGradGrad
 Berny optimization.
 Internal  Forces:  Max     0.128544528 RMS     0.020383692
 Search for a local minimum.
 Step number   1 out of a maximum of   72
 All quantities printed in internal units (Hartrees-Bohrs-Radians)
 Mixed Optimization -- RFO/linear search
 Second derivative matrix not updated -- first step.
 ITU=  0
     Eigenvalues ---    0.00230   0.00230   0.01535   0.01718   0.02138
     Eigenvalues ---    0.02164   0.02204   0.02519   0.05320   0.07417
     Eigenvalues ---    0.08936   0.13774   0.14950   0.15313   0.15641
     Eigenvalues ---    0.15895   0.16000   0.20525   0.21972   0.32727
     Eigenvalues ---    0.34616   0.34844   0.36387   0.36405   0.36780
     Eigenvalues ---    0.37202   0.53254   0.53725   0.57730   0.60473
     Eigenvalues --- 1000.000001000.000001000.000001000.000001000.00000
     Eigenvalues --- 1000.000001000.000001000.000001000.000001000.00000
     Eigenvalues --- 1000.000001000.000001000.000001000.000001000.00000
     Eigenvalues --- 1000.000001000.000001000.000001000.000001000.00000
     Eigenvalues --- 1000.000001000.000001000.000001000.000001000.00000
     Eigenvalues --- 1000.000001000.000001000.000001000.000001000.00000
     Eigenvalues --- 1000.000001000.00000
 RFO step:  Lambda=-4.09259144D-02 EMin= 2.30000000D-03
 Linear search not attempted -- first point.
 Iteration  1 RMS(Cart)=  0.04814567 RMS(Int)=  0.00176702
 Iteration  2 RMS(Cart)=  0.00165202 RMS(Int)=  0.00090515
 Iteration  3 RMS(Cart)=  0.00000274 RMS(Int)=  0.00090515
 Iteration  4 RMS(Cart)=  0.00000000 RMS(Int)=  0.00090515
 Iteration  1 RMS(Cart)=  0.00000409 RMS(Int)=  0.00004580
 Iteration  2 RMS(Cart)=  0.00000408 RMS(Int)=  0.00004581
 Iteration  3 RMS(Cart)=  0.00000408 RMS(Int)=  0.00004586
 Iteration  4 RMS(Cart)=  0.00000408 RMS(Int)=  0.00004593
 Iteration  5 RMS(Cart)=  0.00000407 RMS(Int)=  0.00004604
 Iteration  6 RMS(Cart)=  0.00000407 RMS(Int)=  0.00004618
 Iteration  7 RMS(Cart)=  0.00000406 RMS(Int)=  0.00004635
 Iteration  8 RMS(Cart)=  0.00000406 RMS(Int)=  0.00004654
 Iteration  9 RMS(Cart)=  0.00000406 RMS(Int)=  0.00004677
 Iteration 10 RMS(Cart)=  0.00000405 RMS(Int)=  0.00004702
 Iteration 11 RMS(Cart)=  0.00000405 RMS(Int)=  0.00004730
 Iteration 12 RMS(Cart)=  0.00000405 RMS(Int)=  0.00004761
 Iteration 13 RMS(Cart)=  0.00000404 RMS(Int)=  0.00004795
 Iteration 14 RMS(Cart)=  0.00000404 RMS(Int)=  0.00004831
 Iteration 15 RMS(Cart)=  0.00000403 RMS(Int)=  0.00004870
 Iteration 16 RMS(Cart)=  0.00000403 RMS(Int)=  0.00004911
 Iteration 17 RMS(Cart)=  0.00000403 RMS(Int)=  0.00004954
 Iteration 18 RMS(Cart)=  0.00000402 RMS(Int)=  0.00005000
 Iteration 19 RMS(Cart)=  0.00000402 RMS(Int)=  0.00005049
 Iteration 20 RMS(Cart)=  0.00000402 RMS(Int)=  0.00005099
 Iteration 21 RMS(Cart)=  0.00000401 RMS(Int)=  0.00005151
 Iteration 22 RMS(Cart)=  0.00000401 RMS(Int)=  0.00005206
 Iteration 23 RMS(Cart)=  0.00000401 RMS(Int)=  0.00005262
 Iteration 24 RMS(Cart)=  0.00000400 RMS(Int)=  0.00005321
 Iteration 25 RMS(Cart)=  0.00000400 RMS(Int)=  0.00005381
 Iteration 26 RMS(Cart)=  0.00000399 RMS(Int)=  0.00005443
 Iteration 27 RMS(Cart)=  0.00000399 RMS(Int)=  0.00005507
 Iteration 28 RMS(Cart)=  0.00000399 RMS(Int)=  0.00005572
 Iteration 29 RMS(Cart)=  0.00000398 RMS(Int)=  0.00005639
 Iteration 30 RMS(Cart)=  0.00000398 RMS(Int)=  0.00005708
 Iteration 31 RMS(Cart)=  0.00000398 RMS(Int)=  0.00005777
 Iteration 32 RMS(Cart)=  0.00000397 RMS(Int)=  0.00005849
 Iteration 33 RMS(Cart)=  0.00000397 RMS(Int)=  0.00005921
 Iteration 34 RMS(Cart)=  0.00000397 RMS(Int)=  0.00005995
 Iteration 35 RMS(Cart)=  0.00000396 RMS(Int)=  0.00006070
 Iteration 36 RMS(Cart)=  0.00000396 RMS(Int)=  0.00006147
 Iteration 37 RMS(Cart)=  0.00000395 RMS(Int)=  0.00006224
 Iteration 38 RMS(Cart)=  0.00000395 RMS(Int)=  0.00006303
 Iteration 39 RMS(Cart)=  0.00000395 RMS(Int)=  0.00006382
 Iteration 40 RMS(Cart)=  0.00000394 RMS(Int)=  0.00006463
 Iteration 41 RMS(Cart)=  0.00000394 RMS(Int)=  0.00006545
 Iteration 42 RMS(Cart)=  0.00000394 RMS(Int)=  0.00006627
 Iteration 43 RMS(Cart)=  0.00000393 RMS(Int)=  0.00006710
 Iteration 44 RMS(Cart)=  0.00000393 RMS(Int)=  0.00006794
 Iteration 45 RMS(Cart)=  0.00000393 RMS(Int)=  0.00006879
 Iteration 46 RMS(Cart)=  0.00000392 RMS(Int)=  0.00006965
 Iteration 47 RMS(Cart)=  0.00000392 RMS(Int)=  0.00007052
 Iteration 48 RMS(Cart)=  0.00000392 RMS(Int)=  0.00007139
 Iteration 49 RMS(Cart)=  0.00000391 RMS(Int)=  0.00007226
 Iteration 50 RMS(Cart)=  0.00000391 RMS(Int)=  0.00007315
 Iteration 51 RMS(Cart)=  0.00000391 RMS(Int)=  0.00007404
 Iteration 52 RMS(Cart)=  0.00000390 RMS(Int)=  0.00007494
 Iteration 53 RMS(Cart)=  0.00000390 RMS(Int)=  0.00007584
 Iteration 54 RMS(Cart)=  0.00000389 RMS(Int)=  0.00007675
 Iteration 55 RMS(Cart)=  0.00000389 RMS(Int)=  0.00007766
 Iteration 56 RMS(Cart)=  0.00000389 RMS(Int)=  0.00007858
 Iteration 57 RMS(Cart)=  0.00000388 RMS(Int)=  0.00007950
 Iteration 58 RMS(Cart)=  0.00000388 RMS(Int)=  0.00008043
 Iteration 59 RMS(Cart)=  0.00000388 RMS(Int)=  0.00008136
 Iteration 60 RMS(Cart)=  0.00000387 RMS(Int)=  0.00008229
 Iteration 61 RMS(Cart)=  0.00000387 RMS(Int)=  0.00008323
 Iteration 62 RMS(Cart)=  0.00000387 RMS(Int)=  0.00008418
 Iteration 63 RMS(Cart)=  0.00000386 RMS(Int)=  0.00008512
 Iteration 64 RMS(Cart)=  0.00000386 RMS(Int)=  0.00008607
 Iteration 65 RMS(Cart)=  0.00000386 RMS(Int)=  0.00008703
 Iteration 66 RMS(Cart)=  0.00000385 RMS(Int)=  0.00008798
 Iteration 67 RMS(Cart)=  0.00000385 RMS(Int)=  0.00008894
 Iteration 68 RMS(Cart)=  0.00000385 RMS(Int)=  0.00008991
 Iteration 69 RMS(Cart)=  0.00000384 RMS(Int)=  0.00009087
 Iteration 70 RMS(Cart)=  0.00000384 RMS(Int)=  0.00009184
 Iteration 71 RMS(Cart)=  0.00000384 RMS(Int)=  0.00009281
 Iteration 72 RMS(Cart)=  0.00000383 RMS(Int)=  0.00009378
 Iteration 73 RMS(Cart)=  0.00000383 RMS(Int)=  0.00009476
 Iteration 74 RMS(Cart)=  0.00000383 RMS(Int)=  0.00009574
 Iteration 75 RMS(Cart)=  0.00000382 RMS(Int)=  0.00009672
 Iteration 76 RMS(Cart)=  0.00000382 RMS(Int)=  0.00009770
 Iteration 77 RMS(Cart)=  0.00000382 RMS(Int)=  0.00009868
 Iteration 78 RMS(Cart)=  0.00000381 RMS(Int)=  0.00009967
 Iteration 79 RMS(Cart)=  0.00000381 RMS(Int)=  0.00010065
 Iteration 80 RMS(Cart)=  0.00000381 RMS(Int)=  0.00010164
 Iteration 81 RMS(Cart)=  0.00000380 RMS(Int)=  0.00010263
 Iteration 82 RMS(Cart)=  0.00000380 RMS(Int)=  0.00010362
 Iteration 83 RMS(Cart)=  0.00000380 RMS(Int)=  0.00010462
 Iteration 84 RMS(Cart)=  0.00000379 RMS(Int)=  0.00010561
 Iteration 85 RMS(Cart)=  0.00000379 RMS(Int)=  0.00010661
 Iteration 86 RMS(Cart)=  0.00000379 RMS(Int)=  0.00010760
 Iteration 87 RMS(Cart)=  0.00000378 RMS(Int)=  0.00010860
 Iteration 88 RMS(Cart)=  0.00000378 RMS(Int)=  0.00010960
 Iteration 89 RMS(Cart)=  0.00000378 RMS(Int)=  0.00011060
 Iteration 90 RMS(Cart)=  0.00000377 RMS(Int)=  0.00011160
 Iteration 91 RMS(Cart)=  0.00000377 RMS(Int)=  0.00011261
 Iteration 92 RMS(Cart)=  0.00000377 RMS(Int)=  0.00011361
 Iteration 93 RMS(Cart)=  0.00000376 RMS(Int)=  0.00011461
 Iteration 94 RMS(Cart)=  0.00000376 RMS(Int)=  0.00011562
 Iteration 95 RMS(Cart)=  0.00000376 RMS(Int)=  0.00011662
 Iteration 96 RMS(Cart)=  0.00000375 RMS(Int)=  0.00011763
 Iteration 97 RMS(Cart)=  0.00000375 RMS(Int)=  0.00011864
 Iteration 98 RMS(Cart)=  0.00000375 RMS(Int)=  0.00011965
 Iteration 99 RMS(Cart)=  0.00000374 RMS(Int)=  0.00012065
 Iteration100 RMS(Cart)=  0.00000374 RMS(Int)=  0.00012166
 New curvilinear step not converged.
 Error imposing constraints
 Error termination via Lnk1e in /shared/apps/gaussian/G09_LINUX_LINDA/g09/l103.exe at Sun Aug 20 11:16:27 2017.
 Job cpu time:  0 days  1 hours 12 minutes 37.2 seconds.
 File lengths (MBytes):  RWF=   1216 Int=      0 D2E=      0 Chk=     32 Scr=     32
