 Entering Gaussian System, Link 0=/shared/apps/gaussian/G09_LINUX_LINDA/g09/g09
 Input=/gss_gpfs_scratch/harms.n/QMscratch/[O]CC1C=CC=CC=1+[O]O_OO+[O][CH]C1C=CC=CC=1.gjf
 Output=/gss_gpfs_scratch/harms.n/QMscratch/[O]CC1C=CC=CC=1+[O]O_OO+[O][CH]C1C=CC=CC=1.log
 Initial command:
 /shared/apps/gaussian/G09_LINUX_LINDA/g09/l1.exe /gss_gpfs_scratch/harms.n/comparerTST/Gau-40981.inp -scrdir=/gss_gpfs_scratch/harms.n/comparerTST/
 Entering Link 1 = /shared/apps/gaussian/G09_LINUX_LINDA/g09/l1.exe PID=     40982.
  
 Copyright (c) 1988,1990,1992,1993,1995,1998,2003,2009,2010,
            Gaussian, Inc.  All Rights Reserved.
  
 This is part of the Gaussian(R) 09 program.  It is based on
 the Gaussian(R) 03 system (copyright 2003, Gaussian, Inc.),
 the Gaussian(R) 98 system (copyright 1998, Gaussian, Inc.),
 the Gaussian(R) 94 system (copyright 1995, Gaussian, Inc.),
 the Gaussian 92(TM) system (copyright 1992, Gaussian, Inc.),
 the Gaussian 90(TM) system (copyright 1990, Gaussian, Inc.),
 the Gaussian 88(TM) system (copyright 1988, Gaussian, Inc.),
 the Gaussian 86(TM) system (copyright 1986, Carnegie Mellon
 University), and the Gaussian 82(TM) system (copyright 1983,
 Carnegie Mellon University). Gaussian is a federally registered
 trademark of Gaussian, Inc.
  
 This software contains proprietary and confidential information,
 including trade secrets, belonging to Gaussian, Inc.
  
 This software is provided under written license and may be
 used, copied, transmitted, or stored only in accord with that
 written license.
  
 The following legend is applicable only to US Government
 contracts under FAR:
  
                    RESTRICTED RIGHTS LEGEND
  
 Use, reproduction and disclosure by the US Government is
 subject to restrictions as set forth in subparagraphs (a)
 and (c) of the Commercial Computer Software - Restricted
 Rights clause in FAR 52.227-19.
  
 Gaussian, Inc.
 340 Quinnipiac St., Bldg. 40, Wallingford CT 06492
  
  
 ---------------------------------------------------------------
 Warning -- This program may not be used in any manner that
 competes with the business of Gaussian, Inc. or will provide
 assistance to any competitor of Gaussian, Inc.  The licensee
 of this program is prohibited from giving any competitor of
 Gaussian, Inc. access to this program.  By using this program,
 the user acknowledges that Gaussian, Inc. is engaged in the
 business of creating and licensing software in the field of
 computational chemistry and represents and warrants to the
 licensee that it is not a competitor of Gaussian, Inc. and that
 it will not use this program in any manner prohibited above.
 ---------------------------------------------------------------
  

 Cite this work as:
 Gaussian 09, Revision B.01,
 M. J. Frisch, G. W. Trucks, H. B. Schlegel, G. E. Scuseria, 
 M. A. Robb, J. R. Cheeseman, G. Scalmani, V. Barone, B. Mennucci, 
 G. A. Petersson, H. Nakatsuji, M. Caricato, X. Li, H. P. Hratchian, 
 A. F. Izmaylov, J. Bloino, G. Zheng, J. L. Sonnenberg, M. Hada, 
 M. Ehara, K. Toyota, R. Fukuda, J. Hasegawa, M. Ishida, T. Nakajima, 
 Y. Honda, O. Kitao, H. Nakai, T. Vreven, J. A. Montgomery, Jr., 
 J. E. Peralta, F. Ogliaro, M. Bearpark, J. J. Heyd, E. Brothers, 
 K. N. Kudin, V. N. Staroverov, T. Keith, R. Kobayashi, J. Normand, 
 K. Raghavachari, A. Rendell, J. C. Burant, S. S. Iyengar, J. Tomasi, 
 M. Cossi, N. Rega, J. M. Millam, M. Klene, J. E. Knox, J. B. Cross, 
 V. Bakken, C. Adamo, J. Jaramillo, R. Gomperts, R. E. Stratmann, 
 O. Yazyev, A. J. Austin, R. Cammi, C. Pomelli, J. W. Ochterski, 
 R. L. Martin, K. Morokuma, V. G. Zakrzewski, G. A. Voth, 
 P. Salvador, J. J. Dannenberg, S. Dapprich, A. D. Daniels, 
 O. Farkas, J. B. Foresman, J. V. Ortiz, J. Cioslowski, 
 and D. J. Fox, Gaussian, Inc., Wallingford CT, 2010.
 
 ******************************************
 Gaussian 09:  EM64L-G09RevB.01 12-Aug-2010
                30-Sep-2017 
 ******************************************
 %nprocshared=20
 Will use up to   20 processors via shared memory.
 %mem=5GB
 %chk=/gss_gpfs_scratch/harms.n/QMscratch/[O]CC1C=CC=CC=1+[O]O_OO+[O][CH]C1C=CC=C
 C=1
 --------------------------------------------------------
 # m062x/6-311+g(2df,2p) opt=(ts,calcfc,noeigentest) freq
 --------------------------------------------------------
 1/5=1,10=4,11=1,14=-1,18=20,26=3,38=1/1,3;
 2/9=110,12=2,17=6,18=5,40=1/2;
 3/5=4,6=6,7=214,11=2,16=1,25=1,30=1,71=2,74=-55/1,2,3;
 4//1;
 5/5=2,38=5/2;
 8/6=4,10=90,11=11/1;
 11/6=1,8=1,9=11,15=111,16=1/1,2,10;
 10/6=1,7=6,13=1/2;
 6/7=2,8=2,9=2,10=2,28=1/1;
 7/10=1,18=20,25=1/1,2,3,16;
 1/5=1,10=4,11=1,14=-1,18=20/3(2);
 2/9=110/2;
 99//99;
 2/9=110/2;
 3/5=4,6=6,7=214,11=2,16=1,25=1,30=1,71=1,74=-55/1,2,3;
 4/5=5,16=3/1;
 5/5=2,38=5/2;
 7//1,2,3,16;
 1/5=1,11=1,14=-1,18=20/3(-5);
 2/9=110/2;
 6/7=2,8=2,9=2,10=2,19=2,28=1/1;
 99/9=1/99;
 ------------------------------------------
 [O]CC1C=CC=CC=1+[O]O_OO+[O][CH]C1C=CC=CC=1
 ------------------------------------------
 Symbolic Z-matrix:
 Charge =  0 Multiplicity = 3
 C                    -1.02818   0.5595    1.03372 
 C                     0.36808   0.23691   0.53152 
 C                     0.87123  -1.05705   0.63281 
 C                     1.06929   1.1616   -0.23818 
 C                     2.16879  -1.34104   0.22514 
 C                     2.92987  -0.35556  -0.38578 
 C                     2.37528   0.89743  -0.6243 
 O                    -1.72483   1.51115   0.265 
 H                    -1.58909  -0.373     1.13672 
 H                    -0.95091   0.98459   2.04019 
 H                     0.26806  -1.8282    1.09797 
 H                     2.55548  -2.34734   0.31471 
 H                     3.93733  -0.57341  -0.71386 
 H                     2.90328   1.60851  -1.24579 
 H                     0.59891   2.10289  -0.48828 
 O                    -2.50892  -0.52611  -1.11648 
 O                    -3.03011  -1.13807  -0.23829 
 H                    -2.13836   1.03943  -0.47313 
 

 GradGradGradGradGradGradGradGradGradGradGradGradGradGradGradGradGradGrad
 Berny optimization.
 Initialization pass.
                           ----------------------------
                           !    Initial Parameters    !
                           ! (Angstroms and Degrees)  !
 --------------------------                            --------------------------
 ! Name  Definition              Value          Derivative Info.                !
 --------------------------------------------------------------------------------
 ! R1    R(1,2)                  1.5185         calculate D2E/DX2 analytically  !
 ! R2    R(1,8)                  1.4078         calculate D2E/DX2 analytically  !
 ! R3    R(1,9)                  1.0931         calculate D2E/DX2 analytically  !
 ! R4    R(1,10)                 1.0953         calculate D2E/DX2 analytically  !
 ! R5    R(2,3)                  1.392          calculate D2E/DX2 analytically  !
 ! R6    R(2,4)                  1.3926         calculate D2E/DX2 analytically  !
 ! R7    R(3,5)                  1.3894         calculate D2E/DX2 analytically  !
 ! R8    R(3,11)                 1.0839         calculate D2E/DX2 analytically  !
 ! R9    R(4,7)                  1.3873         calculate D2E/DX2 analytically  !
 ! R10   R(4,15)                 1.0816         calculate D2E/DX2 analytically  !
 ! R11   R(5,6)                  1.3869         calculate D2E/DX2 analytically  !
 ! R12   R(5,12)                 1.0818         calculate D2E/DX2 analytically  !
 ! R13   R(6,7)                  1.3908         calculate D2E/DX2 analytically  !
 ! R14   R(6,13)                 1.0817         calculate D2E/DX2 analytically  !
 ! R15   R(7,14)                 1.082          calculate D2E/DX2 analytically  !
 ! R16   R(8,18)                 0.9687         calculate D2E/DX2 analytically  !
 ! R17   R(9,17)                 2.1337         calculate D2E/DX2 analytically  !
 ! R18   R(16,17)                1.1905         calculate D2E/DX2 analytically  !
 ! R19   R(16,18)                1.7327         calculate D2E/DX2 analytically  !
 ! A1    A(2,1,8)              114.7111         calculate D2E/DX2 analytically  !
 ! A2    A(2,1,9)              108.7703         calculate D2E/DX2 analytically  !
 ! A3    A(2,1,10)             108.7532         calculate D2E/DX2 analytically  !
 ! A4    A(8,1,9)              111.9752         calculate D2E/DX2 analytically  !
 ! A5    A(8,1,10)             105.9214         calculate D2E/DX2 analytically  !
 ! A6    A(9,1,10)             106.3022         calculate D2E/DX2 analytically  !
 ! A7    A(1,2,3)              120.3825         calculate D2E/DX2 analytically  !
 ! A8    A(1,2,4)              120.314          calculate D2E/DX2 analytically  !
 ! A9    A(3,2,4)              118.3893         calculate D2E/DX2 analytically  !
 ! A10   A(2,3,5)              120.4106         calculate D2E/DX2 analytically  !
 ! A11   A(2,3,11)             119.4338         calculate D2E/DX2 analytically  !
 ! A12   A(5,3,11)             120.0123         calculate D2E/DX2 analytically  !
 ! A13   A(2,4,7)              120.0953         calculate D2E/DX2 analytically  !
 ! A14   A(2,4,15)             119.1248         calculate D2E/DX2 analytically  !
 ! A15   A(7,4,15)             120.7162         calculate D2E/DX2 analytically  !
 ! A16   A(3,5,6)              119.767          calculate D2E/DX2 analytically  !
 ! A17   A(3,5,12)             119.9782         calculate D2E/DX2 analytically  !
 ! A18   A(6,5,12)             120.0854         calculate D2E/DX2 analytically  !
 ! A19   A(5,6,7)              119.7914         calculate D2E/DX2 analytically  !
 ! A20   A(5,6,13)             120.1045         calculate D2E/DX2 analytically  !
 ! A21   A(7,6,13)             120.0528         calculate D2E/DX2 analytically  !
 ! A22   A(4,7,6)              119.9472         calculate D2E/DX2 analytically  !
 ! A23   A(4,7,14)             119.6124         calculate D2E/DX2 analytically  !
 ! A24   A(6,7,14)             119.7355         calculate D2E/DX2 analytically  !
 ! A25   A(1,8,18)             107.3466         calculate D2E/DX2 analytically  !
 ! A26   A(1,9,17)             126.281          calculate D2E/DX2 analytically  !
 ! A27   A(17,16,18)           106.5097         calculate D2E/DX2 analytically  !
 ! A28   A(9,17,16)             89.7358         calculate D2E/DX2 analytically  !
 ! A29   A(8,18,16)            144.5107         calculate D2E/DX2 analytically  !
 ! D1    D(8,1,2,3)           -144.1895         calculate D2E/DX2 analytically  !
 ! D2    D(8,1,2,4)             24.6929         calculate D2E/DX2 analytically  !
 ! D3    D(9,1,2,3)            -17.9289         calculate D2E/DX2 analytically  !
 ! D4    D(9,1,2,4)            150.9535         calculate D2E/DX2 analytically  !
 ! D5    D(10,1,2,3)            97.442          calculate D2E/DX2 analytically  !
 ! D6    D(10,1,2,4)           -93.6756         calculate D2E/DX2 analytically  !
 ! D7    D(2,1,8,18)            84.2041         calculate D2E/DX2 analytically  !
 ! D8    D(9,1,8,18)           -40.3829         calculate D2E/DX2 analytically  !
 ! D9    D(10,1,8,18)         -155.8429         calculate D2E/DX2 analytically  !
 ! D10   D(2,1,9,17)          -100.6683         calculate D2E/DX2 analytically  !
 ! D11   D(8,1,9,17)            27.1568         calculate D2E/DX2 analytically  !
 ! D12   D(10,1,9,17)          142.3846         calculate D2E/DX2 analytically  !
 ! D13   D(1,2,3,5)           -177.2905         calculate D2E/DX2 analytically  !
 ! D14   D(1,2,3,11)            -1.6422         calculate D2E/DX2 analytically  !
 ! D15   D(4,2,3,5)             13.6165         calculate D2E/DX2 analytically  !
 ! D16   D(4,2,3,11)          -170.7352         calculate D2E/DX2 analytically  !
 ! D17   D(1,2,4,7)            175.9693         calculate D2E/DX2 analytically  !
 ! D18   D(1,2,4,15)            -1.1488         calculate D2E/DX2 analytically  !
 ! D19   D(3,2,4,7)            -14.9299         calculate D2E/DX2 analytically  !
 ! D20   D(3,2,4,15)           167.952          calculate D2E/DX2 analytically  !
 ! D21   D(2,3,5,6)             -5.2398         calculate D2E/DX2 analytically  !
 ! D22   D(2,3,5,12)           179.4857         calculate D2E/DX2 analytically  !
 ! D23   D(11,3,5,6)           179.1371         calculate D2E/DX2 analytically  !
 ! D24   D(11,3,5,12)            3.8625         calculate D2E/DX2 analytically  !
 ! D25   D(2,4,7,6)              7.9118         calculate D2E/DX2 analytically  !
 ! D26   D(2,4,7,14)           178.2682         calculate D2E/DX2 analytically  !
 ! D27   D(15,4,7,6)          -175.0166         calculate D2E/DX2 analytically  !
 ! D28   D(15,4,7,14)           -4.6601         calculate D2E/DX2 analytically  !
 ! D29   D(3,5,6,7)             -2.0184         calculate D2E/DX2 analytically  !
 ! D30   D(3,5,6,13)          -179.4141         calculate D2E/DX2 analytically  !
 ! D31   D(12,5,6,7)           173.251          calculate D2E/DX2 analytically  !
 ! D32   D(12,5,6,13)           -4.1447         calculate D2E/DX2 analytically  !
 ! D33   D(5,6,7,4)              0.6835         calculate D2E/DX2 analytically  !
 ! D34   D(5,6,7,14)          -169.661          calculate D2E/DX2 analytically  !
 ! D35   D(13,6,7,4)           178.0806         calculate D2E/DX2 analytically  !
 ! D36   D(13,6,7,14)            7.736          calculate D2E/DX2 analytically  !
 ! D37   D(1,8,18,16)           10.4478         calculate D2E/DX2 analytically  !
 ! D38   D(1,9,17,16)           25.1076         calculate D2E/DX2 analytically  !
 ! D39   D(18,16,17,9)         -42.5418         calculate D2E/DX2 analytically  !
 ! D40   D(17,16,18,8)          50.2035         calculate D2E/DX2 analytically  !
 --------------------------------------------------------------------------------
 Trust Radius=3.00D-01 FncErr=1.00D-07 GrdErr=1.00D-06
 Number of steps in this run=     98 maximum allowed number of steps=    108.
 Search for a saddle point of order  1.
 GradGradGradGradGradGradGradGradGradGradGradGradGradGradGradGradGradGrad

                          Input orientation:                          
 ---------------------------------------------------------------------
 Center     Atomic      Atomic             Coordinates (Angstroms)
 Number     Number       Type             X           Y           Z
 ---------------------------------------------------------------------
      1          6           0       -1.028177    0.559503    1.033718
      2          6           0        0.368082    0.236905    0.531522
      3          6           0        0.871229   -1.057050    0.632809
      4          6           0        1.069292    1.161599   -0.238181
      5          6           0        2.168789   -1.341036    0.225138
      6          6           0        2.929870   -0.355557   -0.385775
      7          6           0        2.375281    0.897429   -0.624303
      8          8           0       -1.724827    1.511149    0.265002
      9          1           0       -1.589088   -0.372995    1.136720
     10          1           0       -0.950914    0.984591    2.040189
     11          1           0        0.268057   -1.828203    1.097971
     12          1           0        2.555481   -2.347342    0.314710
     13          1           0        3.937326   -0.573411   -0.713860
     14          1           0        2.903275    1.608513   -1.245792
     15          1           0        0.598908    2.102892   -0.488283
     16          8           0       -2.508924   -0.526111   -1.116477
     17          8           0       -3.030109   -1.138067   -0.238287
     18          1           0       -2.138356    1.039434   -0.473127
 ---------------------------------------------------------------------
                    Distance matrix (angstroms):
                    1          2          3          4          5
     1  C    0.000000
     2  C    1.518489   0.000000
     3  C    2.526206   1.392026   0.000000
     4  C    2.525792   1.392551   2.391706   0.000000
     5  C    3.806106   2.413776   1.389426   2.772497   0.000000
     6  C    4.303305   2.784816   2.401585   2.405264   1.386949
     7  C    3.800889   2.408541   2.768121   1.387257   2.403105
     8  O    1.407791   2.464751   3.670209   2.860503   4.826675
     9  H    1.093061   2.137465   2.602886   3.363379   3.986192
    10  H    1.095287   2.138892   3.077210   3.050169   4.293658
    11  H    2.717626   2.143721   1.083914   3.371379   2.147545
    12  H    4.670046   3.392647   2.145401   3.850599   1.081760
    13  H    5.384584   3.866147   3.383545   3.385580   2.144455
    14  H    4.664001   3.386349   3.842340   2.139744   3.376825
    15  H    2.710340   2.138969   3.363962   1.081594   3.851511
    16  O    2.827456   3.402243   3.842829   4.052579   4.934069
    17  O    2.916757   3.745778   3.998226   4.700378   5.223457
    18  H    1.932204   2.817020   3.830919   3.218560   4.970484
                    6          7          8          9         10
     6  C    0.000000
     7  C    1.390841   0.000000
     8  O    5.057105   4.240094   0.000000
     9  H    4.768572   4.520111   2.080461   0.000000
    10  H    4.768834   4.262709   2.006862   1.751160   0.000000
    11  H    3.384588   3.851713   3.977021   2.359686   3.207098
    12  H    2.144307   3.382714   5.762939   4.663818   5.135549
    13  H    1.081697   2.147411   6.112572   5.831472   5.822976
    14  H    2.144273   1.081974   4.869426   5.457478   5.103109
    15  H    3.389375   2.151080   2.513432   3.682116   3.169498
    16  O    5.490309   5.111180   2.583355   2.438532   3.830686
    17  O    6.012938   5.788825   2.995898   2.133664   3.744353
    18  H    5.257428   4.518400   0.968688   2.210941   2.780249
                   11         12         13         14         15
    11  H    0.000000
    12  H    2.472916   0.000000
    13  H    4.280277   2.472708   0.000000
    14  H    4.924288   4.266722   2.472449   0.000000
    15  H    4.251961   4.927226   4.284684   2.475548   0.000000
    16  O    3.782968   5.568965   6.458984   5.819385   4.118847
    17  O    3.624882   5.741687   7.006437   6.615422   4.871969
    18  H    4.059866   5.841493   6.290718   5.132144   2.936628
                   16         17         18
    16  O    0.000000
    17  O    1.190522   0.000000
    18  H    1.732672   2.364716   0.000000
 Stoichiometry    C7H8O3(3)
 Framework group  C1[X(C7H8O3)]
 Deg. of freedom    48
 Full point group                 C1      NOp   1
 Largest Abelian subgroup         C1      NOp   1
 Largest concise Abelian subgroup C1      NOp   1
                         Standard orientation:                         
 ---------------------------------------------------------------------
 Center     Atomic      Atomic             Coordinates (Angstroms)
 Number     Number       Type             X           Y           Z
 ---------------------------------------------------------------------
      1          6           0       -1.028177    0.559503    1.033718
      2          6           0        0.368082    0.236905    0.531522
      3          6           0        0.871229   -1.057050    0.632809
      4          6           0        1.069292    1.161599   -0.238181
      5          6           0        2.168789   -1.341036    0.225138
      6          6           0        2.929870   -0.355557   -0.385775
      7          6           0        2.375281    0.897429   -0.624303
      8          8           0       -1.724827    1.511149    0.265002
      9          1           0       -1.589088   -0.372995    1.136720
     10          1           0       -0.950914    0.984591    2.040189
     11          1           0        0.268057   -1.828203    1.097971
     12          1           0        2.555481   -2.347342    0.314710
     13          1           0        3.937326   -0.573411   -0.713860
     14          1           0        2.903275    1.608513   -1.245792
     15          1           0        0.598908    2.102892   -0.488283
     16          8           0       -2.508924   -0.526111   -1.116477
     17          8           0       -3.030109   -1.138067   -0.238287
     18          1           0       -2.138356    1.039434   -0.473127
 ---------------------------------------------------------------------
 Rotational constants (GHZ):      2.4429884      0.7676453      0.6777137
 Standard basis: 6-311+G(2df,2p) (5D, 7F)
 There are   412 symmetry adapted basis functions of A   symmetry.
 Integral buffers will be    131072 words long.
 Raffenetti 2 integral format.
 Two-electron integral symmetry is turned on.
   412 basis functions,   608 primitive gaussians,   462 cartesian basis functions
    38 alpha electrons       36 beta electrons
       nuclear repulsion energy       497.9074125482 Hartrees.
 NAtoms=   18 NActive=   18 NUniq=   18 SFac= 1.00D+00 NAtFMM=   50 NAOKFM=F Big=F
 One-electron integrals computed using PRISM.
 NBasis=   412 RedAO= T  NBF=   412
 NBsUse=   412 1.00D-06 NBFU=   412
 Harris functional with IExCor= 1009 diagonalized for initial guess.
 ExpMin= 4.38D-02 ExpMax= 8.59D+03 ExpMxC= 1.30D+03 IAcc=2 IRadAn=         0 AccDes= 0.00D+00
 HarFok:  IExCor= 1009 AccDes= 0.00D+00 IRadAn=         0 IDoV= 1
 ScaDFX=  1.000000  1.000000  1.000000  1.000000
 FoFCou: FMM=F IPFlag=           0 FMFlag=      100000 FMFlg1=           0
         NFxFlg=           0 DoJE=T BraDBF=F KetDBF=T FulRan=T
         Omega=  0.000000  0.000000  1.000000  0.000000  0.000000 ICntrl=     500 IOpCl=  0
         NMat0=    1 NMatS0=    1 NMatT0=    0 NMatD0=    1 NMtDS0=    0 NMtDT0=    0
         I1Cent=           4 NGrid=           0.
 Petite list used in FoFCou.
 Initial guess orbital symmetries:
 Alpha Orbitals:
       Occupied  (A) (A) (A) (A) (A) (A) (A) (A) (A) (A) (A) (A)
                 (A) (A) (A) (A) (A) (A) (A) (A) (A) (A) (A) (A)
                 (A) (A) (A) (A) (A) (A) (A) (A) (A) (A) (A) (A)
                 (A) (A)
       Virtual   (A) (A) (A) (A) (A) (A) (A) (A) (A) (A) (A) (A)
                 (A) (A) (A) (A) (A) (A) (A) (A) (A) (A) (A) (A)
                 (A) (A) (A) (A) (A) (A) (A) (A) (A) (A) (A) (A)
                 (A) (A) (A) (A) (A) (A) (A) (A) (A) (A) (A) (A)
                 (A) (A) (A) (A) (A) (A) (A) (A) (A) (A) (A) (A)
                 (A) (A) (A) (A) (A) (A) (A) (A) (A) (A) (A) (A)
                 (A) (A) (A) (A) (A) (A) (A) (A) (A) (A) (A) (A)
                 (A) (A) (A) (A) (A) (A) (A) (A) (A) (A) (A) (A)
                 (A) (A) (A) (A) (A) (A) (A) (A) (A) (A) (A) (A)
                 (A) (A) (A) (A) (A) (A) (A) (A) (A) (A) (A) (A)
                 (A) (A) (A) (A) (A) (A) (A) (A) (A) (A) (A) (A)
                 (A) (A) (A) (A) (A) (A) (A) (A) (A) (A) (A) (A)
                 (A) (A) (A) (A) (A) (A) (A) (A) (A) (A) (A) (A)
                 (A) (A) (A) (A) (A) (A) (A) (A) (A) (A) (A) (A)
                 (A) (A) (A) (A) (A) (A) (A) (A) (A) (A) (A) (A)
                 (A) (A) (A) (A) (A) (A) (A) (A) (A) (A) (A) (A)
                 (A) (A) (A) (A) (A) (A) (A) (A) (A) (A) (A) (A)
                 (A) (A) (A) (A) (A) (A) (A) (A) (A) (A) (A) (A)
                 (A) (A) (A) (A) (A) (A) (A) (A) (A) (A) (A) (A)
                 (A) (A) (A) (A) (A) (A) (A) (A) (A) (A) (A) (A)
                 (A) (A) (A) (A) (A) (A) (A) (A) (A) (A) (A) (A)
                 (A) (A) (A) (A) (A) (A) (A) (A) (A) (A) (A) (A)
                 (A) (A) (A) (A) (A) (A) (A) (A) (A) (A) (A) (A)
                 (A) (A) (A) (A) (A) (A) (A) (A) (A) (A) (A) (A)
                 (A) (A) (A) (A) (A) (A) (A) (A) (A) (A) (A) (A)
                 (A) (A) (A) (A) (A) (A) (A) (A) (A) (A) (A) (A)
                 (A) (A) (A) (A) (A) (A) (A) (A) (A) (A) (A) (A)
                 (A) (A) (A) (A) (A) (A) (A) (A) (A) (A) (A) (A)
                 (A) (A) (A) (A) (A) (A) (A) (A) (A) (A) (A) (A)
                 (A) (A) (A) (A) (A) (A) (A) (A) (A) (A) (A) (A)
                 (A) (A) (A) (A) (A) (A) (A) (A) (A) (A) (A) (A)
                 (A) (A)
 Beta  Orbitals:
       Occupied  (A) (A) (A) (A) (A) (A) (A) (A) (A) (A) (A) (A)
                 (A) (A) (A) (A) (A) (A) (A) (A) (A) (A) (A) (A)
                 (A) (A) (A) (A) (A) (A) (A) (A) (A) (A) (A) (A)
       Virtual   (A) (A) (A) (A) (A) (A) (A) (A) (A) (A) (A) (A)
                 (A) (A) (A) (A) (A) (A) (A) (A) (A) (A) (A) (A)
                 (A) (A) (A) (A) (A) (A) (A) (A) (A) (A) (A) (A)
                 (A) (A) (A) (A) (A) (A) (A) (A) (A) (A) (A) (A)
                 (A) (A) (A) (A) (A) (A) (A) (A) (A) (A) (A) (A)
                 (A) (A) (A) (A) (A) (A) (A) (A) (A) (A) (A) (A)
                 (A) (A) (A) (A) (A) (A) (A) (A) (A) (A) (A) (A)
                 (A) (A) (A) (A) (A) (A) (A) (A) (A) (A) (A) (A)
                 (A) (A) (A) (A) (A) (A) (A) (A) (A) (A) (A) (A)
                 (A) (A) (A) (A) (A) (A) (A) (A) (A) (A) (A) (A)
                 (A) (A) (A) (A) (A) (A) (A) (A) (A) (A) (A) (A)
                 (A) (A) (A) (A) (A) (A) (A) (A) (A) (A) (A) (A)
                 (A) (A) (A) (A) (A) (A) (A) (A) (A) (A) (A) (A)
                 (A) (A) (A) (A) (A) (A) (A) (A) (A) (A) (A) (A)
                 (A) (A) (A) (A) (A) (A) (A) (A) (A) (A) (A) (A)
                 (A) (A) (A) (A) (A) (A) (A) (A) (A) (A) (A) (A)
                 (A) (A) (A) (A) (A) (A) (A) (A) (A) (A) (A) (A)
                 (A) (A) (A) (A) (A) (A) (A) (A) (A) (A) (A) (A)
                 (A) (A) (A) (A) (A) (A) (A) (A) (A) (A) (A) (A)
                 (A) (A) (A) (A) (A) (A) (A) (A) (A) (A) (A) (A)
                 (A) (A) (A) (A) (A) (A) (A) (A) (A) (A) (A) (A)
                 (A) (A) (A) (A) (A) (A) (A) (A) (A) (A) (A) (A)
                 (A) (A) (A) (A) (A) (A) (A) (A) (A) (A) (A) (A)
                 (A) (A) (A) (A) (A) (A) (A) (A) (A) (A) (A) (A)
                 (A) (A) (A) (A) (A) (A) (A) (A) (A) (A) (A) (A)
                 (A) (A) (A) (A) (A) (A) (A) (A) (A) (A) (A) (A)
                 (A) (A) (A) (A) (A) (A) (A) (A) (A) (A) (A) (A)
                 (A) (A) (A) (A) (A) (A) (A) (A) (A) (A) (A) (A)
                 (A) (A) (A) (A) (A) (A) (A) (A) (A) (A) (A) (A)
                 (A) (A) (A) (A) (A) (A) (A) (A) (A) (A) (A) (A)
                 (A) (A) (A) (A) (A) (A) (A) (A) (A) (A) (A) (A)
                 (A) (A) (A) (A)
 The electronic state of the initial guess is 3-A.
 Initial guess <Sx>= 0.0000 <Sy>= 0.0000 <Sz>= 1.0000 <S**2>= 2.0000 S= 1.0000
 Requested convergence on RMS density matrix=1.00D-08 within 128 cycles.
 Requested convergence on MAX density matrix=1.00D-06.
 Requested convergence on             energy=1.00D-06.
 No special actions if energy rises.
 SCF Done:  E(UM062X) =  -497.047563978     A.U. after   18 cycles
             Convg  =    0.2756D-08             -V/T =  2.0033
 <Sx>= 0.0000 <Sy>= 0.0000 <Sz>= 1.0000 <S**2>= 2.0121 S= 1.0040
 <L.S>= 0.000000000000E+00
 Annihilation of the first spin contaminant:
 S**2 before annihilation     2.0121,   after     2.0001
 Range of M.O.s used for correlation:     1   412
 NBasis=   412 NAE=    38 NBE=    36 NFC=     0 NFV=     0
 NROrb=    412 NOA=    38 NOB=    36 NVA=   374 NVB=   376

 **** Warning!!: The largest alpha MO coefficient is  0.12116528D+03


 **** Warning!!: The largest beta MO coefficient is  0.11639334D+03

 Symmetrizing basis deriv contribution to polar:
 IMax=3 JMax=2 DiffMx= 0.00D+00
 G2DrvN: will do    19 centers at a time, making    1 passes doing MaxLOS=3.
 Calling FoFCou, ICntrl=  3107 FMM=F I1Cent=   0 AccDes= 0.00D+00.
 FoFDir/FoFCou used for L=0 through L=3.
 End of G2Drv Frequency-dependent properties file   721 does not exist.
 End of G2Drv Frequency-dependent properties file   722 does not exist.
          IDoAtm=111111111111111111
          Differentiating once with respect to nuclear coordinates.
          There are    57 degrees of freedom in the 1st order CPHF.  IDoFFX=5.
     51 vectors produced by pass  0 Test12= 4.87D-10 1.75D-07 XBig12= 3.05D-01 1.44D-01.
 AX will form    51 AO Fock derivatives at one time.
     51 vectors produced by pass  1 Test12= 4.87D-10 1.75D-07 XBig12= 3.64D-02 4.10D-02.
     51 vectors produced by pass  2 Test12= 4.87D-10 1.75D-07 XBig12= 8.02D-04 3.97D-03.
     51 vectors produced by pass  3 Test12= 4.87D-10 1.75D-07 XBig12= 9.79D-06 5.52D-04.
     51 vectors produced by pass  4 Test12= 4.87D-10 1.75D-07 XBig12= 1.78D-07 5.37D-05.
     34 vectors produced by pass  5 Test12= 4.87D-10 1.75D-07 XBig12= 2.11D-09 5.33D-06.
      9 vectors produced by pass  6 Test12= 4.87D-10 1.75D-07 XBig12= 3.24D-11 6.98D-07.
 Inverted reduced A of dimension   298 with in-core refinement.
 End of Minotr Frequency-dependent properties file   721 does not exist.
 End of Minotr Frequency-dependent properties file   722 does not exist.

 **********************************************************************

            Population analysis using the SCF density.

 **********************************************************************

 Orbital symmetries:
 Alpha Orbitals:
       Occupied  (A) (A) (A) (A) (A) (A) (A) (A) (A) (A) (A) (A)
                 (A) (A) (A) (A) (A) (A) (A) (A) (A) (A) (A) (A)
                 (A) (A) (A) (A) (A) (A) (A) (A) (A) (A) (A) (A)
                 (A) (A)
       Virtual   (A) (A) (A) (A) (A) (A) (A) (A) (A) (A) (A) (A)
                 (A) (A) (A) (A) (A) (A) (A) (A) (A) (A) (A) (A)
                 (A) (A) (A) (A) (A) (A) (A) (A) (A) (A) (A) (A)
                 (A) (A) (A) (A) (A) (A) (A) (A) (A) (A) (A) (A)
                 (A) (A) (A) (A) (A) (A) (A) (A) (A) (A) (A) (A)
                 (A) (A) (A) (A) (A) (A) (A) (A) (A) (A) (A) (A)
                 (A) (A) (A) (A) (A) (A) (A) (A) (A) (A) (A) (A)
                 (A) (A) (A) (A) (A) (A) (A) (A) (A) (A) (A) (A)
                 (A) (A) (A) (A) (A) (A) (A) (A) (A) (A) (A) (A)
                 (A) (A) (A) (A) (A) (A) (A) (A) (A) (A) (A) (A)
                 (A) (A) (A) (A) (A) (A) (A) (A) (A) (A) (A) (A)
                 (A) (A) (A) (A) (A) (A) (A) (A) (A) (A) (A) (A)
                 (A) (A) (A) (A) (A) (A) (A) (A) (A) (A) (A) (A)
                 (A) (A) (A) (A) (A) (A) (A) (A) (A) (A) (A) (A)
                 (A) (A) (A) (A) (A) (A) (A) (A) (A) (A) (A) (A)
                 (A) (A) (A) (A) (A) (A) (A) (A) (A) (A) (A) (A)
                 (A) (A) (A) (A) (A) (A) (A) (A) (A) (A) (A) (A)
                 (A) (A) (A) (A) (A) (A) (A) (A) (A) (A) (A) (A)
                 (A) (A) (A) (A) (A) (A) (A) (A) (A) (A) (A) (A)
                 (A) (A) (A) (A) (A) (A) (A) (A) (A) (A) (A) (A)
                 (A) (A) (A) (A) (A) (A) (A) (A) (A) (A) (A) (A)
                 (A) (A) (A) (A) (A) (A) (A) (A) (A) (A) (A) (A)
                 (A) (A) (A) (A) (A) (A) (A) (A) (A) (A) (A) (A)
                 (A) (A) (A) (A) (A) (A) (A) (A) (A) (A) (A) (A)
                 (A) (A) (A) (A) (A) (A) (A) (A) (A) (A) (A) (A)
                 (A) (A) (A) (A) (A) (A) (A) (A) (A) (A) (A) (A)
                 (A) (A) (A) (A) (A) (A) (A) (A) (A) (A) (A) (A)
                 (A) (A) (A) (A) (A) (A) (A) (A) (A) (A) (A) (A)
                 (A) (A) (A) (A) (A) (A) (A) (A) (A) (A) (A) (A)
                 (A) (A) (A) (A) (A) (A) (A) (A) (A) (A) (A) (A)
                 (A) (A) (A) (A) (A) (A) (A) (A) (A) (A) (A) (A)
                 (A) (A)
 Beta  Orbitals:
       Occupied  (A) (A) (A) (A) (A) (A) (A) (A) (A) (A) (A) (A)
                 (A) (A) (A) (A) (A) (A) (A) (A) (A) (A) (A) (A)
                 (A) (A) (A) (A) (A) (A) (A) (A) (A) (A) (A) (A)
       Virtual   (A) (A) (A) (A) (A) (A) (A) (A) (A) (A) (A) (A)
                 (A) (A) (A) (A) (A) (A) (A) (A) (A) (A) (A) (A)
                 (A) (A) (A) (A) (A) (A) (A) (A) (A) (A) (A) (A)
                 (A) (A) (A) (A) (A) (A) (A) (A) (A) (A) (A) (A)
                 (A) (A) (A) (A) (A) (A) (A) (A) (A) (A) (A) (A)
                 (A) (A) (A) (A) (A) (A) (A) (A) (A) (A) (A) (A)
                 (A) (A) (A) (A) (A) (A) (A) (A) (A) (A) (A) (A)
                 (A) (A) (A) (A) (A) (A) (A) (A) (A) (A) (A) (A)
                 (A) (A) (A) (A) (A) (A) (A) (A) (A) (A) (A) (A)
                 (A) (A) (A) (A) (A) (A) (A) (A) (A) (A) (A) (A)
                 (A) (A) (A) (A) (A) (A) (A) (A) (A) (A) (A) (A)
                 (A) (A) (A) (A) (A) (A) (A) (A) (A) (A) (A) (A)
                 (A) (A) (A) (A) (A) (A) (A) (A) (A) (A) (A) (A)
                 (A) (A) (A) (A) (A) (A) (A) (A) (A) (A) (A) (A)
                 (A) (A) (A) (A) (A) (A) (A) (A) (A) (A) (A) (A)
                 (A) (A) (A) (A) (A) (A) (A) (A) (A) (A) (A) (A)
                 (A) (A) (A) (A) (A) (A) (A) (A) (A) (A) (A) (A)
                 (A) (A) (A) (A) (A) (A) (A) (A) (A) (A) (A) (A)
                 (A) (A) (A) (A) (A) (A) (A) (A) (A) (A) (A) (A)
                 (A) (A) (A) (A) (A) (A) (A) (A) (A) (A) (A) (A)
                 (A) (A) (A) (A) (A) (A) (A) (A) (A) (A) (A) (A)
                 (A) (A) (A) (A) (A) (A) (A) (A) (A) (A) (A) (A)
                 (A) (A) (A) (A) (A) (A) (A) (A) (A) (A) (A) (A)
                 (A) (A) (A) (A) (A) (A) (A) (A) (A) (A) (A) (A)
                 (A) (A) (A) (A) (A) (A) (A) (A) (A) (A) (A) (A)
                 (A) (A) (A) (A) (A) (A) (A) (A) (A) (A) (A) (A)
                 (A) (A) (A) (A) (A) (A) (A) (A) (A) (A) (A) (A)
                 (A) (A) (A) (A) (A) (A) (A) (A) (A) (A) (A) (A)
                 (A) (A) (A) (A) (A) (A) (A) (A) (A) (A) (A) (A)
                 (A) (A) (A) (A) (A) (A) (A) (A) (A) (A) (A) (A)
                 (A) (A) (A) (A) (A) (A) (A) (A) (A) (A) (A) (A)
                 (A) (A) (A) (A)
 The electronic state is 3-A.
 Alpha  occ. eigenvalues --  -19.81666 -19.81370 -19.62382 -10.58825 -10.54798
 Alpha  occ. eigenvalues --  -10.54335 -10.54228 -10.54113 -10.54029 -10.53755
 Alpha  occ. eigenvalues --   -1.49214  -1.15292  -0.99248  -0.96566  -0.86560
 Alpha  occ. eigenvalues --   -0.84440  -0.77146  -0.72106  -0.70721  -0.69083
 Alpha  occ. eigenvalues --   -0.67926  -0.66923  -0.60025  -0.57819  -0.53438
 Alpha  occ. eigenvalues --   -0.52059  -0.50970  -0.49518  -0.48687  -0.44995
 Alpha  occ. eigenvalues --   -0.43493  -0.42571  -0.41646  -0.40687  -0.39057
 Alpha  occ. eigenvalues --   -0.35764  -0.30916  -0.30133
 Alpha virt. eigenvalues --    0.01103   0.01544   0.01597   0.02418   0.03170
 Alpha virt. eigenvalues --    0.04075   0.04725   0.05005   0.06474   0.07596
 Alpha virt. eigenvalues --    0.07677   0.07979   0.08883   0.10832   0.11050
 Alpha virt. eigenvalues --    0.12083   0.13192   0.13372   0.14070   0.14722
 Alpha virt. eigenvalues --    0.15012   0.16140   0.16754   0.17218   0.17578
 Alpha virt. eigenvalues --    0.18617   0.18989   0.19689   0.20262   0.20350
 Alpha virt. eigenvalues --    0.21327   0.21672   0.22458   0.22847   0.23275
 Alpha virt. eigenvalues --    0.23678   0.24050   0.24439   0.25230   0.25621
 Alpha virt. eigenvalues --    0.26090   0.27147   0.27368   0.28826   0.29747
 Alpha virt. eigenvalues --    0.30324   0.31001   0.32662   0.33875   0.34099
 Alpha virt. eigenvalues --    0.35207   0.35706   0.36171   0.37479   0.38626
 Alpha virt. eigenvalues --    0.39350   0.41385   0.44024   0.46551   0.48151
 Alpha virt. eigenvalues --    0.49699   0.52999   0.54777   0.54975   0.55443
 Alpha virt. eigenvalues --    0.56075   0.56459   0.56622   0.57946   0.58627
 Alpha virt. eigenvalues --    0.59787   0.61193   0.63656   0.64517   0.65091
 Alpha virt. eigenvalues --    0.65326   0.66067   0.67129   0.67280   0.67736
 Alpha virt. eigenvalues --    0.68698   0.69068   0.69365   0.70296   0.70748
 Alpha virt. eigenvalues --    0.72291   0.73249   0.73672   0.75182   0.76502
 Alpha virt. eigenvalues --    0.78056   0.79635   0.79964   0.80627   0.81564
 Alpha virt. eigenvalues --    0.84031   0.85336   0.86565   0.88418   0.90691
 Alpha virt. eigenvalues --    0.92614   0.95025   0.97370   0.98240   0.99875
 Alpha virt. eigenvalues --    1.00379   1.00763   1.02292   1.03329   1.04955
 Alpha virt. eigenvalues --    1.05532   1.06636   1.07078   1.07624   1.08676
 Alpha virt. eigenvalues --    1.10593   1.12132   1.12734   1.15302   1.16572
 Alpha virt. eigenvalues --    1.17800   1.19305   1.20333   1.20721   1.22705
 Alpha virt. eigenvalues --    1.23458   1.24187   1.25698   1.27448   1.28280
 Alpha virt. eigenvalues --    1.30338   1.32447   1.32863   1.33532   1.34842
 Alpha virt. eigenvalues --    1.35223   1.36897   1.37820   1.39006   1.39702
 Alpha virt. eigenvalues --    1.40066   1.41510   1.42480   1.44076   1.45890
 Alpha virt. eigenvalues --    1.46565   1.47889   1.49219   1.49465   1.50775
 Alpha virt. eigenvalues --    1.51987   1.53126   1.54455   1.56260   1.59875
 Alpha virt. eigenvalues --    1.62939   1.66251   1.68088   1.69035   1.71496
 Alpha virt. eigenvalues --    1.72977   1.74602   1.74935   1.75511   1.79719
 Alpha virt. eigenvalues --    1.81718   1.86372   1.94547   1.99750   2.01753
 Alpha virt. eigenvalues --    2.02334   2.02938   2.06509   2.10853   2.18873
 Alpha virt. eigenvalues --    2.27197   2.27530   2.32525   2.33389   2.36416
 Alpha virt. eigenvalues --    2.43201   2.52332   2.53942   2.55486   2.56902
 Alpha virt. eigenvalues --    2.57329   2.61295   2.65179   2.65988   2.70002
 Alpha virt. eigenvalues --    2.74432   2.74930   2.76525   2.77816   2.78811
 Alpha virt. eigenvalues --    2.80256   2.80709   2.81715   2.82798   2.84772
 Alpha virt. eigenvalues --    2.84997   2.86169   2.86933   2.87361   2.88710
 Alpha virt. eigenvalues --    2.90378   2.90507   2.92620   2.96808   2.97523
 Alpha virt. eigenvalues --    2.99464   3.00159   3.03701   3.09540   3.10727
 Alpha virt. eigenvalues --    3.11306   3.13248   3.16006   3.17266   3.18687
 Alpha virt. eigenvalues --    3.20364   3.20961   3.22330   3.22435   3.25447
 Alpha virt. eigenvalues --    3.26644   3.27373   3.29658   3.32156   3.33917
 Alpha virt. eigenvalues --    3.35101   3.36176   3.38616   3.39668   3.40273
 Alpha virt. eigenvalues --    3.41108   3.42074   3.45067   3.46656   3.47093
 Alpha virt. eigenvalues --    3.49365   3.51183   3.51684   3.54592   3.55573
 Alpha virt. eigenvalues --    3.59004   3.60838   3.62422   3.66145   3.67387
 Alpha virt. eigenvalues --    3.70330   3.72416   3.72851   3.74687   3.75724
 Alpha virt. eigenvalues --    3.77703   3.78393   3.79263   3.81163   3.83125
 Alpha virt. eigenvalues --    3.85605   3.87501   3.90145   3.90782   3.93211
 Alpha virt. eigenvalues --    3.94605   4.00448   4.02907   4.04814   4.05818
 Alpha virt. eigenvalues --    4.08304   4.09177   4.10645   4.12591   4.15185
 Alpha virt. eigenvalues --    4.17001   4.20215   4.23564   4.26053   4.30235
 Alpha virt. eigenvalues --    4.31612   4.32853   4.33064   4.34849   4.36099
 Alpha virt. eigenvalues --    4.38757   4.42361   4.44199   4.45229   4.46430
 Alpha virt. eigenvalues --    4.47100   4.47283   4.48321   4.50800   4.52635
 Alpha virt. eigenvalues --    4.53131   4.53918   4.55054   4.56033   4.62770
 Alpha virt. eigenvalues --    4.64139   4.67503   4.70717   4.72937   4.79151
 Alpha virt. eigenvalues --    4.80548   4.83854   4.85094   4.87374   4.92411
 Alpha virt. eigenvalues --    4.95955   4.98588   5.01577   5.04543   5.05552
 Alpha virt. eigenvalues --    5.06024   5.06829   5.07766   5.08128   5.11030
 Alpha virt. eigenvalues --    5.14509   5.15914   5.22744   5.24540   5.25807
 Alpha virt. eigenvalues --    5.27903   5.29544   5.36391   5.42065   5.43402
 Alpha virt. eigenvalues --    5.50766   5.58743   5.63318   5.66270   5.67346
 Alpha virt. eigenvalues --    5.67879   5.71119   5.75253   5.77674   5.78529
 Alpha virt. eigenvalues --    5.93260   5.96451   6.16041   6.47574   6.55193
 Alpha virt. eigenvalues --    6.59839   6.66169   6.70672   6.71516   6.75167
 Alpha virt. eigenvalues --    6.79067   6.82168   6.87116   6.96042   7.02745
 Alpha virt. eigenvalues --    7.18193   7.22745   7.25344   7.27992   7.31780
 Alpha virt. eigenvalues --    7.55778   7.67716   7.97157   8.05393  23.91029
 Alpha virt. eigenvalues --   24.48592  24.49973  24.51369  24.74255  24.76606
 Alpha virt. eigenvalues --   25.18463  49.97342  50.10149  50.16438
  Beta  occ. eigenvalues --  -19.79166 -19.78986 -19.62329 -10.58820 -10.54798
  Beta  occ. eigenvalues --  -10.54334 -10.54229 -10.54113 -10.54028 -10.53754
  Beta  occ. eigenvalues --   -1.42154  -1.15097  -0.96564  -0.88744  -0.86496
  Beta  occ. eigenvalues --   -0.84437  -0.77024  -0.69235  -0.67064  -0.63836
  Beta  occ. eigenvalues --   -0.60836  -0.59585  -0.57488  -0.55061  -0.53368
  Beta  occ. eigenvalues --   -0.51488  -0.50854  -0.49421  -0.48636  -0.44270
  Beta  occ. eigenvalues --   -0.42150  -0.41088  -0.39530  -0.35703  -0.30909
  Beta  occ. eigenvalues --   -0.30185
  Beta virt. eigenvalues --   -0.08577  -0.08251   0.01145   0.01562   0.01625
  Beta virt. eigenvalues --    0.02454   0.03193   0.04154   0.04774   0.05028
  Beta virt. eigenvalues --    0.06567   0.07622   0.07768   0.08010   0.08983
  Beta virt. eigenvalues --    0.10918   0.11169   0.12207   0.13282   0.13463
  Beta virt. eigenvalues --    0.14112   0.14726   0.15082   0.16257   0.16773
  Beta virt. eigenvalues --    0.17350   0.17677   0.18679   0.19035   0.19757
  Beta virt. eigenvalues --    0.20412   0.20468   0.21472   0.21749   0.22508
  Beta virt. eigenvalues --    0.22828   0.23351   0.23841   0.24053   0.24567
  Beta virt. eigenvalues --    0.25319   0.25745   0.26210   0.27253   0.27458
  Beta virt. eigenvalues --    0.29418   0.29799   0.30679   0.31258   0.32638
  Beta virt. eigenvalues --    0.33919   0.34408   0.35251   0.35927   0.37412
  Beta virt. eigenvalues --    0.38127   0.38843   0.39342   0.41214   0.44014
  Beta virt. eigenvalues --    0.46553   0.48169   0.49790   0.53177   0.54831
  Beta virt. eigenvalues --    0.54987   0.55424   0.56073   0.56484   0.56666
  Beta virt. eigenvalues --    0.57957   0.58847   0.59787   0.61180   0.63693
  Beta virt. eigenvalues --    0.64583   0.65087   0.65324   0.66101   0.67135
  Beta virt. eigenvalues --    0.67293   0.67755   0.68758   0.69085   0.69382
  Beta virt. eigenvalues --    0.70306   0.70795   0.72298   0.73248   0.73703
  Beta virt. eigenvalues --    0.75184   0.76561   0.78193   0.79650   0.80011
  Beta virt. eigenvalues --    0.80755   0.81605   0.84128   0.85336   0.86732
  Beta virt. eigenvalues --    0.88550   0.90776   0.92690   0.95271   0.97918
  Beta virt. eigenvalues --    0.98677   1.00575   1.00834   1.01086   1.02557
  Beta virt. eigenvalues --    1.04340   1.05718   1.06342   1.07111   1.07974
  Beta virt. eigenvalues --    1.09403   1.10066   1.11407   1.12677   1.13737
  Beta virt. eigenvalues --    1.15901   1.17103   1.18312   1.19509   1.20515
  Beta virt. eigenvalues --    1.20910   1.23067   1.23651   1.25049   1.26236
  Beta virt. eigenvalues --    1.28085   1.28894   1.31031   1.32611   1.33630
  Beta virt. eigenvalues --    1.34288   1.35063   1.35343   1.37625   1.38614
  Beta virt. eigenvalues --    1.39121   1.40297   1.40660   1.41760   1.42971
  Beta virt. eigenvalues --    1.44508   1.46374   1.47438   1.47984   1.49307
  Beta virt. eigenvalues --    1.49663   1.51526   1.52460   1.53946   1.55456
  Beta virt. eigenvalues --    1.57233   1.60060   1.63350   1.66567   1.68475
  Beta virt. eigenvalues --    1.70527   1.72227   1.73051   1.74959   1.75220
  Beta virt. eigenvalues --    1.75732   1.80341   1.83304   1.86616   1.95189
  Beta virt. eigenvalues --    1.99902   2.01846   2.02441   2.02976   2.06751
  Beta virt. eigenvalues --    2.10963   2.19043   2.28684   2.29239   2.33011
  Beta virt. eigenvalues --    2.34774   2.36861   2.43524   2.52472   2.54029
  Beta virt. eigenvalues --    2.55577   2.56922   2.57345   2.61314   2.65188
  Beta virt. eigenvalues --    2.66001   2.70012   2.74441   2.74939   2.76531
  Beta virt. eigenvalues --    2.77821   2.78819   2.80269   2.80718   2.81732
  Beta virt. eigenvalues --    2.82799   2.84779   2.85008   2.86170   2.86941
  Beta virt. eigenvalues --    2.87367   2.88721   2.90385   2.90519   2.92628
  Beta virt. eigenvalues --    2.96813   2.97532   2.99470   3.00173   3.03713
  Beta virt. eigenvalues --    3.09549   3.10744   3.11317   3.13259   3.16009
  Beta virt. eigenvalues --    3.17282   3.18703   3.20382   3.20970   3.22339
  Beta virt. eigenvalues --    3.22441   3.25452   3.26710   3.27380   3.29667
  Beta virt. eigenvalues --    3.32180   3.33936   3.35117   3.36184   3.38624
  Beta virt. eigenvalues --    3.39687   3.40284   3.41131   3.42089   3.45087
  Beta virt. eigenvalues --    3.46674   3.47104   3.49389   3.51188   3.51696
  Beta virt. eigenvalues --    3.54608   3.55606   3.59016   3.60863   3.62438
  Beta virt. eigenvalues --    3.66158   3.67415   3.70349   3.72434   3.72876
  Beta virt. eigenvalues --    3.74705   3.75768   3.77726   3.78408   3.79353
  Beta virt. eigenvalues --    3.81212   3.83149   3.85615   3.87517   3.90150
  Beta virt. eigenvalues --    3.90805   3.93236   3.94630   4.00460   4.02946
  Beta virt. eigenvalues --    4.04857   4.05854   4.08335   4.09186   4.10723
  Beta virt. eigenvalues --    4.12617   4.15192   4.17059   4.20271   4.23628
  Beta virt. eigenvalues --    4.26108   4.30282   4.31796   4.32891   4.33136
  Beta virt. eigenvalues --    4.34871   4.36216   4.38770   4.42397   4.44328
  Beta virt. eigenvalues --    4.45273   4.46515   4.47576   4.49095   4.50101
  Beta virt. eigenvalues --    4.52495   4.52862   4.53802   4.54649   4.55588
  Beta virt. eigenvalues --    4.57016   4.62794   4.64161   4.67534   4.70738
  Beta virt. eigenvalues --    4.72973   4.79340   4.82216   4.85656   4.86588
  Beta virt. eigenvalues --    4.89334   4.95850   4.97639   5.01358   5.03355
  Beta virt. eigenvalues --    5.05583   5.06753   5.07065   5.08152   5.09080
  Beta virt. eigenvalues --    5.10754   5.13322   5.14828   5.18466   5.22835
  Beta virt. eigenvalues --    5.25436   5.26455   5.28756   5.29658   5.36483
  Beta virt. eigenvalues --    5.42083   5.43441   5.50907   5.58814   5.63595
  Beta virt. eigenvalues --    5.67399   5.68045   5.69098   5.71152   5.75270
  Beta virt. eigenvalues --    5.77697   5.78543   5.93274   5.96592   6.16049
  Beta virt. eigenvalues --    6.47591   6.56546   6.70772   6.75609   6.75804
  Beta virt. eigenvalues --    6.77049   6.80658   6.87497   6.89938   6.91532
  Beta virt. eigenvalues --    7.01904   7.03628   7.18174   7.23406   7.26035
  Beta virt. eigenvalues --    7.29027   7.32819   7.56170   7.67949   7.99689
  Beta virt. eigenvalues --    8.06087  23.91029  24.48593  24.49973  24.51368
  Beta virt. eigenvalues --   24.74256  24.76609  25.18466  49.95997  50.08960
  Beta virt. eigenvalues --   50.16192
          Condensed to atoms (all electrons):
              1          2          3          4          5          6
     1  C    6.918127  -1.401368   0.080646   0.442549  -0.290208   0.031893
     2  C   -1.401368   8.320607  -1.237880  -1.379119   0.884237  -0.859235
     3  C    0.080646  -1.237880   7.875262   0.505806  -0.921344   0.736349
     4  C    0.442549  -1.379119   0.505806   7.916174  -0.772047   0.509513
     5  C   -0.290208   0.884237  -0.921344  -0.772047   6.209317  -0.071810
     6  C    0.031893  -0.859235   0.736349   0.509513  -0.071810   5.583222
     7  C   -0.390435   0.902085  -0.852148  -1.195498   0.753316  -0.026858
     8  O    0.188915  -0.059013  -0.033266  -0.041140   0.009291  -0.006843
     9  H    0.339786  -0.000639   0.030676  -0.060945   0.045022  -0.005837
    10  H    0.450657   0.020867  -0.071812  -0.010524   0.006804  -0.004883
    11  H   -0.004374   0.069249   0.262705  -0.002866   0.054288  -0.013560
    12  H    0.006520  -0.003342   0.045982  -0.000744   0.299626   0.046614
    13  H    0.003444   0.011396  -0.006625  -0.011825   0.024076   0.338803
    14  H    0.005090   0.004746  -0.010301   0.011044  -0.004016   0.033989
    15  H    0.026734   0.027594   0.026191   0.346942  -0.013525  -0.003923
    16  O   -0.009229  -0.005045  -0.000348   0.016799  -0.002415   0.003451
    17  O    0.018449  -0.019971   0.055443  -0.032707   0.002260   0.001101
    18  H   -0.031114   0.044374  -0.038840   0.020737  -0.001579  -0.001156
              7          8          9         10         11         12
     1  C   -0.390435   0.188915   0.339786   0.450657  -0.004374   0.006520
     2  C    0.902085  -0.059013  -0.000639   0.020867   0.069249  -0.003342
     3  C   -0.852148  -0.033266   0.030676  -0.071812   0.262705   0.045982
     4  C   -1.195498  -0.041140  -0.060945  -0.010524  -0.002866  -0.000744
     5  C    0.753316   0.009291   0.045022   0.006804   0.054288   0.299626
     6  C   -0.026858  -0.006843  -0.005837  -0.004883  -0.013560   0.046614
     7  C    6.553545   0.100507   0.022518  -0.003612   0.002397  -0.014884
     8  O    0.100507   7.978719  -0.040525  -0.052469   0.000395   0.000030
     9  H    0.022518  -0.040525   0.556349  -0.028927   0.002505  -0.000046
    10  H   -0.003612  -0.052469  -0.028927   0.513951   0.000491   0.000018
    11  H    0.002397   0.000395   0.002505   0.000491   0.484877  -0.006844
    12  H   -0.014884   0.000030  -0.000046   0.000018  -0.006844   0.489353
    13  H    0.020677  -0.000007  -0.000003  -0.000004  -0.000081  -0.006900
    14  H    0.337439   0.000161   0.000010   0.000027   0.000052  -0.000076
    15  H   -0.033336  -0.003249  -0.000174  -0.001145  -0.000134   0.000039
    16  O    0.005099  -0.016405  -0.006126   0.001042  -0.000359  -0.000011
    17  O   -0.001067   0.004598  -0.007865  -0.000145  -0.000338   0.000008
    18  H   -0.004814   0.289938  -0.009645   0.005766  -0.000008   0.000001
             13         14         15         16         17         18
     1  C    0.003444   0.005090   0.026734  -0.009229   0.018449  -0.031114
     2  C    0.011396   0.004746   0.027594  -0.005045  -0.019971   0.044374
     3  C   -0.006625  -0.010301   0.026191  -0.000348   0.055443  -0.038840
     4  C   -0.011825   0.011044   0.346942   0.016799  -0.032707   0.020737
     5  C    0.024076  -0.004016  -0.013525  -0.002415   0.002260  -0.001579
     6  C    0.338803   0.033989  -0.003923   0.003451   0.001101  -0.001156
     7  C    0.020677   0.337439  -0.033336   0.005099  -0.001067  -0.004814
     8  O   -0.000007   0.000161  -0.003249  -0.016405   0.004598   0.289938
     9  H   -0.000003   0.000010  -0.000174  -0.006126  -0.007865  -0.009645
    10  H   -0.000004   0.000027  -0.001145   0.001042  -0.000145   0.005766
    11  H   -0.000081   0.000052  -0.000134  -0.000359  -0.000338  -0.000008
    12  H   -0.006900  -0.000076   0.000039  -0.000011   0.000008   0.000001
    13  H    0.486647  -0.007053  -0.000051   0.000001  -0.000001  -0.000001
    14  H   -0.007053   0.491336  -0.006905  -0.000003   0.000001   0.000018
    15  H   -0.000051  -0.006905   0.453664  -0.000387   0.000110  -0.001745
    16  O    0.000001  -0.000003  -0.000387   7.608583   0.333222   0.004010
    17  O   -0.000001   0.000001   0.000110   0.333222   7.652133   0.000394
    18  H   -0.000001   0.000018  -0.001745   0.004010   0.000394   0.484475
 Mulliken atomic charges:
              1
     1  C   -0.386082
     2  C    0.680456
     3  C   -0.446495
     4  C   -0.262148
     5  C   -0.211294
     6  C   -0.290828
     7  C   -0.174931
     8  O   -0.319636
     9  H    0.163867
    10  H    0.173899
    11  H    0.151606
    12  H    0.144656
    13  H    0.147508
    14  H    0.144443
    15  H    0.183299
    16  O    0.068119
    17  O   -0.005626
    18  H    0.239188
 Sum of Mulliken atomic charges =   0.00000
 Mulliken charges with hydrogens summed into heavy atoms:
              1
     1  C   -0.048317
     2  C    0.680456
     3  C   -0.294889
     4  C   -0.078849
     5  C   -0.066638
     6  C   -0.143321
     7  C   -0.030488
     8  O   -0.080448
    16  O    0.068119
    17  O   -0.005626
 Sum of Mulliken charges with hydrogens summed into heavy atoms =   0.00000
          Atomic-Atomic Spin Densities.
              1          2          3          4          5          6
     1  C    0.092475  -0.089804   0.036005   0.003670   0.011313  -0.002276
     2  C   -0.089804  -0.000083   0.049861   0.001651  -0.039647   0.025898
     3  C    0.036005   0.049861   0.046606  -0.036218  -0.045035  -0.027670
     4  C    0.003670   0.001651  -0.036218   0.079199   0.002424  -0.015537
     5  C    0.011313  -0.039647  -0.045035   0.002424   0.059132   0.013590
     6  C   -0.002276   0.025898  -0.027670  -0.015537   0.013590   0.001578
     7  C   -0.028808   0.029483  -0.007340  -0.032711  -0.004065   0.008281
     8  O   -0.017924   0.014264  -0.006280   0.003146  -0.000312  -0.000032
     9  H    0.006543  -0.004011  -0.004443   0.002925   0.001787  -0.000143
    10  H   -0.003556   0.003128   0.001391  -0.001250  -0.000593   0.000117
    11  H    0.001623  -0.002803   0.006237   0.000754  -0.004827   0.000431
    12  H    0.000060   0.000196  -0.001152  -0.000133   0.001158  -0.000268
    13  H    0.000002   0.000026   0.000009   0.000264  -0.000130  -0.000393
    14  H    0.000040  -0.000320  -0.000316  -0.000451   0.000274   0.000417
    15  H    0.000896   0.000345   0.001003   0.000084  -0.000113  -0.000554
    16  O    0.007507   0.012501  -0.024700   0.010969   0.000174  -0.000439
    17  O    0.004444  -0.008113   0.007285  -0.005457   0.002007  -0.000138
    18  H   -0.001024  -0.006254   0.004884  -0.001484   0.000180   0.000161
              7          8          9         10         11         12
     1  C   -0.028808  -0.017924   0.006543  -0.003556   0.001623   0.000060
     2  C    0.029483   0.014264  -0.004011   0.003128  -0.002803   0.000196
     3  C   -0.007340  -0.006280  -0.004443   0.001391   0.006237  -0.001152
     4  C   -0.032711   0.003146   0.002925  -0.001250   0.000754  -0.000133
     5  C   -0.004065  -0.000312   0.001787  -0.000593  -0.004827   0.001158
     6  C    0.008281  -0.000032  -0.000143   0.000117   0.000431  -0.000268
     7  C    0.032621   0.001875  -0.000239   0.000351  -0.001034   0.000144
     8  O    0.001875   0.024711  -0.000666   0.000456  -0.000087   0.000001
     9  H   -0.000239  -0.000666  -0.006593   0.000185  -0.000220   0.000001
    10  H    0.000351   0.000456   0.000185   0.000777  -0.000021   0.000000
    11  H   -0.001034  -0.000087  -0.000220  -0.000021  -0.000885   0.000047
    12  H    0.000144   0.000001   0.000001   0.000000   0.000047   0.000013
    13  H    0.000207  -0.000001   0.000000   0.000000   0.000000   0.000006
    14  H    0.000345   0.000006   0.000000   0.000000   0.000000  -0.000001
    15  H   -0.001581  -0.000381  -0.000023   0.000004   0.000002   0.000000
    16  O    0.001924  -0.011833   0.008359  -0.000980  -0.000020  -0.000006
    17  O   -0.001063   0.004077  -0.009518   0.000735   0.000107   0.000001
    18  H    0.000959   0.009554   0.000661  -0.000092   0.000013   0.000000
             13         14         15         16         17         18
     1  C    0.000002   0.000040   0.000896   0.007507   0.004444  -0.001024
     2  C    0.000026  -0.000320   0.000345   0.012501  -0.008113  -0.006254
     3  C    0.000009  -0.000316   0.001003  -0.024700   0.007285   0.004884
     4  C    0.000264  -0.000451   0.000084   0.010969  -0.005457  -0.001484
     5  C   -0.000130   0.000274  -0.000113   0.000174   0.002007   0.000180
     6  C   -0.000393   0.000417  -0.000554  -0.000439  -0.000138   0.000161
     7  C    0.000207   0.000345  -0.001581   0.001924  -0.001063   0.000959
     8  O   -0.000001   0.000006  -0.000381  -0.011833   0.004077   0.009554
     9  H    0.000000   0.000000  -0.000023   0.008359  -0.009518   0.000661
    10  H    0.000000   0.000000   0.000004  -0.000980   0.000735  -0.000092
    11  H    0.000000   0.000000   0.000002  -0.000020   0.000107   0.000013
    12  H    0.000006  -0.000001   0.000000  -0.000006   0.000001   0.000000
    13  H   -0.000149  -0.000002   0.000001   0.000000   0.000000   0.000000
    14  H   -0.000002   0.000116  -0.000020   0.000003  -0.000001  -0.000002
    15  H    0.000001  -0.000020   0.000011  -0.000118   0.000033   0.000087
    16  O    0.000000   0.000003  -0.000118   1.376841  -0.429189   0.001069
    17  O    0.000000  -0.000001   0.000033  -0.429189   1.449129   0.003706
    18  H    0.000000  -0.000002   0.000087   0.001069   0.003706  -0.016514
 Mulliken atomic spin densities:
              1
     1  C    0.021184
     2  C   -0.013682
     3  C    0.000127
     4  C    0.011846
     5  C   -0.002683
     6  C    0.003023
     7  C   -0.000649
     8  O    0.020577
     9  H   -0.005396
    10  H    0.000652
    11  H   -0.000682
    12  H    0.000068
    13  H   -0.000159
    14  H    0.000089
    15  H   -0.000325
    16  O    0.952060
    17  O    1.018046
    18  H   -0.004096
 Sum of Mulliken atomic spin densities =   2.00000
 APT atomic charges:
              1
     1  C   -1.032960
     2  C   -0.028406
     3  C   -0.583123
     4  C   -0.262543
     5  C   -0.623490
     6  C   -0.730609
     7  C   -0.614916
     8  O   -0.583143
     9  H    0.384252
    10  H    0.500971
    11  H    0.407458
    12  H    0.683054
    13  H    0.837851
    14  H    0.689524
    15  H    0.445261
    16  O   -0.131783
    17  O    0.185976
    18  H    0.456626
 Sum of APT charges=   0.00000
 APT Atomic charges with hydrogens summed into heavy atoms:
              1
     1  C   -0.147737
     2  C   -0.028406
     3  C   -0.175665
     4  C    0.182718
     5  C    0.059564
     6  C    0.107242
     7  C    0.074608
     8  O   -0.126517
     9  H    0.000000
    10  H    0.000000
    11  H    0.000000
    12  H    0.000000
    13  H    0.000000
    14  H    0.000000
    15  H    0.000000
    16  O   -0.131783
    17  O    0.185976
    18  H    0.000000
 Sum of APT charges=   0.00000
 Electronic spatial extent (au):  <R**2>=           1684.4982
 Charge=              0.0000 electrons
 Dipole moment (field-independent basis, Debye):
    X=             -0.3358    Y=             -1.7110    Z=             -0.5671  Tot=              1.8336
 Quadrupole moment (field-independent basis, Debye-Ang):
   XX=            -54.5507   YY=            -58.9095   ZZ=            -58.3857
   XY=              2.6500   XZ=             -0.6007   YZ=             -2.6510
 Traceless Quadrupole moment (field-independent basis, Debye-Ang):
   XX=              2.7313   YY=             -1.6276   ZZ=             -1.1037
   XY=              2.6500   XZ=             -0.6007   YZ=             -2.6510
 Octapole moment (field-independent basis, Debye-Ang**2):
  XXX=            -31.4612  YYY=            -12.8523  ZZZ=             -3.7638  XYY=             -1.3288
  XXY=            -10.6471  XXZ=            -17.8434  XZZ=            -18.4783  YZZ=              2.6963
  YYZ=             -4.1894  XYZ=             -0.8186
 Hexadecapole moment (field-independent basis, Debye-Ang**3):
 XXXX=          -1414.5378 YYYY=           -435.4528 ZZZZ=           -220.1689 XXXY=             10.7203
 XXXZ=             -1.6246 YYYX=             21.6551 YYYZ=             -8.5907 ZZZX=             11.5792
 ZZZY=              8.4848 XXYY=           -320.6099 XXZZ=           -286.7464 YYZZ=           -106.0655
 XXYZ=            -11.8425 YYXZ=              6.1385 ZZXY=              8.9340
 N-N= 4.979074125482D+02 E-N=-3.216290931736D+03  KE= 7.396153011895D+02
  Exact polarizability:   0.000   0.000   0.000   0.000   0.000   0.000
 Approx polarizability: 129.110  -2.668 129.162 -18.155 -16.110  99.850
                          Isotropic Fermi Contact Couplings
        Atom                 a.u.       MegaHertz       Gauss      10(-4) cm-1
     1  C(13)             -0.00030      -0.17044      -0.06082      -0.05685
     2  C(13)              0.00041       0.22991       0.08204       0.07669
     3  C(13)              0.00038       0.21638       0.07721       0.07218
     4  C(13)              0.00030       0.17119       0.06108       0.05710
     5  C(13)             -0.00023      -0.12943      -0.04618      -0.04317
     6  C(13)              0.00027       0.15210       0.05427       0.05074
     7  C(13)             -0.00019      -0.10678      -0.03810      -0.03562
     8  O(17)             -0.00213       0.64536       0.23028       0.21527
     9  H(1)               0.00025       0.54784       0.19548       0.18274
    10  H(1)               0.00046       1.03201       0.36825       0.34424
    11  H(1)              -0.00004      -0.07851      -0.02802      -0.02619
    12  H(1)               0.00001       0.02637       0.00941       0.00880
    13  H(1)              -0.00003      -0.06948      -0.02479      -0.02318
    14  H(1)               0.00002       0.04710       0.01681       0.01571
    15  H(1)              -0.00004      -0.08473      -0.03023      -0.02826
    16  O(17)              0.17549     -53.19141     -18.98002     -17.74274
    17  O(17)              0.18457     -55.94281     -19.96178     -18.66051
    18  H(1)              -0.00361      -8.06865      -2.87909      -2.69141
 --------------------------------------------------------
       Center         ----  Spin Dipole Couplings  ----
                      3XX-RR        3YY-RR        3ZZ-RR
 --------------------------------------------------------
     1   Atom        0.001320      0.001407     -0.002727
     2   Atom        0.010117     -0.005010     -0.005106
     3   Atom        0.007076     -0.005765     -0.001311
     4   Atom        0.003704     -0.002592     -0.001112
     5   Atom        0.004418     -0.001794     -0.002624
     6   Atom        0.002453     -0.002242     -0.000211
     7   Atom        0.003478     -0.001131     -0.002347
     8   Atom       -0.057536      0.048272      0.009265
     9   Atom        0.000721     -0.016289      0.015568
    10   Atom       -0.001946     -0.001963      0.003910
    11   Atom        0.006218     -0.004337     -0.001881
    12   Atom        0.002716     -0.001256     -0.001460
    13   Atom        0.002070     -0.001091     -0.000978
    14   Atom        0.001951     -0.000695     -0.001257
    15   Atom        0.002473      0.000852     -0.003325
    16   Atom        0.559104      0.201200     -0.760304
    17   Atom        0.578524      0.247059     -0.825584
    18   Atom       -0.033616      0.055049     -0.021433
 --------------------------------------------------------
                        XY            XZ            YZ
 --------------------------------------------------------
     1   Atom        0.017606      0.013184      0.009477
     2   Atom        0.004835      0.005806      0.001463
     3   Atom       -0.000894      0.005763     -0.000489
     4   Atom        0.004307      0.001690      0.001082
     5   Atom       -0.000819      0.000787     -0.000463
     6   Atom        0.000693      0.001236      0.000981
     7   Atom        0.001358     -0.000363     -0.000380
     8   Atom        0.043577      0.035820      0.095160
     9   Atom        0.014388      0.028673      0.011350
    10   Atom        0.003759      0.005409      0.005436
    11   Atom       -0.003518      0.006455     -0.002327
    12   Atom       -0.001230      0.000772     -0.000269
    13   Atom        0.000032     -0.000047      0.000055
    14   Atom        0.001286     -0.000294     -0.000109
    15   Atom        0.004871      0.000395      0.000371
    16   Atom       -0.876612      1.177095      1.408043
    17   Atom       -0.884120      1.250732      1.484854
    18   Atom        0.031200      0.014246      0.035917
 --------------------------------------------------------


 ---------------------------------------------------------------------------------
              Anisotropic Spin Dipole Couplings in Principal Axis System
 ---------------------------------------------------------------------------------

       Atom             a.u.   MegaHertz   Gauss  10(-4) cm-1        Axes

              Baa    -0.0172    -2.307    -0.823    -0.769  0.7636 -0.5528 -0.3338
     1 C(13)  Bbb    -0.0103    -1.384    -0.494    -0.462 -0.0580 -0.5736  0.8171
              Bcc     0.0275     3.691     1.317     1.231  0.6431  0.6046  0.4700
 
              Baa    -0.0071    -0.953    -0.340    -0.318 -0.3642  0.2066  0.9081
     2 C(13)  Bbb    -0.0064    -0.853    -0.304    -0.285 -0.1761  0.9422 -0.2850
              Bcc     0.0135     1.806     0.644     0.602  0.9145  0.2637  0.3068
 
              Baa    -0.0058    -0.782    -0.279    -0.261  0.0486  0.9978  0.0458
     3 C(13)  Bbb    -0.0042    -0.570    -0.203    -0.190 -0.4548 -0.0187  0.8904
              Bcc     0.0101     1.352     0.482     0.451  0.8893 -0.0642  0.4528
 
              Baa    -0.0048    -0.643    -0.229    -0.214 -0.4418  0.8951 -0.0602
     4 C(13)  Bbb    -0.0016    -0.219    -0.078    -0.073 -0.2560 -0.0615  0.9647
              Bcc     0.0064     0.862     0.307     0.287  0.8598  0.4417  0.2563
 
              Baa    -0.0029    -0.383    -0.137    -0.128 -0.0602  0.3602  0.9309
     5 C(13)  Bbb    -0.0018    -0.237    -0.085    -0.079  0.1662  0.9232 -0.3465
              Bcc     0.0046     0.620     0.221     0.207  0.9842 -0.1339  0.1154
 
              Baa    -0.0026    -0.355    -0.127    -0.118 -0.0407  0.9337 -0.3557
     6 C(13)  Bbb    -0.0005    -0.065    -0.023    -0.022 -0.4297  0.3050  0.8499
              Bcc     0.0031     0.420     0.150     0.140  0.9021  0.1874  0.3888
 
              Baa    -0.0025    -0.329    -0.118    -0.110 -0.0056  0.2809  0.9597
     7 C(13)  Bbb    -0.0014    -0.191    -0.068    -0.064 -0.2755  0.9222 -0.2715
              Bcc     0.0039     0.521     0.186     0.174  0.9613  0.2660 -0.0722
 
              Baa    -0.0735     5.319     1.898     1.774  0.9615 -0.1861 -0.2021
     8 O(17)  Bbb    -0.0684     4.947     1.765     1.650  0.0374 -0.6401  0.7674
              Bcc     0.1419   -10.265    -3.663    -3.424  0.2722  0.7454  0.6085
 
              Baa    -0.0258   -13.766    -4.912    -4.592 -0.6727  0.6857  0.2781
     9 H(1)   Bbb    -0.0173    -9.238    -3.296    -3.081  0.4307  0.6684 -0.6063
              Bcc     0.0431    23.003     8.208     7.673  0.6017  0.2881  0.7450
 
              Baa    -0.0057    -3.049    -1.088    -1.017 -0.6950  0.7188 -0.0154
    10 H(1)   Bbb    -0.0049    -2.606    -0.930    -0.869 -0.5489 -0.5167  0.6571
              Bcc     0.0106     5.654     2.018     1.886  0.4644  0.4651  0.7537
 
              Baa    -0.0058    -3.092    -1.103    -1.031 -0.1645  0.7046  0.6903
    11 H(1)   Bbb    -0.0052    -2.748    -0.981    -0.917  0.5153  0.6581 -0.5489
              Bcc     0.0109     5.840     2.084     1.948  0.8410 -0.2654  0.4714
 
              Baa    -0.0017    -0.881    -0.314    -0.294  0.0843  0.7271  0.6814
    12 H(1)   Bbb    -0.0016    -0.831    -0.297    -0.277 -0.3100 -0.6307  0.7114
              Bcc     0.0032     1.712     0.611     0.571  0.9470 -0.2712  0.1722
 
              Baa    -0.0011    -0.595    -0.212    -0.198 -0.0150  0.9255 -0.3785
    13 H(1)   Bbb    -0.0010    -0.510    -0.182    -0.170  0.0104  0.3787  0.9255
              Bcc     0.0021     1.105     0.394     0.369  0.9998  0.0099 -0.0153
 
              Baa    -0.0013    -0.685    -0.245    -0.229  0.1296 -0.1002  0.9865
    14 H(1)   Bbb    -0.0012    -0.648    -0.231    -0.216 -0.3611  0.9218  0.1411
              Bcc     0.0025     1.333     0.476     0.445  0.9235  0.3745 -0.0832
 
              Baa    -0.0034    -1.794    -0.640    -0.599  0.1507 -0.2581  0.9543
    15 H(1)   Bbb    -0.0033    -1.743    -0.622    -0.581 -0.6301  0.7187  0.2939
              Bcc     0.0066     3.537     1.262     1.180  0.7617  0.6456  0.0543
 
              Baa    -2.4767   179.214    63.948    59.779 -0.4352 -0.5265  0.7304
    16 O(17)  Bbb     1.1990   -86.761   -30.959   -28.940  0.3084  0.6750  0.6703
              Bcc     1.2777   -92.453   -32.989   -30.839  0.8459 -0.5170  0.1314
 
              Baa    -2.6049   188.491    67.258    62.874 -0.4336 -0.5182  0.7372
    17 O(17)  Bbb     1.2887   -93.252   -33.275   -31.106  0.1484  0.7658  0.6257
              Bcc     1.3162   -95.239   -33.984   -31.768  0.8888 -0.3807  0.2551
 
              Baa    -0.0443   -23.638    -8.435    -7.885  0.9398 -0.1932 -0.2820
    18 H(1)   Bbb    -0.0353   -18.850    -6.726    -6.288  0.1817 -0.4167  0.8907
              Bcc     0.0796    42.489    15.161    14.173  0.2896  0.8883  0.3565
 

 ---------------------------------------------------------------------------------

 Calling FoFJK, ICntrl=    100147 FMM=F ISym2X=0 I1Cent= 0 IOpClX= 1 NMat=1 NMatS=1 NMatT=0.
 ***** Axes restored to original set *****
 -------------------------------------------------------------------
 Center     Atomic                   Forces (Hartrees/Bohr)
 Number     Number              X              Y              Z
 -------------------------------------------------------------------
      1        6           0.007807188    0.002780900    0.010615311
      2        6          -0.013938959   -0.005166738   -0.022008814
      3        6           0.005545433    0.004222176    0.013168600
      4        6           0.005821962    0.005269510    0.011987925
      5        6          -0.002889490   -0.001153480   -0.004895993
      6        6           0.001714054    0.001378348    0.001095212
      7        6          -0.005468405   -0.006247495   -0.011412767
      8        8          -0.002374315   -0.003177309   -0.002947692
      9        1           0.001938432    0.002699563    0.003230053
     10        1           0.000059205   -0.000326905   -0.001601878
     11        1           0.000219942   -0.000297661    0.000308736
     12        1           0.000773089    0.000502493    0.001839499
     13        1          -0.000114042   -0.000118662   -0.000130908
     14        1           0.002139563    0.001884355    0.004031875
     15        1           0.000450118    0.000976144    0.002026458
     16        8          -0.007266476   -0.015878678   -0.007350243
     17        8          -0.003029432   -0.002943495   -0.006038916
     18        1           0.008612133    0.015596935    0.008083543
 -------------------------------------------------------------------
 Cartesian Forces:  Max     0.022008814 RMS     0.006710641

 GradGradGradGradGradGradGradGradGradGradGradGradGradGradGradGradGradGrad
 Berny optimization.
 Internal  Forces:  Max     0.016740260 RMS     0.002703243
 Search for a saddle point.
 Step number   1 out of a maximum of   98
 All quantities printed in internal units (Hartrees-Bohrs-Radians)
 Swaping is turned off.
 Second derivative matrix not updated -- analytic derivatives used.
 ITU=  0
     Eigenvalues ---   -0.00016   0.00134   0.00164   0.00504   0.01454
     Eigenvalues ---    0.01645   0.01772   0.01813   0.02099   0.02179
     Eigenvalues ---    0.02441   0.02552   0.02751   0.02961   0.02991
     Eigenvalues ---    0.03454   0.04663   0.06301   0.07689   0.08524
     Eigenvalues ---    0.10588   0.11085   0.11552   0.12057   0.12491
     Eigenvalues ---    0.14264   0.17797   0.18401   0.18786   0.19321
     Eigenvalues ---    0.19804   0.27344   0.29352   0.31425   0.32753
     Eigenvalues ---    0.35302   0.35757   0.35864   0.36132   0.36171
     Eigenvalues ---    0.37505   0.42324   0.42472   0.47801   0.48232
     Eigenvalues ---    0.48336   0.52580   0.88320
 Eigenvectors required to have negative eigenvalues:
                          D10       D11       D12       D38       D7
   1                    0.39517   0.38714   0.38420  -0.30564  -0.24993
                          D9        D8        D5        D1        D3
   1                   -0.24402  -0.23941   0.21299   0.20922   0.20514
 RFO step:  Lambda0=1.565745077D-03 Lambda=-1.36340238D-02.
 Linear search not attempted -- option 19 set.
 Maximum step size (   0.300) exceeded in Quadratic search.
    -- Step size scaled by   0.708
 Iteration  1 RMS(Cart)=  0.12469433 RMS(Int)=  0.01290088
 Iteration  2 RMS(Cart)=  0.01579660 RMS(Int)=  0.00210238
 Iteration  3 RMS(Cart)=  0.00033671 RMS(Int)=  0.00207812
 Iteration  4 RMS(Cart)=  0.00000119 RMS(Int)=  0.00207812
 Iteration  5 RMS(Cart)=  0.00000000 RMS(Int)=  0.00207812
 Variable       Old X    -DE/DX   Delta X   Delta X   Delta X     New X
                                 (Linear)    (Quad)   (Total)
    R1        2.86953  -0.00423   0.00000  -0.00865  -0.00865   2.86088
    R2        2.66034  -0.00074   0.00000   0.00230   0.00162   2.66196
    R3        2.06559   0.00261   0.00000   0.00142  -0.00010   2.06549
    R4        2.06979  -0.00159   0.00000  -0.00315  -0.00315   2.06665
    R5        2.63055  -0.00076   0.00000   0.00011  -0.00009   2.63046
    R6        2.63154  -0.00042   0.00000  -0.00482  -0.00502   2.62652
    R7        2.62564  -0.00032   0.00000  -0.00377  -0.00378   2.62186
    R8        2.04830   0.00023   0.00000  -0.00007  -0.00007   2.04823
    R9        2.62154   0.00013   0.00000   0.00174   0.00175   2.62329
   R10        2.04392   0.00018   0.00000  -0.00068  -0.00068   2.04324
   R11        2.62095   0.00049   0.00000   0.00238   0.00258   2.62353
   R12        2.04423  -0.00003   0.00000   0.00034   0.00034   2.04457
   R13        2.62831  -0.00044   0.00000  -0.00495  -0.00474   2.62357
   R14        2.04411  -0.00004   0.00000  -0.00024  -0.00024   2.04387
   R15        2.04463  -0.00004   0.00000  -0.00021  -0.00021   2.04442
   R16        1.83055  -0.00283   0.00000  -0.01307  -0.01174   1.81881
   R17        4.03204   0.00902   0.00000   0.14638   0.14534   4.17738
   R18        2.24976  -0.00118   0.00000  -0.00209  -0.00173   2.24803
   R19        3.27427   0.01674   0.00000   0.22388   0.22561   3.49988
    A1        2.00209  -0.00335   0.00000  -0.01408  -0.01285   1.98924
    A2        1.89840   0.00056   0.00000   0.00364   0.00754   1.90594
    A3        1.89810   0.00170   0.00000   0.00777   0.00703   1.90513
    A4        1.95434  -0.00050   0.00000  -0.00667  -0.01264   1.94170
    A5        1.84868   0.00107   0.00000   0.00543   0.00703   1.85571
    A6        1.85532   0.00093   0.00000   0.00593   0.00562   1.86094
    A7        2.10107  -0.00061   0.00000  -0.00362  -0.00467   2.09640
    A8        2.09988   0.00030   0.00000   0.00924   0.00827   2.10814
    A9        2.06628   0.00101   0.00000   0.01076   0.00857   2.07485
   A10        2.10156  -0.00001   0.00000   0.00300   0.00223   2.10379
   A11        2.08451   0.00031   0.00000   0.00305   0.00319   2.08770
   A12        2.09461  -0.00017   0.00000  -0.00386  -0.00371   2.09090
   A13        2.09606  -0.00010   0.00000   0.00353   0.00284   2.09890
   A14        2.07912  -0.00030   0.00000  -0.00207  -0.00183   2.07729
   A15        2.10689   0.00048   0.00000  -0.00049  -0.00025   2.10664
   A16        2.09033   0.00028   0.00000   0.00350   0.00314   2.09346
   A17        2.09401  -0.00011   0.00000  -0.00109  -0.00111   2.09290
   A18        2.09589  -0.00007   0.00000  -0.00018  -0.00022   2.09567
   A19        2.09075  -0.00039   0.00000  -0.00262  -0.00269   2.08807
   A20        2.09622   0.00014   0.00000   0.00065   0.00058   2.09680
   A21        2.09532   0.00030   0.00000   0.00283   0.00276   2.09808
   A22        2.09347   0.00044   0.00000   0.00561   0.00458   2.09805
   A23        2.08763   0.00015   0.00000   0.00207   0.00130   2.08893
   A24        2.08978   0.00001   0.00000   0.00353   0.00277   2.09255
   A25        1.87355   0.00106   0.00000   0.02591   0.01868   1.89223
   A26        2.20402   0.00116   0.00000   0.09357   0.08347   2.28749
   A27        1.85894  -0.00208   0.00000  -0.01408  -0.01071   1.84823
   A28        1.56619   0.00118   0.00000  -0.04404  -0.04544   1.52075
   A29        2.52219   0.00137   0.00000   0.02170   0.01825   2.54043
    D1       -2.51658  -0.00118   0.00000  -0.19788  -0.19578  -2.71236
    D2        0.43097   0.00312   0.00000  -0.09817  -0.09630   0.33468
    D3       -0.31292  -0.00393   0.00000  -0.21450  -0.21613  -0.52905
    D4        2.63463   0.00037   0.00000  -0.11478  -0.11664   2.51799
    D5        1.70068  -0.00161   0.00000  -0.20134  -0.20146   1.49923
    D6       -1.63495   0.00269   0.00000  -0.10162  -0.10197  -1.73692
    D7        1.46964  -0.00101   0.00000   0.13838   0.13624   1.60588
    D8       -0.70481   0.00134   0.00000   0.15036   0.14652  -0.55829
    D9       -2.71997  -0.00013   0.00000   0.14351   0.14222  -2.57776
   D10       -1.75699   0.00371   0.00000  -0.23936  -0.24109  -1.99809
   D11        0.47398  -0.00062   0.00000  -0.25994  -0.26137   0.21261
   D12        2.48508   0.00094   0.00000  -0.25342  -0.25624   2.22884
   D13       -3.09430  -0.00085   0.00000  -0.00063  -0.00093  -3.09523
   D14       -0.02866   0.00107   0.00000   0.03234   0.03217   0.00351
   D15        0.23765  -0.00499   0.00000  -0.09833  -0.09854   0.13912
   D16       -2.97989  -0.00308   0.00000  -0.06536  -0.06544  -3.04533
   D17        3.07124   0.00175   0.00000   0.01567   0.01518   3.08642
   D18       -0.02005   0.00012   0.00000  -0.00626  -0.00667  -0.02672
   D19       -0.26058   0.00579   0.00000   0.11185   0.11200  -0.14857
   D20        2.93131   0.00416   0.00000   0.08992   0.09016   3.02147
   D21       -0.09145   0.00196   0.00000   0.03694   0.03678  -0.05467
   D22        3.13262   0.00045   0.00000   0.00596   0.00590   3.13851
   D23        3.12653   0.00001   0.00000   0.00348   0.00332   3.12985
   D24        0.06741  -0.00150   0.00000  -0.02750  -0.02756   0.03985
   D25        0.13809  -0.00354   0.00000  -0.06377  -0.06382   0.07427
   D26        3.11137   0.00049   0.00000   0.01268   0.01269   3.12406
   D27       -3.05462  -0.00190   0.00000  -0.04153  -0.04165  -3.09626
   D28       -0.08133   0.00213   0.00000   0.03492   0.03486  -0.04647
   D29       -0.03523   0.00050   0.00000   0.01349   0.01349  -0.02174
   D30       -3.13137  -0.00092   0.00000  -0.00843  -0.00839  -3.13976
   D31        3.02380   0.00201   0.00000   0.04447   0.04438   3.06818
   D32       -0.07234   0.00059   0.00000   0.02254   0.02250  -0.04984
   D33        0.01193   0.00027   0.00000  -0.00002   0.00006   0.01199
   D34       -2.96114  -0.00378   0.00000  -0.07642  -0.07646  -3.03761
   D35        3.10809   0.00169   0.00000   0.02184   0.02190   3.12999
   D36        0.13502  -0.00237   0.00000  -0.05456  -0.05462   0.08040
   D37        0.18235   0.00073   0.00000   0.08103   0.07579   0.25814
   D38        0.43821   0.00100   0.00000   0.23323   0.23376   0.67197
   D39       -0.74250   0.00295   0.00000  -0.00179   0.00518  -0.73731
   D40        0.87622  -0.00177   0.00000  -0.08371  -0.08408   0.79214
         Item               Value     Threshold  Converged?
 Maximum Force            0.016740     0.000450     NO 
 RMS     Force            0.002703     0.000300     NO 
 Maximum Displacement     0.651941     0.001800     NO 
 RMS     Displacement     0.135345     0.001200     NO 
 Predicted change in Energy=-6.297140D-03
 GradGradGradGradGradGradGradGradGradGradGradGradGradGradGradGradGradGrad

                          Input orientation:                          
 ---------------------------------------------------------------------
 Center     Atomic      Atomic             Coordinates (Angstroms)
 Number     Number       Type             X           Y           Z
 ---------------------------------------------------------------------
      1          6           0       -1.009216    0.483762    0.984482
      2          6           0        0.391412    0.195706    0.487293
      3          6           0        0.959252   -1.059322    0.687470
      4          6           0        1.084753    1.133323   -0.268983
      5          6           0        2.261795   -1.316157    0.284520
      6          6           0        2.986772   -0.337574   -0.381961
      7          6           0        2.392226    0.884943   -0.663798
      8          8           0       -1.662966    1.518023    0.286481
      9          1           0       -1.594564   -0.439085    0.964802
[...]
 0.0059405,-0.0333003,0.0038307,-0.0446261,0.0287905,-0.0718152,0.00486
 92,-0.0747296,-0.105507,0.0191747,-0.0071857,-0.012199,0.0119741,-0.09
 67356,-0.0233167,-0.0191623,-0.0208373,-0.133557,0.0374615,0.046923,-0
 .0338393,0.0265065,0.0356724,-0.076869,-0.0266636,-0.0776095,-0.100213
 5,-0.7658144,0.2201478,0.0126096,0.3835852,-0.7026293,0.1671422,-0.039
 9268,0.1505609,-0.4109703,-0.078317,-0.0205818,-0.0410673,0.0096217,-0
 .0723839,-0.0275137,-0.0963732,-0.0682106,0.0042401,-0.0357592,0.01037
 53,0.035052,0.0293038,0.0039914,0.0373043,0.0533094,0.0781955,-0.08019
 6,0.0180531,-0.0704292,0.042644,-0.0629632,-0.0006,0.062388,0.0403472,
 0.0662721,0.0926559,0.0256928,0.057177,-0.0156877,0.0606705,-0.0211266
 ,0.0637194,-0.0162758,0.0652613,0.1060511,-0.0814467,0.0128779,0.01441
 51,0.0124944,0.0774295,0.0257635,0.0139472,0.025626,0.1250693,0.013221
 7,-0.0526592,0.0339888,-0.0597125,-0.0076131,0.0672522,0.0381158,0.065
 0346,0.0996634,0.0988193,0.0316169,-0.0132486,0.0344185,0.0201961,0.04
 97727,-0.0143194,0.0466052,0.1118736,-0.0153486,0.0011622,-0.0068223,-
 0.0027027,-0.0019261,0.0027337,0.0188693,0.0043187,-0.0435938,0.017500
 9,0.0016478,0.0160859,0.0023306,0.008738,0.0073045,-0.0071959,0.003305
 4,0.028943,0.3347666,-0.0220494,-0.0566109,-0.0273134,0.2470206,-0.066
 4205,-0.0360928,-0.0494998,0.2577167\Polar=115.4569845,-2.8347782,90.0
 125409,-2.5518976,-14.3402405,72.1733998\PG=C01 [X(C7H8O3)]\NImag=1\\0
 .50335313,0.02630909,0.53962446,0.01621778,0.00890910,0.58983215,-0.20
 759615,0.00055188,0.01000768,0.64850045,-0.01257388,-0.08711658,0.0048
 9267,-0.00420249,0.61565937,0.01469594,0.00667701,-0.07941920,-0.03843
 271,-0.19545394,0.26841060,-0.01840109,0.02495716,-0.00934754,-0.16943
 400,0.04236999,-0.00893335,0.71205508,0.00858171,0.00246635,-0.0006609
 2,0.10883332,-0.25398531,0.07182769,0.00770164,0.61413216,-0.00248460,
 -0.00169726,0.00350940,-0.03938910,0.07926802,-0.10372734,-0.05765523,
 -0.21435531,0.24463389,-0.01926260,-0.02295990,0.01326112,-0.18608061,
 -0.04436289,0.02935438,0.07238896,-0.03274704,0.00832628,0.69539609,-0
 .00453126,0.00937126,-0.00137081,-0.11131614,-0.23918929,0.08547881,0.
 01719928,-0.04725311,0.02344153,-0.05034452,0.63636958,0.00419442,-0.0
 0050015,0.00436127,0.05970376,0.07860763,-0.10862489,-0.01409191,0.028
 34054,-0.00218868,-0.02924637,-0.21209741,0.23807774,0.00575368,0.0044
 0874,-0.00122774,-0.02362007,0.08479721,-0.03534174,-0.35183397,-0.015
 86309,0.03399138,-0.06403699,-0.02748652,0.01766177,0.69245612,0.00057
 160,-0.00295267,0.00398807,0.03042517,0.02870722,-0.01230216,0.0534054
 7,-0.12118064,0.01990359,-0.02862385,-0.01492275,0.00610469,-0.0490895
 2,0.63493627,0.00032983,0.00364112,0.00394206,-0.01115917,-0.01700454,
 0.01650301,0.00289790,0.02628585,-0.07780504,0.01824210,0.00592694,-0.
 01189727,-0.02934199,-0.21637921,0.24252027,-0.00122566,-0.00138872,0.
 00041571,0.00129789,-0.00325430,0.00076985,-0.03265997,-0.02209149,0.0
 1390041,-0.02178861,0.03016459,-0.01045476,-0.18898286,-0.11539611,0.0
 6269658,0.74870617,-0.00263331,-0.00222699,0.00026780,-0.00111099,-0.0
 7160025,0.02916327,-0.07540176,0.04276224,-0.00785380,0.08304090,0.028
 37615,-0.01656543,-0.04625491,-0.23934950,0.08105057,-0.02720399,0.590
 17856,0.00122850,0.00067872,-0.00129041,-0.00044340,0.02871620,-0.0206
 3433,0.03758234,-0.01295336,0.01128092,-0.03404344,-0.01137683,0.01704
 489,0.03177738,0.08740360,-0.10956998,-0.04367147,-0.19752281,0.233272
 96,-0.00019322,-0.00234928,0.00152523,-0.02969038,-0.07766838,0.038530
 94,-0.05775050,0.03406111,-0.01028813,-0.33932883,0.05277759,0.0015178
 1,0.07391851,0.01982720,-0.01494738,-0.18048860,0.05151706,-0.01266260
 ,0.69222843,0.00093620,-0.00287461,0.00514460,-0.02615644,0.04221849,-
 0.01409413,0.03496848,-0.02464301,0.00437405,-0.01661108,-0.12253016,0
 .02621286,-0.03336809,-0.04918506,0.02901699,0.12060562,-0.27041204,0.
 07891599,0.00790564,0.64008631,0.00027073,0.00475396,0.00585891,0.0147
 5529,-0.00870080,0.00908285,-0.01094026,0.00475827,-0.00800410,0.03239
 940,0.01970744,-0.07888173,0.00904137,0.02397220,-0.00285916,-0.043324
 73,0.08499092,-0.10140235,-0.05361304,-0.21988704,0.24713799,-0.090099
 57,0.06663105,-0.02639620,-0.01363118,0.04063928,-0.01311486,-0.007994
 26,-0.00191435,0.00166002,-0.00007036,-0.00157785,0.00066530,-0.000082
 65,0.00229936,-0.00112454,-0.00046773,-0.00029444,0.00017121,-0.000008
 67,0.00194076,-0.00087603,0.35244927,0.03414635,-0.23088564,0.01452937
 ,0.01084265,-0.00954439,0.00256176,0.00327346,0.00126766,-0.00033509,-
 0.00312622,-0.00322008,0.00200405,-0.00148327,-0.00074539,0.00071443,0
 .00030242,0.00094075,-0.00042428,0.00084444,0.00105587,-0.00046320,-0.
 05609909,0.34084967,-0.03444117,0.05344468,-0.08736602,-0.00391187,0.0
 0593770,0.00133779,-0.00210313,0.00047401,0.00183051,0.00106027,0.0020
 8964,-0.00039189,0.00037722,0.00043425,-0.00001572,-0.00004606,-0.0002
 4087,0.00006773,-0.00021673,-0.00080103,0.00079651,0.32035353,-0.01733
 297,0.38229097,-0.09118049,-0.07478492,-0.06812918,-0.01793378,-0.0218
 0914,-0.01897316,0.00061404,-0.00068295,0.00145877,-0.00184557,0.00172
 113,-0.00070828,-0.00013135,0.00011854,0.00096687,-0.00043215,-0.00011
 156,-0.00014468,-0.00032835,0.00051301,0.00163826,0.00395382,0.0165080
 6,0.00709276,0.10124131,-0.06665624,-0.16455371,-0.10130229,-0.0023372
 4,0.00272485,-0.00065066,0.00177369,-0.00011061,0.00025989,-0.00041984
 ,-0.00003276,0.00029251,-0.00151825,0.00008479,0.00082115,0.00047745,0
 .00097261,-0.00048525,0.00061039,-0.00050943,0.00006715,-0.00418304,-0
 .03731831,-0.01264818,0.07218009,0.19258600,-0.06468228,-0.10995467,-0
 .15074472,0.00253842,0.00355289,0.00416284,-0.00058368,0.00003807,0.00
 112061,0.00050813,0.00017095,-0.00039962,0.00001473,0.00010208,-0.0002
 3890,-0.00000361,-0.00011513,0.00001035,-0.00015764,0.00007297,-0.0003
 4514,0.00418991,0.01252631,0.00791103,0.07080125,0.11436003,0.15447702
 ,-0.06842962,-0.01459433,0.07102074,-0.01477512,-0.00620319,0.03157494
 ,0.00061451,-0.00169781,-0.00019967,-0.00294389,0.00214150,-0.00039036
 ,-0.00008879,-0.00036733,-0.00056678,-0.00026921,0.00002173,0.00024975
 ,-0.00060103,-0.00120774,-0.00110711,0.00321179,0.00839438,-0.01566627
 ,0.00443388,0.00176452,-0.01319856,0.07875130,-0.01403804,-0.05397566,
 0.03525263,-0.00326250,0.00241130,0.00263841,0.00157643,0.00037051,-0.
 00012812,-0.00015284,-0.00004650,-0.00017130,-0.00099739,-0.00055463,-
 0.00062899,0.00026734,0.00049195,-0.00026940,0.00026577,-0.00024067,0.
 00006408,0.00311527,-0.01996717,0.03580786,0.00583658,0.00586295,-0.02
 119614,0.00865625,0.06933908,0.06729438,0.04069813,-0.27462442,0.00173
 288,-0.00063826,-0.00034912,-0.00112018,0.00110310,0.00092004,0.000401
 39,-0.00040178,0.00000675,0.00120990,0.00019995,0.00039192,-0.00027200
 ,-0.00078358,0.00032861,-0.00059268,0.00032678,-0.00013089,-0.00576171
 ,0.01160348,-0.00361838,0.00596598,0.00214450,-0.01898155,-0.07111216,
 -0.05463116,0.29692116,0.00022284,0.00094993,-0.00075602,0.01200820,0.
 01029164,-0.00532071,-0.13579556,-0.10657678,0.05769011,-0.00068913,0.
 00309494,-0.00060424,-0.01137558,-0.02554275,0.01287851,-0.00553135,0.
 00190642,0.00041957,-0.00081976,0.00081230,-0.00038049,0.00017283,-0.0
 0067092,0.00024503,0.00009906,-0.00030403,-0.00019087,0.00023463,0.000
 04499,0.00027660,0.14067530,-0.00168274,-0.00010467,-0.00053040,-0.015
 47929,-0.01499718,0.01011516,-0.10776722,-0.21233863,0.08887324,0.0037
 9842,-0.00214905,0.00379884,0.00259531,0.00534068,-0.00093661,0.001135
 01,0.00286799,0.00212029,0.00103638,-0.00021427,-0.00044795,0.00004282
 ,0.00041107,-0.00043696,0.00032575,-0.00034044,0.00012639,0.00089994,0
 .00007884,-0.00062810,0.11648898,0.22250103,0.00023366,-0.00131356,-0.
 00179041,0.00639308,0.00755980,-0.00005570,0.05851404,0.08889739,-0.08
 527782,-0.00112249,0.00371581,0.00543734,0.00012901,0.00176954,0.00311
 197,0.00075018,0.00205853,0.00668372,-0.00041162,-0.00046921,-0.000737
 02,-0.00005593,-0.00025164,-0.00013622,-0.00075195,-0.00050745,-0.0002
 4846,0.00006543,0.00055303,-0.00050932,-0.06380156,-0.10019370,0.07810
 505,0.00059183,0.00111235,-0.00049877,-0.00582670,-0.00022191,0.001379
 63,-0.00913951,0.02702672,-0.01094417,-0.00105214,-0.00088196,0.000420
 73,-0.11867139,0.10606454,-0.04013631,0.01211843,-0.01476969,0.0058848
 8,-0.00101010,-0.00292139,0.00206499,-0.00070145,0.00035882,-0.0002403
 4,-0.00004552,-0.00005194,-0.00003633,-0.00001931,-0.00001708,0.000061
 97,0.00103849,-0.00056819,-0.00026488,0.12168403,-0.00022061,0.0000762
 1,0.00009554,0.00017013,0.00296493,0.00219910,-0.00097595,0.00219617,0
 .00088377,-0.00086089,0.00010498,-0.00038771,0.10612629,-0.24421811,0.
 08283303,0.01335167,-0.01412457,0.00690254,-0.00337807,-0.00109256,0.0
 0408917,0.00009906,-0.00010669,-0.00007254,0.00001477,-0.00001365,0.00
 000809,0.00006613,0.00000252,0.00000344,0.00016109,-0.00022128,-0.0019
 2995,-0.11487711,0.25537136,0.00005370,-0.00005594,0.00024312,0.001276
 80,0.00210326,0.00681989,0.00154472,-0.00166379,0.00457262,0.00043295,
 -0.00036208,-0.00082198,-0.04009373,0.08294494,-0.07246334,-0.00677147
 ,0.00943267,0.00038333,0.00228065,0.00403829,0.00527951,0.00004129,-0.
 00012198,-0.00022948,-0.00008765,0.00001784,0.00000250,0.00004563,0.00
 001194,-0.00001301,-0.00061114,-0.00187951,-0.00354827,0.04265710,-0.0
 9268396,0.06399223,0.00007772,0.00003941,-0.00007041,0.00064856,-0.000
 11540,-0.00009765,0.00043328,-0.00276199,0.00183874,0.00086350,0.00292
 025,-0.00067885,-0.01186801,0.00362924,-0.00022302,-0.33699690,0.01918
 999,0.01849227,-0.01002250,-0.00149476,0.00191738,-0.00019116,0.000028
 56,-0.00000700,0.00000668,-0.00003456,0.00000462,0.00002573,-0.0000092
 8,-0.00000837,-0.00066600,0.00022134,-0.00002410,0.00064895,-0.0003572
 2,-0.00027093,0.35688383,-0.00003266,-0.00019107,-0.00025650,-0.000092
 86,-0.00155148,0.00035678,-0.00226935,-0.00211746,0.00434411,0.0023357
 2,-0.00293284,0.00442861,-0.02450898,0.00634969,0.00096025,0.01918311,
 -0.05751957,0.00680070,0.02671134,0.00332676,-0.00226043,0.00006763,0.
 00017160,-0.00017634,-0.00003205,-0.00002225,0.00001378,0.00009088,0.0
 0005899,-0.00009213,-0.00123440,0.00013294,0.00012073,0.00042307,0.000
 06981,-0.00190564,-0.02110380,0.05403527,-0.00014906,-0.00030716,-0.00
 063826,-0.00002089,0.00030276,-0.00094530,0.00163399,0.00441014,0.0049
 8515,-0.00048394,0.00436925,0.00568981,0.01239433,-0.00154168,0.003088
 78,0.01840345,0.00679656,-0.04317864,-0.01053926,0.00023636,0.00459414
 ,-0.00002044,-0.00011223,-0.00008699,-0.00015683,-0.00011132,-0.000004
 30,0.00007837,0.00011624,-0.00008054,0.00064463,-0.00001016,0.00006458
 ,-0.00062363,-0.00184114,-0.00321394,-0.02054879,-0.01038056,0.0330116
 2,0.00014963,-0.00150561,0.00067649,-0.00578237,0.00129339,0.00056792,
 -0.00089841,0.00099710,-0.00045404,-0.01132421,-0.02495572,0.01242886,
 -0.00034383,0.00331316,-0.00074000,0.01193326,0.01224942,-0.00610174,-
 0.13726120,-0.11138531,0.05803773,0.00004487,0.00035945,-0.00018806,-0
 .00024346,0.00000303,0.00001535,-0.00034899,-0.00000337,0.00001944,0.0
 0005133,-0.00013627,-0.00004695,0.00041514,0.00068348,-0.00034980,0.00
 063941,-0.00072567,-0.00013504,0.14189861,0.00026619,0.00012104,-0.000
 04911,0.00135388,0.00281309,0.00190501,0.00097306,-0.00018499,-0.00048
 522,0.00265652,0.00555997,-0.00085229,0.00369674,-0.00197341,0.0039321
 0,-0.01590971,-0.01426218,0.00957757,-0.11107482,-0.21853908,0.0890844
 2,-0.00010207,0.00001405,0.00001295,0.00000334,-0.00002440,0.00002682,
 -0.00002704,0.00001036,-0.00001483,-0.00013463,-0.00020752,-0.00040470
 ,-0.00081588,-0.00082260,0.00048001,0.00004466,0.00008575,-0.00194899,
 0.11964059,0.22758690,-0.00014459,0.00012296,-0.00000647,0.00070057,0.
 00204777,0.00647041,-0.00034224,-0.00053611,-0.00079072,0.00012128,0.0
 0158502,0.00344169,-0.00095651,0.00396168,0.00601911,0.00632948,0.0071
 1615,0.00048861,0.05792011,0.08898456,-0.08470354,0.00004335,-0.000045
 21,0.00004815,0.00007202,-0.00004327,0.00003901,-0.00002531,0.00005447
 ,-0.00001422,-0.00005635,-0.00042190,-0.00096657,0.00032001,0.00032039
 ,-0.00011921,-0.00047731,-0.00188968,-0.00345784,-0.06322224,-0.099516
 51,0.07704127,-0.00011409,-0.00058480,-0.00003422,0.01354496,-0.012172
 61,0.00456272,-0.00160433,-0.00269670,0.00206021,-0.12004834,0.1103385
 8,-0.04045546,-0.00097556,-0.00082110,0.00034556,-0.00529757,-0.000194
 19,0.00133025,-0.00864272,0.02562328,-0.01006567,-0.00364631,-0.000675
 63,0.00039290,-0.00004615,0.00027774,-0.00004388,0.00019119,0.00028756
 ,-0.00014905,0.00038343,-0.00095542,0.00041394,0.00003420,0.00003051,-
 0.00012227,-0.00051109,0.00121224,-0.00047413,0.00107833,-0.00058285,-
 0.00028188,0.12617516,0.00193841,-0.00200687,-0.00107411,0.01158340,-0
 .01553619,0.00776811,-0.00309997,-0.00129574,0.00385871,0.10894894,-0.
 24779416,0.08066015,-0.00094086,0.00004240,-0.00036092,-0.00015754,0.0
 0276128,0.00201757,-0.00129617,0.00351306,0.00018291,0.00190758,0.0013
 6192,-0.00152419,-0.00042912,-0.00001037,0.00012217,0.00017200,0.00000
 626,-0.00004804,0.00069972,-0.00080975,0.00033839,0.00005314,-0.000195
 02,-0.00037893,-0.00019296,0.00009079,0.00003586,0.00020257,-0.0001829
 0,-0.00176424,-0.11909170,0.25984687,-0.00125745,-0.00070632,-0.003478
 00,-0.00562258,0.01034828,0.00083511,0.00223691,0.00400068,0.00498373,
 -0.03953406,0.07950799,-0.07079189,0.00039068,-0.00041794,-0.00084074,
 0.00115835,0.00212389,0.00654125,0.00157518,-0.00205810,0.00442655,-0.
 00009741,-0.00070027,-0.00074777,-0.00068206,-0.00009236,0.00014721,0.
 00065489,0.00004457,0.00008423,-0.00036687,0.00047619,-0.00011733,-0.0
 0012524,-0.00039876,-0.00089470,0.00013783,-0.00007384,0.00016214,-0.0
 0058074,-0.00175560,-0.00347229,0.04249070,-0.08995706,0.06287796,-0.0
 0085216,-0.00063461,0.00091281,0.00010996,-0.00008470,-0.00021113,-0.0
 0000963,0.00000472,0.00000860,-0.00008179,-0.00003544,0.00000521,-0.00
 001058,0.00000840,-0.00000246,-0.00000766,0.00001152,-0.00000655,0.000
 02424,0.00001739,0.00003428,-0.00198755,-0.00042052,-0.00019503,-0.000
 97058,-0.00001464,-0.00016107,0.00020808,0.00014084,-0.00028789,-0.000
 00176,0.00000635,-0.00000172,-0.00000257,0.00000104,-0.00000044,-0.000
 00227,0.00000178,-0.00000440,-0.00000259,-0.00000022,0.00000096,0.0000
 0591,0.00002296,-0.00002731,0.01051290,0.00037492,-0.00055969,0.000156
 15,-0.00004855,0.00008605,0.00000413,-0.00001280,-0.00000228,-0.000005
 62,-0.00000682,-0.00002319,0.00000327,-0.00000872,0.00000312,-0.000000
 90,-0.00000393,0.00000043,-0.00000115,0.00000296,0.00001358,-0.0000042
 7,-0.00143676,-0.00033974,0.00011030,0.00031167,0.00003242,-0.00000910
 ,0.00008646,0.00002498,-0.00000135,0.00000121,-0.00000190,0.00000166,-
 0.00000147,0.00000137,-0.00000003,-0.00000191,0.00000139,-0.00000028,0
 .00000030,-0.00000105,0.00000115,0.00001200,0.00001942,-0.00000427,-0.
 00704671,0.01567810,-0.00014005,0.00037360,-0.00075899,-0.00006968,0.0
 0036404,0.00015128,0.00007923,-0.00000462,0.00001578,0.00019722,0.0000
 0040,-0.00000061,-0.00001582,-0.00003249,0.00000563,0.00003100,-0.0000
 0360,-0.00000033,-0.00001676,0.00002897,-0.00003041,0.00126037,0.00002
 275,-0.00056555,-0.00012573,0.00006995,0.00056785,-0.00040453,-0.00025
 562,-0.00010460,-0.00001897,0.00000342,-0.00001163,0.00001411,-0.00000
 798,-0.00000287,0.00000842,-0.00000199,0.00000053,0.00001982,0.0000023
 2,-0.00000457,-0.00002555,-0.00002122,0.00001444,0.07078567,-0.1066583
 5,0.92617361,-0.00137649,-0.00016247,-0.00020933,0.00003586,-0.0001718
 3,0.00024118,0.00002498,0.00002921,-0.00001110,-0.00008102,0.00001115,
 -0.00000426,0.00000543,-0.00000142,-0.00000469,0.00000538,0.00000078,-
 0.00000169,0.00000341,-0.00004002,-0.00000365,0.00019758,0.00029981,-0
 .00011822,0.00009340,0.00019558,-0.00002639,-0.00060756,0.00006269,0.0
 0040435,0.00000555,-0.00000204,0.00000067,0.00000090,0.00000016,0.0000
 0078,0.00000023,0.00000064,0.00000172,-0.00000547,0.00000208,0.0000011
 5,-0.00000703,0.00000167,0.00001102,-0.00642577,0.00812795,-0.07178036
 ,0.00815390,-0.00009829,0.00018299,-0.00005350,0.00001564,0.00002532,0
 .00001995,0.00000768,0.00000103,0.00000200,0.00001939,-0.00000325,0.00
 000664,0.00000109,-0.00000538,0.00000069,0.00000238,0.00000189,0.00000
 018,0.00000149,0.00000312,-0.00000827,0.00019555,-0.00020544,-0.000104
 57,0.00008269,-0.00001291,0.00003121,0.00007910,-0.00007266,-0.0000557
 2,-0.00000433,0.00000122,0.00000124,0.00000181,-0.00000066,0.00000023,
 0.00000129,-0.00000023,-0.00000003,0.00000235,0.00000035,-0.00000083,-
 0.00000491,-0.00000134,-0.00000044,0.00799400,-0.01466191,0.10602882,-
 0.00820404,0.01469342,0.00023831,-0.00027168,0.00076580,0.00009590,-0.
 00035541,-0.00014951,-0.00008279,0.00000626,-0.00002565,-0.00019086,0.
 00000858,0.00002147,0.00001980,0.00003538,0.00000019,-0.00003116,0.000
 00022,-0.00000173,0.00001492,-0.00003370,0.00002259,-0.00112680,-0.000
 04275,0.00059440,0.00017785,-0.00007996,-0.00065057,0.00037845,0.00024
 058,0.00006628,0.00001800,-0.00000294,0.00001166,-0.00001304,0.0000070
 5,0.00000245,-0.00000774,0.00000167,-0.00000008,-0.00001960,-0.0000025
 1,0.00000320,0.00002275,0.00001747,-0.00001041,-0.07057431,0.10676433,
 -0.92610571,0.07117996,-0.10626991,0.92650009,-0.01141769,-0.00599497,
 -0.00736813,-0.00177553,0.00344923,-0.00125218,-0.00060964,-0.00020333
 ,0.00049153,-0.00001445,0.00076040,0.00003661,-0.00011211,0.00017940,-
 0.00011102,0.00008714,0.00003701,-0.00006058,-0.00002873,-0.00013785,0
 .00015157,-0.24114929,-0.01288273,-0.27238782,0.00271521,-0.00176270,0
 .00101190,0.00041241,-0.00177321,0.00193714,-0.00001251,0.00004087,-0.
 00001882,-0.00006328,-0.00003448,-0.00002619,0.00003003,-0.00002663,-0
 .00000007,-0.00000007,0.00001016,-0.00000249,-0.00052000,-0.00032205,-
 0.00036185,-0.00050618,-0.00034981,0.00020161,-0.00002327,-0.00009289,
 -0.00009965,0.25298796,0.02934258,-0.00439414,0.03206171,0.00023045,-0
 .00408996,0.00178571,0.00132073,-0.00008434,-0.00034848,-0.00058400,0.
 00031520,0.00011451,-0.00010579,-0.00037664,0.00012803,-0.00008379,0.0
 0014124,-0.00010027,0.00020535,0.00002369,0.00010145,-0.05133074,-0.04
 373975,-0.06497371,0.00023413,0.00068520,0.00012327,0.00172454,-0.0038
 0045,0.00121558,0.00001662,0.00005092,0.00005410,0.00008617,0.00000777
 ,0.00002269,-0.00000288,0.00001193,-0.00001363,-0.00003290,0.00000662,
 0.00002360,-0.00000201,0.00019033,-0.00033663,0.00002785,-0.00027110,0
 .00009162,-0.00014990,0.00005445,-0.00002267,0.01910360,0.05526904,-0.
 00145803,-0.00449252,-0.00839581,0.00184502,-0.00154807,0.00013162,0.0
 0071118,0.00003213,-0.00003329,0.00031664,-0.00039342,-0.00008240,-0.0
 0003003,-0.00014649,0.00010721,0.00012025,0.00008464,-0.00002462,0.000
 08101,-0.00000920,-0.00010470,-0.27981105,-0.02413253,-0.30171905,0.00
 158576,-0.00211227,0.00317484,-0.00139743,0.00249693,-0.00029296,-0.00
 006523,-0.00002529,-0.00001556,0.00007929,-0.00002008,0.00001114,0.000
 01490,0.00001046,0.00000912,0.00007260,0.00000856,-0.00001604,0.000033
 08,0.00012736,0.00028052,-0.00027523,-0.00035566,0.00065618,0.00031885
 ,0.00040230,-0.00104448,0.27785844,0.03007315,0.30735827\\0.00000353,-
 0.00000361,0.00001125,-0.00000246,-0.00000295,-0.00000156,0.00000491,0
 .00000462,0.00000668,-0.00000471,0.00000364,-0.00000651,0.00000861,0.0
 0001191,0.00000456,0.00000023,0.00000945,-0.00000135,-0.00000469,0.000
 00456,-0.00000741,-0.00003822,-0.00000601,-0.00002918,-0.00000480,-0.0
 0001824,0.00000280,0.00000430,0.00000051,0.00000400,0.00000877,0.00000
 627,0.00000965,0.00000959,0.00001478,0.00000891,0.00000080,0.00001444,
 -0.00000320,-0.00000815,0.00000568,-0.00001237,-0.00000672,-0.00000402
 ,-0.00001185,0.00002085,-0.00001023,0.00001005,0.00000381,-0.00001498,
 -0.00000232,0.00000435,-0.00001584,0.00001786\\\@


 THE SECRET OF SUCCESS IN LIFE IS TO EAT WHAT YOU LIKE, AND LET THE FOOD
 FIGHT IT OUT INSIDE YOU. -- FROM A FORTUNE COOKIE
 Job cpu time:  0 days 11 hours 49 minutes 26.2 seconds.
 File lengths (MBytes):  RWF=   2624 Int=      0 D2E=      0 Chk=     32 Scr=     32
 Normal termination of Gaussian 09 at Sat Sep 30 15:43:32 2017.
