 Entering Gaussian System, Link 0=/shared/apps/gaussian/G09_LINUX_LINDA/g09/g09
 Input=/gss_gpfs_scratch/harms.n/QMscratch/[O]C1C=CC=C1+[O][O]_[O]O+[O][C]1C=CC=C1RxnC.gjf
 Output=/gss_gpfs_scratch/harms.n/QMscratch/[O]C1C=CC=C1+[O][O]_[O]O+[O][C]1C=CC=C1RxnC.log
 Initial command:
 /shared/apps/gaussian/G09_LINUX_LINDA/g09/l1.exe /gss_gpfs_scratch/harms.n/comparerTST/Gau-31922.inp -scrdir=/gss_gpfs_scratch/harms.n/comparerTST/
 Entering Link 1 = /shared/apps/gaussian/G09_LINUX_LINDA/g09/l1.exe PID=     31923.
  
 Copyright (c) 1988,1990,1992,1993,1995,1998,2003,2009,2010,
            Gaussian, Inc.  All Rights Reserved.
  
 This is part of the Gaussian(R) 09 program.  It is based on
 the Gaussian(R) 03 system (copyright 2003, Gaussian, Inc.),
 the Gaussian(R) 98 system (copyright 1998, Gaussian, Inc.),
 the Gaussian(R) 94 system (copyright 1995, Gaussian, Inc.),
 the Gaussian 92(TM) system (copyright 1992, Gaussian, Inc.),
 the Gaussian 90(TM) system (copyright 1990, Gaussian, Inc.),
 the Gaussian 88(TM) system (copyright 1988, Gaussian, Inc.),
 the Gaussian 86(TM) system (copyright 1986, Carnegie Mellon
 University), and the Gaussian 82(TM) system (copyright 1983,
 Carnegie Mellon University). Gaussian is a federally registered
 trademark of Gaussian, Inc.
  
 This software contains proprietary and confidential information,
 including trade secrets, belonging to Gaussian, Inc.
  
 This software is provided under written license and may be
 used, copied, transmitted, or stored only in accord with that
 written license.
  
 The following legend is applicable only to US Government
 contracts under FAR:
  
                    RESTRICTED RIGHTS LEGEND
  
 Use, reproduction and disclosure by the US Government is
 subject to restrictions as set forth in subparagraphs (a)
 and (c) of the Commercial Computer Software - Restricted
 Rights clause in FAR 52.227-19.
  
 Gaussian, Inc.
 340 Quinnipiac St., Bldg. 40, Wallingford CT 06492
  
  
 ---------------------------------------------------------------
 Warning -- This program may not be used in any manner that
 competes with the business of Gaussian, Inc. or will provide
 assistance to any competitor of Gaussian, Inc.  The licensee
 of this program is prohibited from giving any competitor of
 Gaussian, Inc. access to this program.  By using this program,
 the user acknowledges that Gaussian, Inc. is engaged in the
 business of creating and licensing software in the field of
 computational chemistry and represents and warrants to the
 licensee that it is not a competitor of Gaussian, Inc. and that
 it will not use this program in any manner prohibited above.
 ---------------------------------------------------------------
  

 Cite this work as:
 Gaussian 09, Revision B.01,
 M. J. Frisch, G. W. Trucks, H. B. Schlegel, G. E. Scuseria, 
 M. A. Robb, J. R. Cheeseman, G. Scalmani, V. Barone, B. Mennucci, 
 G. A. Petersson, H. Nakatsuji, M. Caricato, X. Li, H. P. Hratchian, 
 A. F. Izmaylov, J. Bloino, G. Zheng, J. L. Sonnenberg, M. Hada, 
 M. Ehara, K. Toyota, R. Fukuda, J. Hasegawa, M. Ishida, T. Nakajima, 
 Y. Honda, O. Kitao, H. Nakai, T. Vreven, J. A. Montgomery, Jr., 
 J. E. Peralta, F. Ogliaro, M. Bearpark, J. J. Heyd, E. Brothers, 
 K. N. Kudin, V. N. Staroverov, T. Keith, R. Kobayashi, J. Normand, 
 K. Raghavachari, A. Rendell, J. C. Burant, S. S. Iyengar, J. Tomasi, 
 M. Cossi, N. Rega, J. M. Millam, M. Klene, J. E. Knox, J. B. Cross, 
 V. Bakken, C. Adamo, J. Jaramillo, R. Gomperts, R. E. Stratmann, 
 O. Yazyev, A. J. Austin, R. Cammi, C. Pomelli, J. W. Ochterski, 
 R. L. Martin, K. Morokuma, V. G. Zakrzewski, G. A. Voth, 
 P. Salvador, J. J. Dannenberg, S. Dapprich, A. D. Daniels, 
 O. Farkas, J. B. Foresman, J. V. Ortiz, J. Cioslowski, 
 and D. J. Fox, Gaussian, Inc., Wallingford CT, 2010.
 
 ******************************************
 Gaussian 09:  EM64L-G09RevB.01 12-Aug-2010
                20-Aug-2017 
 ******************************************
 %nprocshared=20
 Will use up to   20 processors via shared memory.
 %mem=5GB
 ---------------------------------------------------
 # m062x/6-311+g(2df,2p) opt=(ts,calcfc,noeigentest)
 ---------------------------------------------------
 1/5=1,10=4,11=1,14=-1,18=20,26=3,38=1/1,3;
 2/9=110,12=2,17=6,18=5,40=1/2;
 3/5=4,6=6,7=214,11=2,16=1,25=1,30=1,71=2,74=-55/1,2,3;
 4//1;
 5/5=2,38=5/2;
 8/6=4,10=90,11=11/1;
 11/6=1,8=1,9=11,15=111,16=1/1,2,10;
 10/6=1,7=6,13=1/2;
 6/7=2,8=2,9=2,10=2,28=1/1;
 7/10=1,18=20,25=1/1,2,3,16;
 1/5=1,10=4,11=1,14=-1,18=20/3(2);
 2/9=110/2;
 99//99;
 2/9=110/2;
 3/5=4,6=6,7=214,11=2,16=1,25=1,30=1,71=1,74=-55/1,2,3;
 4/5=5,16=3/1;
 5/5=2,38=5/2;
 7//1,2,3,16;
 1/5=1,11=1,14=-1,18=20/3(-5);
 2/9=110/2;
 6/7=2,8=2,9=2,10=2,19=2,28=1/1;
 99/9=1/99;
 ---------------------------------------
 [O]C1C=CC=C1+[O][O]_[O]O+[O][C]1C=CC=C1
 ---------------------------------------
 Symbolic Z-matrix:
 Charge =  0 Multiplicity = 4
 C                    -0.38528   0.66657   0.09069 
 C                    -0.85541  -0.15355   1.1969 
 C                    -1.06286   0.23964  -1.1232 
 C                    -1.59916  -1.11498   0.64674 
 C                    -1.81638  -0.80365  -0.7719 
 O                    -0.28336   2.00148   0.30716 
 H                     0.85845   0.27808  -0.08527 
 H                    -0.44962  -0.25122   2.18238 
 H                    -1.1032    0.77362  -2.0572 
 H                    -1.80729  -2.10713   1.05188 
 H                    -2.42131  -1.40609  -1.44914 
 O                     2.02893  -0.06232  -0.24706 
 O                     3.15911  -0.7256   -0.04485 
 

 GradGradGradGradGradGradGradGradGradGradGradGradGradGradGradGradGradGrad
 Berny optimization.
 Initialization pass.
                           ----------------------------
                           !    Initial Parameters    !
                           ! (Angstroms and Degrees)  !
 --------------------------                            --------------------------
 ! Name  Definition              Value          Derivative Info.                !
 --------------------------------------------------------------------------------
 ! R1    R(1,2)                  1.4551         calculate D2E/DX2 analytically  !
 ! R2    R(1,3)                  1.4543         calculate D2E/DX2 analytically  !
 ! R3    R(1,6)                  1.3562         calculate D2E/DX2 analytically  !
 ! R4    R(1,7)                  1.3148         calculate D2E/DX2 analytically  !
 ! R5    R(2,4)                  1.3342         calculate D2E/DX2 analytically  !
 ! R6    R(2,8)                  1.0702         calculate D2E/DX2 analytically  !
 ! R7    R(3,5)                  1.334          calculate D2E/DX2 analytically  !
 ! R8    R(3,9)                  1.0766         calculate D2E/DX2 analytically  !
 ! R9    R(4,5)                  1.4686         calculate D2E/DX2 analytically  !
 ! R10   R(4,10)                 1.0917         calculate D2E/DX2 analytically  !
 ! R11   R(5,11)                 1.0897         calculate D2E/DX2 analytically  !
 ! R12   R(7,12)                 1.2297         calculate D2E/DX2 analytically  !
 ! R13   R(12,13)                1.3259         calculate D2E/DX2 analytically  !
 ! A1    A(2,1,3)              108.5763         calculate D2E/DX2 analytically  !
 ! A2    A(2,1,6)              117.2393         calculate D2E/DX2 analytically  !
 ! A3    A(2,1,7)              103.9359         calculate D2E/DX2 analytically  !
 ! A4    A(3,1,6)              117.2075         calculate D2E/DX2 analytically  !
 ! A5    A(3,1,7)              104.0214         calculate D2E/DX2 analytically  !
 ! A6    A(6,1,7)              103.952          calculate D2E/DX2 analytically  !
 ! A7    A(1,2,4)              105.8285         calculate D2E/DX2 analytically  !
 ! A8    A(1,2,8)              128.9735         calculate D2E/DX2 analytically  !
 ! A9    A(4,2,8)              121.688          calculate D2E/DX2 analytically  !
 ! A10   A(1,3,5)              105.8405         calculate D2E/DX2 analytically  !
 ! A11   A(1,3,9)              126.5827         calculate D2E/DX2 analytically  !
 ! A12   A(5,3,9)              126.5241         calculate D2E/DX2 analytically  !
 ! A13   A(2,4,5)              109.1486         calculate D2E/DX2 analytically  !
 ! A14   A(2,4,10)             127.4535         calculate D2E/DX2 analytically  !
 ! A15   A(5,4,10)             121.5312         calculate D2E/DX2 analytically  !
 ! A16   A(3,5,4)              109.6715         calculate D2E/DX2 analytically  !
 ! A17   A(3,5,11)             125.6085         calculate D2E/DX2 analytically  !
 ! A18   A(4,5,11)             124.4202         calculate D2E/DX2 analytically  !
 ! A19   A(7,12,13)            158.3953         calculate D2E/DX2 analytically  !
 ! A20   L(1,7,12,2,-1)        180.6258         calculate D2E/DX2 analytically  !
 ! A21   L(1,7,12,2,-2)        181.4613         calculate D2E/DX2 analytically  !
 ! D1    D(3,1,2,4)              8.3279         calculate D2E/DX2 analytically  !
 ! D2    D(3,1,2,8)            167.0242         calculate D2E/DX2 analytically  !
 ! D3    D(6,1,2,4)            144.0136         calculate D2E/DX2 analytically  !
 ! D4    D(6,1,2,8)            -57.2902         calculate D2E/DX2 analytically  !
 ! D5    D(7,1,2,4)           -101.9605         calculate D2E/DX2 analytically  !
 ! D6    D(7,1,2,8)             56.7357         calculate D2E/DX2 analytically  !
 ! D7    D(2,1,3,5)             -3.266          calculate D2E/DX2 analytically  !
 ! D8    D(2,1,3,9)            165.5531         calculate D2E/DX2 analytically  !
 ! D9    D(6,1,3,5)           -138.9676         calculate D2E/DX2 analytically  !
 ! D10   D(6,1,3,9)             29.8515         calculate D2E/DX2 analytically  !
 ! D11   D(7,1,3,5)            106.9648         calculate D2E/DX2 analytically  !
 ! D12   D(7,1,3,9)            -84.2161         calculate D2E/DX2 analytically  !
 ! D13   D(2,1,12,13)           -0.9273         calculate D2E/DX2 analytically  !
 ! D14   D(3,1,12,13)         -114.7525         calculate D2E/DX2 analytically  !
 ! D15   D(6,1,12,13)          122.1624         calculate D2E/DX2 analytically  !
 ! D16   D(1,2,4,5)             -9.8124         calculate D2E/DX2 analytically  !
 ! D17   D(1,2,4,10)           154.6267         calculate D2E/DX2 analytically  !
 ! D18   D(8,2,4,5)           -170.426          calculate D2E/DX2 analytically  !
 ! D19   D(8,2,4,10)            -5.9869         calculate D2E/DX2 analytically  !
 ! D20   D(1,3,5,4)             -2.6665         calculate D2E/DX2 analytically  !
 ! D21   D(1,3,5,11)          -176.5849         calculate D2E/DX2 analytically  !
 ! D22   D(9,3,5,4)           -171.4942         calculate D2E/DX2 analytically  !
 ! D23   D(9,3,5,11)            14.5874         calculate D2E/DX2 analytically  !
 ! D24   D(2,4,5,3)              8.2939         calculate D2E/DX2 analytically  !
 ! D25   D(2,4,5,11)          -177.6996         calculate D2E/DX2 analytically  !
 ! D26   D(10,4,5,3)          -157.2376         calculate D2E/DX2 analytically  !
 ! D27   D(10,4,5,11)           16.7688         calculate D2E/DX2 analytically  !
 --------------------------------------------------------------------------------
 Trust Radius=3.00D-01 FncErr=1.00D-07 GrdErr=1.00D-06
 Number of steps in this run=     71 maximum allowed number of steps=    100.
 Search for a saddle point of order  1.
 GradGradGradGradGradGradGradGradGradGradGradGradGradGradGradGradGradGrad

                          Input orientation:                          
 ---------------------------------------------------------------------
 Center     Atomic      Atomic             Coordinates (Angstroms)
 Number     Number       Type             X           Y           Z
 ---------------------------------------------------------------------
      1          6           0       -0.385275    0.666569    0.090689
      2          6           0       -0.855410   -0.153548    1.196901
      3          6           0       -1.062858    0.239637   -1.123196
      4          6           0       -1.599162   -1.114978    0.646736
      5          6           0       -1.816380   -0.803648   -0.771904
      6          8           0       -0.283358    2.001484    0.307162
      7          1           0        0.858446    0.278084   -0.085273
      8          1           0       -0.449616   -0.251217    2.182382
      9          1           0       -1.103197    0.773615   -2.057201
     10          1           0       -1.807286   -2.107131    1.051878
     11          1           0       -2.421305   -1.406086   -1.449142
     12          8           0        2.028928   -0.062320   -0.247061
     13          8           0        3.159113   -0.725596   -0.044850
 ---------------------------------------------------------------------
                    Distance matrix (angstroms):
                    1          2          3          4          5
     1  C    0.000000
     2  C    1.455103   0.000000
     3  C    1.454272   2.362304   0.000000
     4  C    2.226347   1.334240   2.292436   0.000000
     5  C    2.225683   2.285232   1.334033   1.468554   0.000000
     6  O    1.356188   2.400634   2.399510   3.399851   3.373915
     7  H    1.314810   2.183479   2.184072   2.918269   2.965856
     8  H    2.285093   1.070225   3.397624   2.103746   3.301671
     9  H    2.267223   3.392670   1.076627   3.335272   2.156009
    10  H    3.261811   2.177978   3.285185   1.091707   2.241725
    11  H    3.288221   3.320003   2.158709   2.270103   1.089733
    12  O    2.544353   3.226880   3.227682   3.882010   3.951129
    13  O    3.810404   4.240941   4.463132   4.824012   5.028939
                    6          7          8          9         10
     6  O    0.000000
     7  H    2.104241   0.000000
     8  H    2.935771   2.670851   0.000000
     9  H    2.787474   2.825260   4.410387   0.000000
    10  H    4.444961   3.753464   2.562367   4.296605   0.000000
    11  H    4.389414   3.931073   4.290600   2.618824   2.669004
    12  O    3.148510   1.229666   3.475781   3.712897   4.537073
    13  O    4.405847   2.510394   4.267145   4.946158   5.270348
                   11         12         13
    11  H    0.000000
    12  O    4.801591   0.000000
    13  O    5.794495   1.325950   0.000000
 Stoichiometry    C5H5O3(4)
 Framework group  C1[X(C5H5O3)]
 Deg. of freedom    33
 Full point group                 C1      NOp   1
 Largest Abelian subgroup         C1      NOp   1
 Largest concise Abelian subgroup C1      NOp   1
                         Standard orientation:                         
 ---------------------------------------------------------------------
 Center     Atomic      Atomic             Coordinates (Angstroms)
 Number     Number       Type             X           Y           Z
 ---------------------------------------------------------------------
      1          6           0       -0.385275    0.666569    0.090689
      2          6           0       -0.855410   -0.153548    1.196901
      3          6           0       -1.062858    0.239637   -1.123196
      4          6           0       -1.599162   -1.114978    0.646736
      5          6           0       -1.816380   -0.803648   -0.771904
      6          8           0       -0.283358    2.001484    0.307162
      7          1           0        0.858446    0.278084   -0.085273
      8          1           0       -0.449616   -0.251217    2.182382
      9          1           0       -1.103197    0.773615   -2.057201
     10          1           0       -1.807286   -2.107131    1.051878
     11          1           0       -2.421305   -1.406086   -1.449142
     12          8           0        2.028928   -0.062320   -0.247061
     13          8           0        3.159113   -0.725596   -0.044850
 ---------------------------------------------------------------------
 Rotational constants (GHZ):      3.0106814      1.2897587      1.1456522
 Standard basis: 6-311+G(2df,2p) (5D, 7F)
 There are   317 symmetry adapted basis functions of A   symmetry.
 Integral buffers will be    131072 words long.
 Raffenetti 2 integral format.
 Two-electron integral symmetry is turned on.
   317 basis functions,   471 primitive gaussians,   357 cartesian basis functions
    31 alpha electrons       28 beta electrons
       nuclear repulsion energy       335.3768088585 Hartrees.
 NAtoms=   13 NActive=   13 NUniq=   13 SFac= 1.00D+00 NAtFMM=   50 NAOKFM=F Big=F
 One-electron integrals computed using PRISM.
 NBasis=   317 RedAO= T  NBF=   317
 NBsUse=   317 1.00D-06 NBFU=   317
 Harris functional with IExCor= 1009 diagonalized for initial guess.
 ExpMin= 4.38D-02 ExpMax= 8.59D+03 ExpMxC= 1.30D+03 IAcc=2 IRadAn=         0 AccDes= 0.00D+00
 HarFok:  IExCor= 1009 AccDes= 0.00D+00 IRadAn=         0 IDoV= 1
 ScaDFX=  1.000000  1.000000  1.000000  1.000000
 FoFCou: FMM=F IPFlag=           0 FMFlag=      100000 FMFlg1=           0
         NFxFlg=           0 DoJE=T BraDBF=F KetDBF=T FulRan=T
         Omega=  0.000000  0.000000  1.000000  0.000000  0.000000 ICntrl=     500 IOpCl=  0
         NMat0=    1 NMatS0=    1 NMatT0=    0 NMatD0=    1 NMtDS0=    0 NMtDT0=    0
         I1Cent=           4 NGrid=           0.
 Petite list used in FoFCou.
 Initial guess orbital symmetries:
 Alpha Orbitals:
       Occupied  (A) (A) (A) (A) (A) (A) (A) (A) (A) (A) (A) (A)
                 (A) (A) (A) (A) (A) (A) (A) (A) (A) (A) (A) (A)
                 (A) (A) (A) (A) (A) (A) (A)
       Virtual   (A) (A) (A) (A) (A) (A) (A) (A) (A) (A) (A) (A)
                 (A) (A) (A) (A) (A) (A) (A) (A) (A) (A) (A) (A)
                 (A) (A) (A) (A) (A) (A) (A) (A) (A) (A) (A) (A)
                 (A) (A) (A) (A) (A) (A) (A) (A) (A) (A) (A) (A)
                 (A) (A) (A) (A) (A) (A) (A) (A) (A) (A) (A) (A)
                 (A) (A) (A) (A) (A) (A) (A) (A) (A) (A) (A) (A)
                 (A) (A) (A) (A) (A) (A) (A) (A) (A) (A) (A) (A)
                 (A) (A) (A) (A) (A) (A) (A) (A) (A) (A) (A) (A)
                 (A) (A) (A) (A) (A) (A) (A) (A) (A) (A) (A) (A)
                 (A) (A) (A) (A) (A) (A) (A) (A) (A) (A) (A) (A)
                 (A) (A) (A) (A) (A) (A) (A) (A) (A) (A) (A) (A)
                 (A) (A) (A) (A) (A) (A) (A) (A) (A) (A) (A) (A)
                 (A) (A) (A) (A) (A) (A) (A) (A) (A) (A) (A) (A)
                 (A) (A) (A) (A) (A) (A) (A) (A) (A) (A) (A) (A)
                 (A) (A) (A) (A) (A) (A) (A) (A) (A) (A) (A) (A)
                 (A) (A) (A) (A) (A) (A) (A) (A) (A) (A) (A) (A)
                 (A) (A) (A) (A) (A) (A) (A) (A) (A) (A) (A) (A)
                 (A) (A) (A) (A) (A) (A) (A) (A) (A) (A) (A) (A)
                 (A) (A) (A) (A) (A) (A) (A) (A) (A) (A) (A) (A)
                 (A) (A) (A) (A) (A) (A) (A) (A) (A) (A) (A) (A)
                 (A) (A) (A) (A) (A) (A) (A) (A) (A) (A) (A) (A)
                 (A) (A) (A) (A) (A) (A) (A) (A) (A) (A) (A) (A)
                 (A) (A) (A) (A) (A) (A) (A) (A) (A) (A) (A) (A)
                 (A) (A) (A) (A) (A) (A) (A) (A) (A) (A)
 Beta  Orbitals:
       Occupied  (A) (A) (A) (A) (A) (A) (A) (A) (A) (A) (A) (A)
                 (A) (A) (A) (A) (A) (A) (A) (A) (A) (A) (A) (A)
                 (A) (A) (A) (A)
       Virtual   (A) (A) (A) (A) (A) (A) (A) (A) (A) (A) (A) (A)
                 (A) (A) (A) (A) (A) (A) (A) (A) (A) (A) (A) (A)
                 (A) (A) (A) (A) (A) (A) (A) (A) (A) (A) (A) (A)
                 (A) (A) (A) (A) (A) (A) (A) (A) (A) (A) (A) (A)
                 (A) (A) (A) (A) (A) (A) (A) (A) (A) (A) (A) (A)
                 (A) (A) (A) (A) (A) (A) (A) (A) (A) (A) (A) (A)
                 (A) (A) (A) (A) (A) (A) (A) (A) (A) (A) (A) (A)
                 (A) (A) (A) (A) (A) (A) (A) (A) (A) (A) (A) (A)
                 (A) (A) (A) (A) (A) (A) (A) (A) (A) (A) (A) (A)
                 (A) (A) (A) (A) (A) (A) (A) (A) (A) (A) (A) (A)
                 (A) (A) (A) (A) (A) (A) (A) (A) (A) (A) (A) (A)
                 (A) (A) (A) (A) (A) (A) (A) (A) (A) (A) (A) (A)
                 (A) (A) (A) (A) (A) (A) (A) (A) (A) (A) (A) (A)
                 (A) (A) (A) (A) (A) (A) (A) (A) (A) (A) (A) (A)
                 (A) (A) (A) (A) (A) (A) (A) (A) (A) (A) (A) (A)
                 (A) (A) (A) (A) (A) (A) (A) (A) (A) (A) (A) (A)
                 (A) (A) (A) (A) (A) (A) (A) (A) (A) (A) (A) (A)
                 (A) (A) (A) (A) (A) (A) (A) (A) (A) (A) (A) (A)
                 (A) (A) (A) (A) (A) (A) (A) (A) (A) (A) (A) (A)
                 (A) (A) (A) (A) (A) (A) (A) (A) (A) (A) (A) (A)
                 (A) (A) (A) (A) (A) (A) (A) (A) (A) (A) (A) (A)
                 (A) (A) (A) (A) (A) (A) (A) (A) (A) (A) (A) (A)
                 (A) (A) (A) (A) (A) (A) (A) (A) (A) (A) (A) (A)
                 (A) (A) (A) (A) (A) (A) (A) (A) (A) (A) (A) (A)
                 (A)
 The electronic state of the initial guess is 4-A.
 Initial guess <Sx>= 0.0000 <Sy>= 0.0000 <Sz>= 1.5000 <S**2>= 3.7500 S= 1.5000
 Requested convergence on RMS density matrix=1.00D-08 within 128 cycles.
 Requested convergence on MAX density matrix=1.00D-06.
 Requested convergence on             energy=1.00D-06.
 No special actions if energy rises.
 Restarting incremental Fock formation.
 SCF Done:  E(UM062X) =  -418.833937993     A.U. after   26 cycles
             Convg  =    0.7499D-08             -V/T =  2.0032
 <Sx>= 0.0000 <Sy>= 0.0000 <Sz>= 1.5000 <S**2>= 3.7757 S= 1.5064
 <L.S>= 0.000000000000E+00
 Annihilation of the first spin contaminant:
 S**2 before annihilation     3.7757,   after     3.7503
 Range of M.O.s used for correlation:     1   317
 NBasis=   317 NAE=    31 NBE=    28 NFC=     0 NFV=     0
 NROrb=    317 NOA=    31 NOB=    28 NVA=   286 NVB=   289

 **** Warning!!: The largest alpha MO coefficient is  0.80610577D+02


 **** Warning!!: The largest beta MO coefficient is  0.81659778D+02

 Symmetrizing basis deriv contribution to polar:
 IMax=3 JMax=2 DiffMx= 0.00D+00
 G2DrvN: will do    14 centers at a time, making    1 passes doing MaxLOS=3.
 Calling FoFCou, ICntrl=  3107 FMM=F I1Cent=   0 AccDes= 0.00D+00.
 FoFDir/FoFCou used for L=0 through L=3.
 End of G2Drv Frequency-dependent properties file   721 does not exist.
 End of G2Drv Frequency-dependent properties file   722 does not exist.
          IDoAtm=1111111111111
          Differentiating once with respect to nuclear coordinates.
          There are    42 degrees of freedom in the 1st order CPHF.  IDoFFX=5.
     36 vectors produced by pass  0 Test12= 4.04D-10 2.38D-07 XBig12= 3.91D-01 2.09D-01.
 AX will form    36 AO Fock derivatives at one time.
     36 vectors produced by pass  1 Test12= 4.04D-10 2.38D-07 XBig12= 6.78D-02 8.52D-02.
     36 vectors produced by pass  2 Test12= 4.04D-10 2.38D-07 XBig12= 5.82D-03 1.90D-02.
     36 vectors produced by pass  3 Test12= 4.04D-10 2.38D-07 XBig12= 1.22D-04 1.90D-03.
     36 vectors produced by pass  4 Test12= 4.04D-10 2.38D-07 XBig12= 3.44D-06 2.44D-04.
     34 vectors produced by pass  5 Test12= 4.04D-10 2.38D-07 XBig12= 5.95D-08 3.96D-05.
     13 vectors produced by pass  6 Test12= 4.04D-10 2.38D-07 XBig12= 7.34D-10 2.93D-06.
      1 vectors produced by pass  7 Test12= 4.04D-10 2.38D-07 XBig12= 9.46D-12 3.78D-07.
 Inverted reduced A of dimension   228 with in-core refinement.
 End of Minotr Frequency-dependent properties file   721 does not exist.
 End of Minotr Frequency-dependent properties file   722 does not exist.

 **********************************************************************

            Population analysis using the SCF density.

 **********************************************************************

 Orbital symmetries:
 Alpha Orbitals:
       Occupied  (A) (A) (A) (A) (A) (A) (A) (A) (A) (A) (A) (A)
                 (A) (A) (A) (A) (A) (A) (A) (A) (A) (A) (A) (A)
                 (A) (A) (A) (A) (A) (A) (A)
       Virtual   (A) (A) (A) (A) (A) (A) (A) (A) (A) (A) (A) (A)
                 (A) (A) (A) (A) (A) (A) (A) (A) (A) (A) (A) (A)
                 (A) (A) (A) (A) (A) (A) (A) (A) (A) (A) (A) (A)
                 (A) (A) (A) (A) (A) (A) (A) (A) (A) (A) (A) (A)
                 (A) (A) (A) (A) (A) (A) (A) (A) (A) (A) (A) (A)
                 (A) (A) (A) (A) (A) (A) (A) (A) (A) (A) (A) (A)
                 (A) (A) (A) (A) (A) (A) (A) (A) (A) (A) (A) (A)
                 (A) (A) (A) (A) (A) (A) (A) (A) (A) (A) (A) (A)
                 (A) (A) (A) (A) (A) (A) (A) (A) (A) (A) (A) (A)
                 (A) (A) (A) (A) (A) (A) (A) (A) (A) (A) (A) (A)
                 (A) (A) (A) (A) (A) (A) (A) (A) (A) (A) (A) (A)
                 (A) (A) (A) (A) (A) (A) (A) (A) (A) (A) (A) (A)
                 (A) (A) (A) (A) (A) (A) (A) (A) (A) (A) (A) (A)
                 (A) (A) (A) (A) (A) (A) (A) (A) (A) (A) (A) (A)
                 (A) (A) (A) (A) (A) (A) (A) (A) (A) (A) (A) (A)
                 (A) (A) (A) (A) (A) (A) (A) (A) (A) (A) (A) (A)
                 (A) (A) (A) (A) (A) (A) (A) (A) (A) (A) (A) (A)
                 (A) (A) (A) (A) (A) (A) (A) (A) (A) (A) (A) (A)
                 (A) (A) (A) (A) (A) (A) (A) (A) (A) (A) (A) (A)
                 (A) (A) (A) (A) (A) (A) (A) (A) (A) (A) (A) (A)
                 (A) (A) (A) (A) (A) (A) (A) (A) (A) (A) (A) (A)
                 (A) (A) (A) (A) (A) (A) (A) (A) (A) (A) (A) (A)
                 (A) (A) (A) (A) (A) (A) (A) (A) (A) (A) (A) (A)
                 (A) (A) (A) (A) (A) (A) (A) (A) (A) (A)
 Beta  Orbitals:
       Occupied  (A) (A) (A) (A) (A) (A) (A) (A) (A) (A) (A) (A)
                 (A) (A) (A) (A) (A) (A) (A) (A) (A) (A) (A) (A)
                 (A) (A) (A) (A)
       Virtual   (A) (A) (A) (A) (A) (A) (A) (A) (A) (A) (A) (A)
                 (A) (A) (A) (A) (A) (A) (A) (A) (A) (A) (A) (A)
                 (A) (A) (A) (A) (A) (A) (A) (A) (A) (A) (A) (A)
                 (A) (A) (A) (A) (A) (A) (A) (A) (A) (A) (A) (A)
                 (A) (A) (A) (A) (A) (A) (A) (A) (A) (A) (A) (A)
                 (A) (A) (A) (A) (A) (A) (A) (A) (A) (A) (A) (A)
                 (A) (A) (A) (A) (A) (A) (A) (A) (A) (A) (A) (A)
                 (A) (A) (A) (A) (A) (A) (A) (A) (A) (A) (A) (A)
                 (A) (A) (A) (A) (A) (A) (A) (A) (A) (A) (A) (A)
                 (A) (A) (A) (A) (A) (A) (A) (A) (A) (A) (A) (A)
                 (A) (A) (A) (A) (A) (A) (A) (A) (A) (A) (A) (A)
                 (A) (A) (A) (A) (A) (A) (A) (A) (A) (A) (A) (A)
                 (A) (A) (A) (A) (A) (A) (A) (A) (A) (A) (A) (A)
                 (A) (A) (A) (A) (A) (A) (A) (A) (A) (A) (A) (A)
                 (A) (A) (A) (A) (A) (A) (A) (A) (A) (A) (A) (A)
                 (A) (A) (A) (A) (A) (A) (A) (A) (A) (A) (A) (A)
                 (A) (A) (A) (A) (A) (A) (A) (A) (A) (A) (A) (A)
                 (A) (A) (A) (A) (A) (A) (A) (A) (A) (A) (A) (A)
                 (A) (A) (A) (A) (A) (A) (A) (A) (A) (A) (A) (A)
                 (A) (A) (A) (A) (A) (A) (A) (A) (A) (A) (A) (A)
                 (A) (A) (A) (A) (A) (A) (A) (A) (A) (A) (A) (A)
                 (A) (A) (A) (A) (A) (A) (A) (A) (A) (A) (A) (A)
                 (A) (A) (A) (A) (A) (A) (A) (A) (A) (A) (A) (A)
                 (A) (A) (A) (A) (A) (A) (A) (A) (A) (A) (A) (A)
                 (A)
 The electronic state is 4-A.
 Alpha  occ. eigenvalues --  -19.86510 -19.84655 -19.64167 -10.58996 -10.54194
 Alpha  occ. eigenvalues --  -10.54144 -10.53620 -10.53333  -1.42227  -1.14168
 Alpha  occ. eigenvalues --   -1.08498  -0.97283  -0.81872  -0.77713  -0.72588
 Alpha  occ. eigenvalues --   -0.68957  -0.68807  -0.62516  -0.62331  -0.58540
 Alpha  occ. eigenvalues --   -0.53218  -0.49663  -0.49466  -0.48352  -0.47794
 Alpha  occ. eigenvalues --   -0.47192  -0.43462  -0.39477  -0.35822  -0.31765
 Alpha  occ. eigenvalues --   -0.28638
 Alpha virt. eigenvalues --   -0.01687   0.01705   0.02822   0.03282   0.04825
 Alpha virt. eigenvalues --    0.04998   0.05855   0.06152   0.07445   0.08822
 Alpha virt. eigenvalues --    0.09217   0.09836   0.10546   0.10711   0.12715
 Alpha virt. eigenvalues --    0.14134   0.14544   0.14980   0.15073   0.15522
 Alpha virt. eigenvalues --    0.16932   0.17347   0.18764   0.19212   0.20250
 Alpha virt. eigenvalues --    0.20955   0.21887   0.22310   0.24015   0.24755
 Alpha virt. eigenvalues --    0.25102   0.25998   0.28369   0.29242   0.29765
 Alpha virt. eigenvalues --    0.31111   0.32813   0.35726   0.35879   0.36732
 Alpha virt. eigenvalues --    0.37259   0.38985   0.39993   0.41005   0.44251
 Alpha virt. eigenvalues --    0.45336   0.48207   0.53043   0.54301   0.54504
 Alpha virt. eigenvalues --    0.55585   0.56922   0.58382   0.60005   0.61268
 Alpha virt. eigenvalues --    0.62188   0.62562   0.63995   0.65037   0.67273
 Alpha virt. eigenvalues --    0.68248   0.70015   0.70618   0.71083   0.72545
 Alpha virt. eigenvalues --    0.73910   0.75324   0.75714   0.77482   0.80493
 Alpha virt. eigenvalues --    0.82480   0.84646   0.90365   0.90559   0.93840
 Alpha virt. eigenvalues --    0.96570   0.96893   0.97907   0.99556   1.00627
 Alpha virt. eigenvalues --    1.02241   1.05031   1.06131   1.08820   1.10247
 Alpha virt. eigenvalues --    1.10540   1.11716   1.13349   1.14972   1.15927
 Alpha virt. eigenvalues --    1.16537   1.17330   1.20455   1.23883   1.24612
 Alpha virt. eigenvalues --    1.25790   1.26735   1.28097   1.29045   1.30456
 Alpha virt. eigenvalues --    1.31743   1.34132   1.36002   1.38032   1.39048
 Alpha virt. eigenvalues --    1.40181   1.42028   1.43428   1.43614   1.46471
 Alpha virt. eigenvalues --    1.47244   1.50445   1.50602   1.55318   1.56877
 Alpha virt. eigenvalues --    1.58315   1.61715   1.62035   1.64757   1.66823
 Alpha virt. eigenvalues --    1.68068   1.71122   1.74614   1.75108   1.79668
 Alpha virt. eigenvalues --    1.82864   1.85315   1.86722   1.87936   1.89999
 Alpha virt. eigenvalues --    1.97129   2.13159   2.19154   2.19749   2.27288
 Alpha virt. eigenvalues --    2.36555   2.42008   2.45732   2.55140   2.59803
 Alpha virt. eigenvalues --    2.63682   2.66545   2.70549   2.71021   2.75508
 Alpha virt. eigenvalues --    2.76901   2.78254   2.79223   2.81044   2.81559
 Alpha virt. eigenvalues --    2.83180   2.84549   2.87302   2.88891   2.91577
 Alpha virt. eigenvalues --    2.94466   2.95130   3.00421   3.03531   3.07915
 Alpha virt. eigenvalues --    3.10448   3.12256   3.14901   3.15604   3.18914
 Alpha virt. eigenvalues --    3.20297   3.23436   3.25373   3.28748   3.30912
 Alpha virt. eigenvalues --    3.33295   3.34730   3.35025   3.37660   3.40028
 Alpha virt. eigenvalues --    3.42189   3.44454   3.45096   3.47417   3.50263
 Alpha virt. eigenvalues --    3.53503   3.55515   3.59253   3.60036   3.61964
 Alpha virt. eigenvalues --    3.65730   3.68176   3.69083   3.72084   3.74175
 Alpha virt. eigenvalues --    3.76623   3.77704   3.82320   3.83229   3.87455
 Alpha virt. eigenvalues --    3.89624   3.93025   3.94739   3.98047   4.01386
 Alpha virt. eigenvalues --    4.05744   4.09889   4.11667   4.18167   4.19639
 Alpha virt. eigenvalues --    4.24929   4.27153   4.30005   4.31965   4.37906
 Alpha virt. eigenvalues --    4.41536   4.43903   4.44849   4.47054   4.51129
 Alpha virt. eigenvalues --    4.51859   4.54297   4.54739   4.56193   4.59684
 Alpha virt. eigenvalues --    4.61750   4.63345   4.66007   4.70143   4.73511
 Alpha virt. eigenvalues --    4.83313   4.83402   4.85100   4.88535   4.89569
 Alpha virt. eigenvalues --    4.89986   4.97051   4.97168   4.97279   5.01531
 Alpha virt. eigenvalues --    5.03277   5.06831   5.07098   5.09050   5.10141
 Alpha virt. eigenvalues --    5.12227   5.16658   5.23181   5.25668   5.29853
 Alpha virt. eigenvalues --    5.34741   5.36889   5.38849   5.42417   5.44355
 Alpha virt. eigenvalues --    5.51421   5.52660   5.57171   5.68877   5.80780
 Alpha virt. eigenvalues --    5.85227   6.11079   6.12532   6.22009   6.23582
 Alpha virt. eigenvalues --    6.43428   6.47335   6.48361   6.62577   6.62846
 Alpha virt. eigenvalues --    6.71812   6.78685   6.81952   6.84904   6.89429
 Alpha virt. eigenvalues --    7.08066   7.19489   7.27346   7.29964   7.33902
 Alpha virt. eigenvalues --    7.58713   7.75244   7.91072  23.96670  24.30599
 Alpha virt. eigenvalues --   24.65904  24.92644  24.95187  49.77555  49.89910
 Alpha virt. eigenvalues --   50.13641
  Beta  occ. eigenvalues --  -19.83757 -19.82337 -19.62771 -10.59020 -10.54187
  Beta  occ. eigenvalues --  -10.54132 -10.53584 -10.53300  -1.34091  -1.09411
  Beta  occ. eigenvalues --   -0.98074  -0.96334  -0.81743  -0.75802  -0.68031
  Beta  occ. eigenvalues --   -0.62302  -0.61972  -0.57015  -0.55039  -0.54625
  Beta  occ. eigenvalues --   -0.49140  -0.47531  -0.46755  -0.44212  -0.42525
  Beta  occ. eigenvalues --   -0.35232  -0.33594  -0.28248
  Beta virt. eigenvalues --   -0.16024  -0.15068  -0.06566  -0.00187   0.01856
  Beta virt. eigenvalues --    0.03019   0.03428   0.04978   0.05356   0.06509
  Beta virt. eigenvalues --    0.07287   0.07737   0.09152   0.09595   0.10484
  Beta virt. eigenvalues --    0.10688   0.10854   0.12776   0.14704   0.14851
  Beta virt. eigenvalues --    0.15228   0.15546   0.16889   0.17236   0.17825
  Beta virt. eigenvalues --    0.18935   0.19338   0.20300   0.21386   0.22016
  Beta virt. eigenvalues --    0.22456   0.24102   0.25184   0.25416   0.26355
  Beta virt. eigenvalues --    0.28487   0.29697   0.30284   0.31293   0.33469
  Beta virt. eigenvalues --    0.35780   0.36424   0.36830   0.37555   0.39081
  Beta virt. eigenvalues --    0.40426   0.41680   0.44232   0.45489   0.48311
  Beta virt. eigenvalues --    0.53285   0.54432   0.54706   0.55935   0.56986
  Beta virt. eigenvalues --    0.58553   0.60245   0.61456   0.62535   0.62879
  Beta virt. eigenvalues --    0.64192   0.65157   0.67390   0.68424   0.70059
  Beta virt. eigenvalues --    0.70699   0.71189   0.72628   0.74052   0.75386
  Beta virt. eigenvalues --    0.75769   0.77588   0.80597   0.82620   0.84855
  Beta virt. eigenvalues --    0.90745   0.90928   0.94752   0.97725   0.98749
  Beta virt. eigenvalues --    0.99906   1.01259   1.02892   1.02991   1.05526
  Beta virt. eigenvalues --    1.06553   1.10090   1.11536   1.12320   1.13219
  Beta virt. eigenvalues --    1.14099   1.15157   1.16640   1.17144   1.18558
  Beta virt. eigenvalues --    1.22085   1.24352   1.25218   1.26675   1.28128
  Beta virt. eigenvalues --    1.29020   1.30214   1.31377   1.32768   1.34436
  Beta virt. eigenvalues --    1.36179   1.38618   1.39544   1.40672   1.42242
  Beta virt. eigenvalues --    1.43953   1.44904   1.46819   1.47588   1.50904
  Beta virt. eigenvalues --    1.52787   1.56733   1.58448   1.59860   1.62730
  Beta virt. eigenvalues --    1.63017   1.65901   1.68008   1.69576   1.71845
  Beta virt. eigenvalues --    1.75786   1.76204   1.80655   1.84246   1.86184
  Beta virt. eigenvalues --    1.87870   1.89047   1.90973   1.97920   2.14871
  Beta virt. eigenvalues --    2.19710   2.21725   2.28679   2.37723   2.42786
  Beta virt. eigenvalues --    2.46229   2.55316   2.59994   2.63732   2.66843
  Beta virt. eigenvalues --    2.70975   2.71329   2.75724   2.77027   2.78333
  Beta virt. eigenvalues --    2.79533   2.81138   2.81633   2.83330   2.84975
  Beta virt. eigenvalues --    2.87468   2.88937   2.91679   2.94759   2.95125
  Beta virt. eigenvalues --    3.00391   3.03535   3.08009   3.10409   3.12330
  Beta virt. eigenvalues --    3.15055   3.15613   3.18991   3.20371   3.23415
  Beta virt. eigenvalues --    3.25438   3.28868   3.31004   3.33347   3.34775
  Beta virt. eigenvalues --    3.35061   3.37755   3.40114   3.42284   3.44541
  Beta virt. eigenvalues --    3.45194   3.47463   3.50201   3.53657   3.55493
  Beta virt. eigenvalues --    3.59320   3.60039   3.62269   3.65932   3.68033
  Beta virt. eigenvalues --    3.69265   3.71970   3.73995   3.76682   3.77852
  Beta virt. eigenvalues --    3.82324   3.83278   3.87529   3.89676   3.92993
  Beta virt. eigenvalues --    3.94363   3.97942   4.01019   4.05241   4.09804
  Beta virt. eigenvalues --    4.11296   4.17617   4.19647   4.24870   4.27046
  Beta virt. eigenvalues --    4.30038   4.32211   4.37950   4.41721   4.45118
  Beta virt. eigenvalues --    4.46184   4.48217   4.51594   4.52206   4.54800
  Beta virt. eigenvalues --    4.54972   4.56501   4.61525   4.62143   4.63986
  Beta virt. eigenvalues --    4.66323   4.70345   4.73835   4.84895   4.86007
  Beta virt. eigenvalues --    4.86152   4.88717   4.94712   4.95346   4.97466
  Beta virt. eigenvalues --    4.99959   5.00073   5.03300   5.06634   5.08710
  Beta virt. eigenvalues --    5.09887   5.11444   5.12657   5.13808   5.17229
  Beta virt. eigenvalues --    5.26367   5.30017   5.31264   5.36741   5.38605
  Beta virt. eigenvalues --    5.40376   5.44104   5.45908   5.51740   5.52967
  Beta virt. eigenvalues --    5.57722   5.69215   5.80777   5.87380   6.11377
  Beta virt. eigenvalues --    6.14220   6.23522   6.24307   6.45300   6.59073
  Beta virt. eigenvalues --    6.59594   6.73484   6.74148   6.74367   6.84012
  Beta virt. eigenvalues --    6.91131   6.95503   6.97821   7.11476   7.23570
  Beta virt. eigenvalues --    7.32141   7.34095   7.42368   7.63103   7.73599
  Beta virt. eigenvalues --    7.94180  23.96673  24.30619  24.65742  24.92650
  Beta virt. eigenvalues --   24.95225  49.76340  49.88730  50.13179
          Condensed to atoms (all electrons):
              1          2          3          4          5          6
     1  C    7.274246  -0.734804  -0.535190  -0.161214  -0.242828   0.364806
     2  C   -0.734804   6.068605   0.145336   0.336046   0.082020  -0.171981
     3  C   -0.535190   0.145336   5.763209  -0.008354   0.543511  -0.132940
     4  C   -0.161214   0.336046  -0.008354   5.444491   0.088336   0.037704
     5  C   -0.242828   0.082020   0.543511   0.088336   5.298410  -0.010086
     6  O    0.364806  -0.171981  -0.132940   0.037704  -0.010086   8.145313
     7  H    0.275096  -0.003732  -0.004960  -0.043324  -0.020187  -0.030818
     8  H   -0.007881   0.407194   0.002316  -0.016105   0.003087  -0.000064
     9  H   -0.003071   0.003655   0.365659  -0.006202   0.031277   0.000962
    10  H    0.011746   0.031314  -0.011202   0.337331   0.008493  -0.000586
    11  H    0.020228  -0.013804   0.018208   0.011644   0.347118  -0.000370
    12  O    0.148591  -0.040045  -0.069616   0.032566   0.004036   0.014783
    13  O    0.051683  -0.000918  -0.001558  -0.033818   0.017166  -0.003111
              7          8          9         10         11         12
     1  C    0.275096  -0.007881  -0.003071   0.011746   0.020228   0.148591
     2  C   -0.003732   0.407194   0.003655   0.031314  -0.013804  -0.040045
     3  C   -0.004960   0.002316   0.365659  -0.011202   0.018208  -0.069616
     4  C   -0.043324  -0.016105  -0.006202   0.337331   0.011644   0.032566
     5  C   -0.020187   0.003087   0.031277   0.008493   0.347118   0.004036
     6  O   -0.030818  -0.000064   0.000962  -0.000586  -0.000370   0.014783
     7  H    0.767964   0.001147  -0.001500  -0.000378  -0.000352  -0.388566
     8  H    0.001147   0.464058  -0.000030  -0.004780  -0.000046  -0.000763
     9  H   -0.001500  -0.000030   0.455798  -0.000093  -0.004478   0.000589
    10  H   -0.000378  -0.004780  -0.000093   0.499947  -0.002344   0.000017
    11  H   -0.000352  -0.000046  -0.004478  -0.002344   0.490739   0.000020
    12  O   -0.388566  -0.000763   0.000589   0.000017   0.000020   8.149553
    13  O    0.020636  -0.000941   0.000038   0.000001  -0.000044   0.210258
             13
     1  C    0.051683
     2  C   -0.000918
     3  C   -0.001558
     4  C   -0.033818
     5  C    0.017166
     6  O   -0.003111
     7  H    0.020636
     8  H   -0.000941
     9  H    0.000038
    10  H    0.000001
    11  H   -0.000044
    12  O    0.210258
    13  O    7.654596
 Mulliken atomic charges:
              1
     1  C   -0.461407
     2  C   -0.108885
     3  C   -0.074419
     4  C   -0.019101
     5  C   -0.150354
     6  O   -0.213612
     7  H    0.428974
     8  H    0.152807
     9  H    0.157398
    10  H    0.130535
    11  H    0.133480
    12  O   -0.061426
    13  O    0.086010
 Sum of Mulliken atomic charges =   0.00000
 Mulliken charges with hydrogens summed into heavy atoms:
              1
     1  C   -0.461407
     2  C    0.043922
     3  C    0.082979
     4  C    0.111434
     5  C   -0.016874
     6  O   -0.213612
    12  O    0.367549
    13  O    0.086010
 Sum of Mulliken charges with hydrogens summed into heavy atoms =   0.00000
          Atomic-Atomic Spin Densities.
              1          2          3          4          5          6
     1  C    0.422872  -0.222553  -0.234164   0.041880   0.005364  -0.068955
     2  C   -0.222553   0.171575   0.138774  -0.066252   0.006898   0.007313
     3  C   -0.234164   0.138774   0.141253   0.004147  -0.030261   0.011137
     4  C    0.041880  -0.066252   0.004147   0.088788  -0.061994  -0.003664
     5  C    0.005364   0.006898  -0.030261  -0.061994   0.101643   0.003818
     6  O   -0.068955   0.007313   0.011137  -0.003664   0.003818   0.876377
     7  H    0.186781  -0.051963  -0.077085  -0.007235  -0.002284  -0.054319
     8  H   -0.002965   0.003243   0.000120  -0.001158   0.001087   0.000511
     9  H    0.000753   0.000018  -0.002537   0.000288   0.002062   0.000567
    10  H   -0.005504   0.002162   0.002201   0.000173   0.000733   0.000030
    11  H   -0.006077   0.002695   0.002388  -0.000490   0.001051  -0.000037
    12  O   -0.088334   0.014474   0.041838   0.007624  -0.001414   0.027023
    13  O    0.006375   0.000759   0.000761  -0.000168  -0.003242  -0.001140
              7          8          9         10         11         12
     1  C    0.186781  -0.002965   0.000753  -0.005504  -0.006077  -0.088334
     2  C   -0.051963   0.003243   0.000018   0.002162   0.002695   0.014474
     3  C   -0.077085   0.000120  -0.002537   0.002201   0.002388   0.041838
     4  C   -0.007235  -0.001158   0.000288   0.000173  -0.000490   0.007624
     5  C   -0.002284   0.001087   0.002062   0.000733   0.001051  -0.001414
     6  O   -0.054319   0.000511   0.000567   0.000030  -0.000037   0.027023
     7  H    0.251908  -0.002696  -0.001920  -0.000468  -0.000400  -0.132778
     8  H   -0.002696  -0.000726   0.000005   0.000167   0.000012   0.001669
     9  H   -0.001920   0.000005   0.001293   0.000010   0.000130   0.000483
    10  H   -0.000468   0.000167   0.000010   0.002015   0.000158   0.000273
    11  H   -0.000400   0.000012   0.000130   0.000158   0.001426   0.000177
    12  O   -0.132778   0.001669   0.000483   0.000273   0.000177   1.294393
    13  O    0.034072   0.000025  -0.000088  -0.000011  -0.000004  -0.332269
             13
     1  C    0.006375
     2  C    0.000759
     3  C    0.000761
     4  C   -0.000168
     5  C   -0.003242
     6  O   -0.001140
     7  H    0.034072
     8  H    0.000025
     9  H   -0.000088
    10  H   -0.000011
    11  H   -0.000004
    12  O   -0.332269
    13  O    1.451590
 Mulliken atomic spin densities:
              1
     1  C    0.035473
     2  C    0.007143
     3  C   -0.001428
     4  C    0.001938
     5  C    0.023461
     6  O    0.798659
     7  H    0.141612
     8  H   -0.000706
     9  H    0.001063
    10  H    0.001938
    11  H    0.001029
    12  O    0.833159
    13  O    1.156660
 Sum of Mulliken atomic spin densities =   3.00000
 APT atomic charges:
              1
     1  C   -0.635340
     2  C   -0.412685
     3  C   -0.453827
     4  C   -0.328772
     5  C   -0.564134
     6  O   -0.311263
     7  H    0.443210
     8  H    0.458074
     9  H    0.545449
    10  H    0.558562
    11  H    0.648296
    12  O   -0.625238
    13  O    0.677666
 Sum of APT charges=   0.00000
 APT Atomic charges with hydrogens summed into heavy atoms:
              1
     1  C   -0.635340
     2  C    0.045390
     3  C    0.091623
     4  C    0.229791
     5  C    0.084163
     6  O   -0.311263
     7  H    0.000000
     8  H    0.000000
     9  H    0.000000
    10  H    0.000000
    11  H    0.000000
    12  O   -0.182028
    13  O    0.677666
 Sum of APT charges=   0.00000
 Electronic spatial extent (au):  <R**2>=           1049.8419
 Charge=              0.0000 electrons
 Dipole moment (field-independent basis, Debye):
    X=              2.1653    Y=             -3.0477    Z=             -0.6239  Tot=              3.7903
 Quadrupole moment (field-independent basis, Debye-Ang):
   XX=            -41.3479   YY=            -51.0254   ZZ=            -43.9820
   XY=              1.5392   XZ=              1.6654   YZ=             -2.1306
 Traceless Quadrupole moment (field-independent basis, Debye-Ang):
   XX=              4.1039   YY=             -5.5736   ZZ=              1.4698
   XY=              1.5392   XZ=              1.6654   YZ=             -2.1306
 Octapole moment (field-independent basis, Debye-Ang**2):
  XXX=             45.8719  YYY=            -16.3208  ZZZ=             -1.0902  XYY=              6.8907
  XXY=             -5.7447  XXZ=             -4.7878  XZZ=              7.3172  YZZ=              0.3632
  YYZ=             -2.0693  XYZ=              0.4345
 Hexadecapole moment (field-independent basis, Debye-Ang**3):
 XXXX=           -743.8541 YYYY=           -331.1606 ZZZZ=           -206.2110 XXXY=            -14.4899
 XXXZ=              6.9615 YYYX=             -3.1633 YYYZ=             -6.0647 ZZZX=              6.4117
 ZZZY=             -5.8751 XXYY=           -166.3153 XXZZ=           -164.4245 YYZZ=            -87.3224
 XXYZ=              4.4862 YYXZ=             -0.4396 ZZXY=             -2.5565
 N-N= 3.353768088585D+02 E-N=-2.449645446774D+03  KE= 6.213469261561D+02
  Exact polarizability:   0.000   0.000   0.000   0.000   0.000   0.000
 Approx polarizability: 126.689  -0.024  99.360   4.640  -0.452  81.933
                          Isotropic Fermi Contact Couplings
        Atom                 a.u.       MegaHertz       Gauss      10(-4) cm-1
     1  C(13)             -0.02860     -10.71572      -3.82364      -3.57438
     2  C(13)              0.01772       6.64132       2.36979       2.21531
     3  C(13)              0.02021       7.57382       2.70253       2.52636
     4  C(13)              0.00395       1.47964       0.52797       0.49355
     5  C(13)              0.00699       2.61802       0.93417       0.87328
     6  O(17)              0.11891     -24.02761      -8.57365      -8.01475
     7  H(1)               0.06070      90.44497      32.27301      30.16920
     8  H(1)              -0.00049      -0.72632      -0.25917      -0.24227
     9  H(1)              -0.00037      -0.54901      -0.19590      -0.18313
    10  H(1)               0.00103       1.53294       0.54699       0.51133
    11  H(1)               0.00138       2.05504       0.73329       0.68549
    12  O(17)              0.41410     -83.67427     -29.85706     -27.91073
    13  O(17)              0.22071     -44.59883     -15.91397     -14.87657
 --------------------------------------------------------
       Center         ----  Spin Dipole Couplings  ----
                      3XX-RR        3YY-RR        3ZZ-RR
 --------------------------------------------------------
     1   Atom        0.073558     -0.003204     -0.070354
     2   Atom       -0.004169      0.017935     -0.013766
     3   Atom       -0.014892      0.001704      0.013188
     4   Atom       -0.001069      0.009675     -0.008606
     5   Atom        0.003648      0.012221     -0.015869
     6   Atom        3.152324     -1.576296     -1.576028
     7   Atom        0.120153     -0.040000     -0.080153
     8   Atom       -0.001441     -0.004276      0.005717
     9   Atom       -0.000731     -0.006774      0.007505
    10   Atom        0.002263      0.000909     -0.003172
    11   Atom        0.003828     -0.000834     -0.002994
    12   Atom       -1.502252      0.357212      1.145040
    13   Atom       -1.505936      0.412316      1.093620
 --------------------------------------------------------
                        XY            XZ            YZ
 --------------------------------------------------------
     1   Atom       -0.018157     -0.000309      0.011828
     2   Atom       -0.006971     -0.013316     -0.019029
     3   Atom        0.016489      0.024052      0.037241
     4   Atom        0.001608      0.001286     -0.002344
     5   Atom       -0.010704     -0.002670      0.011470
     6   Atom       -0.422089     -0.136467      0.012581
     7   Atom       -0.075053     -0.013188      0.008888
     8   Atom       -0.000103     -0.007836     -0.007475
     9   Atom       -0.000760      0.009721      0.002387
    10   Atom        0.004690     -0.002383     -0.002054
    11   Atom        0.003843      0.004255      0.003058
    12   Atom        1.481138     -0.413935      0.266876
    13   Atom        1.649484     -0.505820      0.316970
 --------------------------------------------------------


 ---------------------------------------------------------------------------------
              Anisotropic Spin Dipole Couplings in Principal Axis System
 ---------------------------------------------------------------------------------

       Atom             a.u.   MegaHertz   Gauss  10(-4) cm-1        Axes

              Baa    -0.0724    -9.719    -3.468    -3.242 -0.0195 -0.1733  0.9847
     1 C(13)  Bbb    -0.0053    -0.706    -0.252    -0.236  0.2217  0.9596  0.1733
              Bcc     0.0777    10.426     3.720     3.478  0.9749 -0.2217 -0.0197
 
              Baa    -0.0311    -4.169    -1.488    -1.391  0.4875  0.3755  0.7882
     2 C(13)  Bbb     0.0042     0.564     0.201     0.188  0.8727 -0.1837 -0.4523
              Bcc     0.0269     3.605     1.286     1.203 -0.0250  0.9084 -0.4172
 
              Baa    -0.0319    -4.276    -1.526    -1.426 -0.4537 -0.5527  0.6991
     3 C(13)  Bbb    -0.0250    -3.354    -1.197    -1.119  0.8084 -0.5854  0.0618
              Bcc     0.0569     7.630     2.723     2.545  0.3751  0.5931  0.7124
 
              Baa    -0.0092    -1.231    -0.439    -0.411 -0.1816  0.1366  0.9738
     4 C(13)  Bbb    -0.0010    -0.132    -0.047    -0.044  0.9750 -0.1039  0.1964
              Bcc     0.0102     1.363     0.486     0.455  0.1280  0.9852 -0.1143
 
              Baa    -0.0200    -2.686    -0.958    -0.896 -0.0530 -0.3503  0.9351
     5 C(13)  Bbb    -0.0026    -0.355    -0.127    -0.118  0.8641  0.4534  0.2188
              Bcc     0.0227     3.041     1.085     1.014 -0.5006  0.8196  0.2787
 
              Baa    -1.6137   116.765    41.665    38.949  0.0878  0.9960 -0.0146
     6 O(17)  Bbb    -1.5800   114.325    40.794    38.135  0.0299  0.0120  0.9995
              Bcc     3.1936  -231.090   -82.459   -77.083  0.9957 -0.0882 -0.0287
 
              Baa    -0.0821   -43.821   -15.636   -14.617 -0.0371 -0.2692  0.9624
     7 H(1)   Bbb    -0.0687   -36.677   -13.087   -12.234  0.3720  0.8901  0.2633
              Bcc     0.1509    80.498    28.724    26.851  0.9275 -0.3678 -0.0671
 
              Baa    -0.0104    -5.562    -1.985    -1.855  0.4879  0.6774  0.5505
     8 H(1)   Bbb    -0.0027    -1.430    -0.510    -0.477  0.7527 -0.6459  0.1275
              Bcc     0.0131     6.992     2.495     2.332 -0.4419 -0.3522  0.8250
 
              Baa    -0.0090    -4.793    -1.710    -1.599  0.5845  0.6798 -0.4430
     9 H(1)   Bbb    -0.0051    -2.711    -0.967    -0.904 -0.6013  0.7295  0.3261
              Bcc     0.0141     7.503     2.677     2.503  0.5448  0.0758  0.8351
 
              Baa    -0.0041    -2.198    -0.784    -0.733  0.2227  0.1833  0.9575
    10 H(1)   Bbb    -0.0032    -1.682    -0.600    -0.561 -0.6529  0.7574  0.0069
              Bcc     0.0073     3.880     1.384     1.294  0.7239  0.6267 -0.2884
 
              Baa    -0.0055    -2.929    -1.045    -0.977 -0.2510 -0.3781  0.8911
    11 H(1)   Bbb    -0.0029    -1.543    -0.551    -0.515 -0.5714  0.8009  0.1790
              Bcc     0.0084     4.472     1.596     1.492  0.7814  0.4642  0.4171
 
              Baa    -2.3896   172.910    61.699    57.677  0.8662 -0.4804  0.1377
    12 O(17)  Bbb     1.1570   -83.721   -29.874   -27.926  0.4796  0.7214 -0.4995
              Bcc     1.2326   -89.189   -31.825   -29.750  0.1406  0.4987  0.8553
 
              Baa    -2.5525   184.695    65.904    61.608  0.8550 -0.4929  0.1615
    13 O(17)  Bbb     1.1884   -85.988   -30.683   -28.683 -0.2025 -0.0306  0.9788
              Bcc     1.3641   -98.706   -35.221   -32.925  0.4775  0.8695  0.1259
 

 ---------------------------------------------------------------------------------

 Calling FoFJK, ICntrl=    100147 FMM=F ISym2X=0 I1Cent= 0 IOpClX= 1 NMat=1 NMatS=1 NMatT=0.
 ***** Axes restored to original set *****
 -------------------------------------------------------------------
 Center     Atomic                   Forces (Hartrees/Bohr)
 Number     Number              X              Y              Z
 -------------------------------------------------------------------
      1        6           0.039150720    0.060472625    0.009645735
      2        6           0.002669480   -0.036552531    0.006975979
      3        6          -0.020455322   -0.005221785   -0.010021278
      4        6          -0.004050170   -0.021786597   -0.009693035
      5        6          -0.002699449   -0.022576898   -0.011689773
      6        8           0.009727935   -0.009555063   -0.006730839
      7        1          -0.097577308    0.029296593    0.018172281
      8        1           0.004439493    0.010261689    0.006190099
      9        1           0.006568550    0.001338445   -0.000170831
     10        1          -0.008776439    0.011355863    0.004362999
     11        1           0.000547547    0.004243375    0.005164533
     12        8           0.180207099   -0.085415330    0.005920825
     13        8          -0.109752134    0.064139614   -0.018126696
 -------------------------------------------------------------------
 Cartesian Forces:  Max     0.180207099 RMS     0.044194277

 GradGradGradGradGradGradGradGradGradGradGradGradGradGradGradGradGradGrad
 Berny optimization.
 Internal  Forces:  Max     0.128401820 RMS     0.020828318
 Search for a saddle point.
 Step number   1 out of a maximum of   71
 All quantities printed in internal units (Hartrees-Bohrs-Radians)
 Swaping is turned off.
 Second derivative matrix not updated -- analytic derivatives used.
 ITU=  0
     Eigenvalues ---   -0.02435  -0.00184  -0.00042   0.00757   0.01074
     Eigenvalues ---    0.01490   0.01636   0.02181   0.02349   0.02863
     Eigenvalues ---    0.03537   0.03880   0.04334   0.05936   0.08142
     Eigenvalues ---    0.08904   0.09669   0.10001   0.10667   0.17137
     Eigenvalues ---    0.20000   0.21449   0.25097   0.28303   0.32751
     Eigenvalues ---    0.33191   0.34561   0.35369   0.37374   0.38856
     Eigenvalues ---    0.39625   0.52535   0.60472
 Eigenvectors required to have negative eigenvalues:
                          A19       A20       R3        R12       D14
   1                   -0.97558   0.12870   0.08528  -0.06336  -0.05205
                          A3        A4        D12       R4        R13
   1                    0.04349  -0.04239   0.03831   0.03609  -0.03452
 RFO step:  Lambda0=8.303221245D-05 Lambda=-1.11571818D-01.
 Linear search not attempted -- option 19 set.
 Maximum step size (   0.300) exceeded in Quadratic search.
    -- Step size scaled by   0.280
 Iteration  1 RMS(Cart)=  0.06390722 RMS(Int)=  0.00196797
 Iteration  2 RMS(Cart)=  0.00237902 RMS(Int)=  0.00052566
 Iteration  3 RMS(Cart)=  0.00001974 RMS(Int)=  0.00052555
 Iteration  4 RMS(Cart)=  0.00000002 RMS(Int)=  0.00052555
 Variable       Old X    -DE/DX   Delta X   Delta X   Delta X     New X
                                 (Linear)    (Quad)   (Total)
    R1        2.74975   0.02554   0.00000   0.02302   0.02344   2.77318
    R2        2.74818   0.02514   0.00000   0.02710   0.02751   2.77569
    R3        2.56282  -0.00975   0.00000   0.02362   0.02362   2.58644
    R4        2.48463  -0.02884   0.00000  -0.14194  -0.14193   2.34270
    R5        2.52135   0.01802   0.00000  -0.00030  -0.00047   2.52088
    R6        2.02243   0.00644   0.00000   0.00385   0.00385   2.02628
    R7        2.52096   0.01513   0.00000  -0.00294  -0.00312   2.51784
    R8        2.03453   0.00056   0.00000   0.00097   0.00097   2.03550
    R9        2.77516   0.00351   0.00000   0.00680   0.00629   2.78146
   R10        2.06303  -0.00703   0.00000  -0.00453  -0.00453   2.05850
   R11        2.05930  -0.00586   0.00000  -0.00384  -0.00384   2.05545
   R12        2.32373   0.07456   0.00000   0.19357   0.19356   2.51729
   R13        2.50568  -0.12840   0.00000  -0.13218  -0.13218   2.37350
    A1        1.89501  -0.01646   0.00000  -0.02074  -0.02169   1.87333
    A2        2.04621   0.01367   0.00000  -0.01114  -0.01178   2.03443
    A3        1.81402  -0.00141   0.00000   0.03779   0.03771   1.85173
    A4        2.04566   0.00555   0.00000  -0.01464  -0.01501   2.03065
    A5        1.81552   0.00354   0.00000   0.04557   0.04550   1.86101
    A6        1.81431  -0.00586   0.00000  -0.01973  -0.01922   1.79508
    A7        1.84706   0.00747   0.00000   0.00916   0.00982   1.85687
    A8        2.25101  -0.01005   0.00000  -0.01402  -0.01439   2.23662
    A9        2.12386   0.00462   0.00000   0.00886   0.00853   2.13239
   A10        1.84727   0.00963   0.00000   0.01123   0.01187   1.85914
   A11        2.20929  -0.00997   0.00000  -0.01169  -0.01205   2.19723
   A12        2.20826   0.00080   0.00000   0.00094   0.00065   2.20891
   A13        1.90500   0.00109   0.00000   0.00238   0.00222   1.90722
   A14        2.22448  -0.00286   0.00000  -0.00439  -0.00437   2.22012
   A15        2.12112   0.00259   0.00000   0.00490   0.00496   2.12608
   A16        1.91413  -0.00075   0.00000  -0.00114  -0.00133   1.91280
   A17        2.19228   0.00222   0.00000   0.00330   0.00337   2.19565
   A18        2.17154  -0.00110   0.00000  -0.00090  -0.00086   2.17068
   A19        2.76452  -0.00320   0.00000  -0.01772  -0.01772   2.74680
   A20        3.15251   0.00057   0.00000   0.02244   0.02208   3.17459
   A21        3.16710  -0.00145   0.00000   0.07942   0.07906   3.24616
    D1        0.14535  -0.00542   0.00000  -0.00216  -0.00246   0.14289
    D2        2.91512   0.00239   0.00000   0.01260   0.01225   2.92737
    D3        2.51351  -0.00105   0.00000  -0.05794  -0.05769   2.45582
    D4       -0.99990   0.00676   0.00000  -0.04318  -0.04299  -1.04289
    D5       -1.77955  -0.00236   0.00000  -0.06234  -0.06214  -1.84168
    D6        0.99022   0.00545   0.00000  -0.04757  -0.04743   0.94280
    D7       -0.05700   0.00291   0.00000  -0.00171  -0.00141  -0.05841
    D8        2.88945   0.00586   0.00000   0.00139   0.00167   2.89112
    D9       -2.42544  -0.00554   0.00000   0.05230   0.05206  -2.37338
   D10        0.52101  -0.00259   0.00000   0.05540   0.05513   0.57614
   D11        1.86689  -0.00351   0.00000   0.05323   0.05302   1.91990
   D12       -1.46985  -0.00056   0.00000   0.05633   0.05609  -1.41376
   D13       -0.01618  -0.01007   0.00000   0.10496   0.10730   0.09111
   D14       -2.00281   0.00718   0.00000   0.08371   0.08117  -1.92164
   D15        2.13214   0.00215   0.00000   0.09314   0.09334   2.22548
   D16       -0.17126   0.00420   0.00000   0.00372   0.00388  -0.16738
   D17        2.69874   0.00804   0.00000   0.01650   0.01653   2.71528
   D18       -2.97450   0.00101   0.00000  -0.00368  -0.00369  -2.97818
   D19       -0.10449   0.00485   0.00000   0.00909   0.00897  -0.09553
   D20       -0.04654   0.00055   0.00000   0.00548   0.00531  -0.04123
   D21       -3.08199  -0.00313   0.00000  -0.00714  -0.00725  -3.08923
   D22       -2.99314  -0.00082   0.00000   0.00423   0.00406  -2.98908
   D23        0.25460  -0.00450   0.00000  -0.00839  -0.00850   0.24610
   D24        0.14476  -0.00393   0.00000  -0.00657  -0.00660   0.13815
   D25       -3.10144  -0.00005   0.00000   0.00618   0.00605  -3.09539
   D26       -2.74431  -0.00651   0.00000  -0.01676  -0.01676  -2.76107
   D27        0.29267  -0.00264   0.00000  -0.00401  -0.00410   0.28857
         Item               Value     Threshold  Converged?
 Maximum Force            0.128402     0.000450     NO 
 RMS     Force            0.020828     0.000300     NO 
 Maximum Displacement     0.217049     0.001800     NO 
 RMS     Displacement     0.064625     0.001200     NO 
 Predicted change in Energy=-3.482009D-02
 GradGradGradGradGradGradGradGradGradGradGradGradGradGradGradGradGradGrad

                          Input orientation:                          
 ---------------------------------------------------------------------
 Center     Atomic      Atomic             Coordinates (Angstroms)
 Number     Number       Type             X           Y           Z
 ---------------------------------------------------------------------
      1          6           0       -0.338455    0.617487    0.078469
      2          6           0       -0.851178   -0.190049    1.191382
      3          6           0       -1.062258    0.205085   -1.131284
      4          6           0       -1.647566   -1.113617    0.650719
      5          6           0       -1.859783   -0.799809   -0.771578
      6          8           0       -0.236904    1.964972    0.295894
      7          1           0        0.842127    0.274031   -0.080071
      8          1           0       -0.442304   -0.294879    2.177069
      9          1           0       -1.084938    0.739069   -2.066472
     10          1           0       -1.909984   -2.084138    1.070028
     11          1           0       -2.503482   -1.370766   -1.436974
     12          8           0        2.136762   -0.001782   -0.229473
     13          8           0        3.220604   -0.610739   -0.050587
 ---------------------------------------------------------------------
                    Distance matrix (angstroms):
                    1          2          3          4          5
     1  C    0.000000
     2  C    1.467506   0.000000
     3  C    1.468832   2.365473   0.000000
     4  C    2.244540   1.333990   2.292835   0.000000
     5  C    2.246274   2.289608   1.332384   1.471884   0.000000
     6  O    1.368687   2.413161   2.411483   3.404934   3.378942
     7  H    1.239706   2.167774   2.176346   2.942480   2.988584
     8  H    2.290703   1.072262   3.402867   2.110150   3.310397
     9  H    2.274377   3.395809   1.077140   3.336484   2.155292
    10  H    3.278974   2.173332   3.287089   1.089309   2.245781
    11  H    3.307122   3.321514   2.157285   2.270942   1.087700
    12  O    2.570024   3.313919   3.330133   4.041293   4.111338
    13  O    3.767240   4.277719   4.491813   4.944067   5.134775
                    6          7          8          9         10
     6  O    0.000000
     7  H    2.040818   0.000000
     8  H    2.947531   2.658590   0.000000
     9  H    2.793345   2.806355   4.414711   0.000000
    10  H    4.449020   3.802342   2.565361   4.299864   0.000000
    11  H    4.389460   3.967321   4.297359   2.619148   2.673237
    12  O    3.127048   1.332094   3.539623   3.781902   4.732976
    13  O    4.325356   2.537882   4.298734   4.942011   5.454321
                   11         12         13
    11  H    0.000000
    12  O    4.986385   0.000000
    13  O    5.938423   1.256002   0.000000
 Stoichiometry    C5H5O3(4)
 Framework group  C1[X(C5H5O3)]
 Deg. of freedom    33
 Full point group                 C1      NOp   1
 Largest Abelian subgroup         C1      NOp   1
 Largest concise Abelian subgroup C1      NOp   1
                         Standard orientation:                         
 ---------------------------------------------------------------------
 Center     Atomic      Atomic             Coordinates (Angstroms)
 Number     Number       Type             X           Y           Z
 ---------------------------------------------------------------------
      1          6           0        0.332105    0.623515   -0.102256
      2          6           0        0.880734   -0.197928   -1.187525
      3          6           0        1.074909    0.287291    1.119490
      4          6           0        1.719142   -1.064474   -0.616824
      5          6           0        1.917612   -0.691807    0.793200
      6          8           0        0.168493    1.956499   -0.366243
      7          1           0       -0.831313    0.231879    0.070809
      8          1           0        0.476479   -0.355775   -2.168040
      9          1           0        1.073591    0.854057    2.035463
     10          1           0        2.025684   -2.035941   -1.002672
     11          1           0        2.587342   -1.208998    1.476623
     12          8           0       -2.111782   -0.097790    0.232642
     13          8           0       -3.166560   -0.761809    0.077514
 ---------------------------------------------------------------------
 Rotational constants (GHZ):      3.1222505      1.2373449      1.1185475
 Standard basis: 6-311+G(2df,2p) (5D, 7F)
 There are   317 symmetry adapted basis functions of A   symmetry.
 Integral buffers will be    131072 words long.
 Raffenetti 2 integral format.
 Two-electron integral symmetry is turned on.
   317 basis functions,   471 primitive gaussians,   357 cartesian basis functions
    31 alpha electrons       28 beta electrons
       nuclear repulsion energy       334.7138017967 Hartrees.
 NAtoms=   13 NActive=   13 NUniq=   13 SFac= 1.00D+00 NAtFMM=   50 NAOKFM=F Big=F
 One-electron integrals computed using PRISM.
 NBasis=   317 RedAO= T  NBF=   317
 NBsUse=   317 1.00D-06 NBFU=   317
 Initial guess read from the read-write file.
 B after Tr=     0.000000    0.000000    0.000000
         Rot=    1.000000    0.000000    0.000000    0.000000 Ang=   0.00 deg.
 Initial guess orbital symmetries:
 Alpha Orbitals:
       Occupied  (A) (A) (A) (A) (A) (A) (A) (A) (A) (A) (A) (A)
                 (A) (A) (A) (A) (A) (A) (A) (A) (A) (A) (A) (A)
                 (A) (A) (A) (A) (A) (A) (A)
       Virtual   (A) (A) (A) (A) (A) (A) (A) (A) (A) (A) (A) (A)
                 (A) (A) (A) (A) (A) (A) (A) (A) (A) (A) (A) (A)
                 (A) (A) (A) (A) (A) (A) (A) (A) (A) (A) (A) (A)
                 (A) (A) (A) (A) (A) (A) (A) (A) (A) (A) (A) (A)
                 (A) (A) (A) (A) (A) (A) (A) (A) (A) (A) (A) (A)
                 (A) (A) (A) (A) (A) (A) (A) (A) (A) (A) (A) (A)
                 (A) (A) (A) (A) (A) (A) (A) (A) (A) (A) (A) (A)
                 (A) (A) (A) (A) (A) (A) (A) (A) (A) (A) (A) (A)
                 (A) (A) (A) (A) (A) (A) (A) (A) (A) (A) (A) (A)
                 (A) (A) (A) (A) (A) (A) (A) (A) (A) (A) (A) (A)
                 (A) (A) (A) (A) (A) (A) (A) (A) (A) (A) (A) (A)
                 (A) (A) (A) (A) (A) (A) (A) (A) (A) (A) (A) (A)
                 (A) (A) (A) (A) (A) (A) (A) (A) (A) (A) (A) (A)
                 (A) (A) (A) (A) (A) (A) (A) (A) (A) (A) (A) (A)
                 (A) (A) (A) (A) (A) (A) (A) (A) (A) (A) (A) (A)
                 (A) (A) (A) (A) (A) (A) (A) (A) (A) (A) (A) (A)
                 (A) (A) (A) (A) (A) (A) (A) (A) (A) (A) (A) (A)
                 (A) (A) (A) (A) (A) (A) (A) (A) (A) (A) (A) (A)
                 (A) (A) (A) (A) (A) (A) (A) (A) (A) (A) (A) (A)
                 (A) (A) (A) (A) (A) (A) (A) (A) (A) (A) (A) (A)
                 (A) (A) (A) (A) (A) (A) (A) (A) (A) (A) (A) (A)
                 (A) (A) (A) (A) (A) (A) (A) (A) (A) (A) (A) (A)
                 (A) (A) (A) (A) (A) (A) (A) (A) (A) (A) (A) (A)
                 (A) (A) (A) (A) (A) (A) (A) (A) (A) (A)
 Beta  Orbitals:
       Occupied  (A) (A) (A) (A) (A) (A) (A) (A) (A) (A) (A) (A)
                 (A) (A) (A) (A) (A) (A) (A) (A) (A) (A) (A) (A)
                 (A) (A) (A) (A)
       Virtual   (A) (A) (A) (A) (A) (A) (A) (A) (A) (A) (A) (A)
                 (A) (A) (A) (A) (A) (A) (A) (A) (A) (A) (A) (A)
                 (A) (A) (A) (A) (A) (A) (A) (A) (A) (A) (A) (A)
                 (A) (A) (A) (A) (A) (A) (A) (A) (A) (A) (A) (A)
                 (A) (A) (A) (A) (A) (A) (A) (A) (A) (A) (A) (A)
                 (A) (A) (A) (A) (A) (A) (A) (A) (A) (A) (A) (A)
                 (A) (A) (A) (A) (A) (A) (A) (A) (A) (A) (A) (A)
                 (A) (A) (A) (A) (A) (A) (A) (A) (A) (A) (A) (A)
                 (A) (A) (A) (A) (A) (A) (A) (A) (A) (A) (A) (A)
                 (A) (A) (A) (A) (A) (A) (A) (A) (A) (A) (A) (A)
                 (A) (A) (A) (A) (A) (A) (A) (A) (A) (A) (A) (A)
                 (A) (A) (A) (A) (A) (A) (A) (A) (A) (A) (A) (A)
                 (A) (A) (A) (A) (A) (A) (A) (A) (A) (A) (A) (A)
                 (A) (A) (A) (A) (A) (A) (A) (A) (A) (A) (A) (A)
                 (A) (A) (A) (A) (A) (A) (A) (A) (A) (A) (A) (A)
                 (A) (A) (A) (A) (A) (A) (A) (A) (A) (A) (A) (A)
                 (A) (A) (A) (A) (A) (A) (A) (A) (A) (A) (A) (A)
                 (A) (A) (A) (A) (A) (A) (A) (A) (A) (A) (A) (A)
                 (A) (A) (A) (A) (A) (A) (A) (A) (A) (A) (A) (A)
                 (A) (A) (A) (A) (A) (A) (A) (A) (A) (A) (A) (A)
                 (A) (A) (A) (A) (A) (A) (A) (A) (A) (A) (A) (A)
                 (A) (A) (A) (A) (A) (A) (A) (A) (A) (A) (A) (A)
                 (A) (A) (A) (A) (A) (A) (A) (A) (A) (A) (A) (A)
                 (A) (A) (A) (A) (A) (A) (A) (A) (A) (A) (A) (A)
                 (A)
 Initial guess <Sx>= 0.0000 <Sy>= 0.0000 <Sz>= 1.5000 <S**2>= 3.8563 S= 1.5264
 Harris functional with IExCor= 1009 diagonalized for initial guess.
 ExpMin= 4.38D-02 ExpMax= 8.59D+03 ExpMxC= 1.30D+03 IAcc=2 IRadAn=         0 AccDes= 0.00D+00
 HarFok:  IExCor= 1009 AccDes= 0.00D+00 IRadAn=         0 IDoV= 1
 ScaDFX=  1.000000  1.000000  1.000000  1.000000
 FoFCou: FMM=F IPFlag=           0 FMFlag=      100000 FMFlg1=           0
         NFxFlg=           0 DoJE=T BraDBF=F KetDBF=T FulRan=T
         Omega=  0.000000  0.000000  1.000000  0.000000  0.000000 ICntrl=     500 IOpCl=  0
         NMat0=    1 NMatS0=    1 NMatT0=    0 NMatD0=    1 NMtDS0=    0 NMtDT0=    0
         I1Cent=           4 NGrid=           0.
 Petite list used in FoFCou.
 Requested convergence on RMS density matrix=1.00D-08 within 128 cycles.
 Requested convergence on MAX density matrix=1.00D-06.
 Requested convergence on             energy=1.00D-06.
 No special actions if energy rises.
 Restarting incremental Fock formation.
 SCF Done:  E(UM062X) =  -418.867334031     A.U. after   25 cycles
             Convg  =    0.8605D-08             -V/T =  2.0030
 <Sx>= 0.0000 <Sy>= 0.0000 <Sz>= 1.5000 <S**2>= 3.7706 S= 1.5051
 <L.S>= 0.000000000000E+00
 Annihilation of the first spin contaminant:
 S**2 before annihilation     3.7706,   after     3.7502
 Calling FoFJK, ICntrl=      2127 FMM=F ISym2X=0 I1Cent= 0 IOpClX= 1 NMat=1 NMatS=1 NMatT=0.
 ***** Axes restored to original set *****
 -------------------------------------------------------------------
 Center     Atomic                   Forces (Hartrees/Bohr)
 Number     Number              X              Y              Z
 -------------------------------------------------------------------
      1        6           0.036524173    0.048165772    0.006245961
      2        6           0.001537686   -0.032249108    0.005422058
      3        6          -0.018872227   -0.002076005   -0.006448128
      4        6          -0.002291590   -0.017275958   -0.008300852
      5        6          -0.001924056   -0.018787019   -0.009725229
      6        8           0.007208758   -0.007911870   -0.005333408
      7        1          -0.089775180    0.021218743    0.014493261
      8        1           0.004012514    0.009136892    0.004852954
      9        1           0.006317754    0.000422925   -0.000511227
     10        1          -0.008082645    0.010303074    0.004317765
     11        1           0.000388333    0.003622390    0.004127755
     12        8           0.137399096   -0.054658472    0.001720483
     13        8          -0.072442617    0.040088636   -0.010861393
 -------------------------------------------------------------------
 Cartesian Forces:  Max     0.137399096 RMS     0.033619081

 GradGradGradGradGradGradGradGradGradGradGradGradGradGradGradGradGradGrad
 Berny optimization.
 Internal  Forces:  Max     0.083504458 RMS     0.015425661
 Search for a saddle point.
 Step number   2 out of a maximum of   71
 All quantities printed in internal units (Hartrees-Bohrs-Radians)
 Swaping is turned off.
 Update second derivatives using D2CorX and points    1    2
 ITU=  0  0
     Eigenvalues ---   -0.02430  -0.01102  -0.00045   0.00817   0.01076
     Eigenvalues ---    0.01490   0.01688   0.02342   0.02520   0.03169
     Eigenvalues ---    0.03551   0.03877   0.04337   0.06438   0.08154
     Eigenvalues ---    0.08901   0.09667   0.09988   0.10665   0.17487
     Eigenvalues ---    0.19982   0.21449   0.25085   0.31863   0.33188
     Eigenvalues ---    0.33824   0.34588   0.35369   0.37374   0.38855
     Eigenvalues ---    0.39631   0.52536   0.60463
 Eigenvectors required to have negative eigenvalues:
                          A19       A20       R12       D14       R3
   1                    0.97220  -0.12029   0.09771   0.08048  -0.07527
                          R4        D13       A4        D9        D7
   1                   -0.06924   0.04607   0.03336   0.03203   0.02918
 RFO step:  Lambda0=1.329036882D-03 Lambda=-6.95615557D-02.
 Linear search not attempted -- option 19 set.
 Maximum step size (   0.300) exceeded in Quadratic search.
    -- Step size scaled by   0.316
 Iteration  1 RMS(Cart)=  0.08272391 RMS(Int)=  0.00351603
 Iteration  2 RMS(Cart)=  0.00425395 RMS(Int)=  0.00085295
 Iteration  3 RMS(Cart)=  0.00002575 RMS(Int)=  0.00085282
 Iteration  4 RMS(Cart)=  0.00000003 RMS(Int)=  0.00085282
 Variable       Old X    -DE/DX   Delta X   Delta X   Delta X     New X
                                 (Linear)    (Quad)   (Total)
    R1        2.77318   0.02052   0.00000   0.02353   0.02412   2.79730
    R2        2.77569   0.01962   0.00000   0.02447   0.02506   2.80075
    R3        2.58644  -0.00810   0.00000   0.02592   0.02592   2.61237
    R4        2.34270  -0.02619   0.00000  -0.12904  -0.12896   2.21375
    R5        2.52088   0.01364   0.00000  -0.00186  -0.00212   2.51876
    R6        2.02628   0.00510   0.00000   0.00371   0.00371   2.03000
    R7        2.51784   0.01191   0.00000  -0.00235  -0.00262   2.51522
    R8        2.03550   0.00052   0.00000   0.00095   0.00095   2.03645
    R9        2.78146   0.00299   0.00000   0.00666   0.00591   2.78737
   R10        2.05850  -0.00556   0.00000  -0.00478  -0.00478   2.05371
   R11        2.05545  -0.00465   0.00000  -0.00400  -0.00400   2.05145
   R12        2.51729   0.06720   0.00000   0.18600   0.18596   2.70326
   R13        2.37350  -0.08350   0.00000  -0.06389  -0.06389   2.30961
    A1        1.87333  -0.01298   0.00000  -0.02128  -0.02272   1.85061
    A2        2.03443   0.01085   0.00000  -0.01171  -0.01248   2.02195
    A3        1.85173  -0.00111   0.00000   0.04205   0.04161   1.89334
    A4        2.03065   0.00424   0.00000  -0.02215  -0.02219   2.00846
    A5        1.86101   0.00340   0.00000   0.05449   0.05408   1.91509
    A6        1.79508  -0.00454   0.00000  -0.02571  -0.02477   1.77031
    A7        1.85687   0.00610   0.00000   0.01113   0.01208   1.86896
    A8        2.23662  -0.00873   0.00000  -0.01784  -0.01847   2.21815
    A9        2.13239   0.00446   0.00000   0.01419   0.01368   2.14607
   A10        1.85914   0.00770   0.00000   0.01225   0.01321   1.87235
   A11        2.19723  -0.00829   0.00000  -0.01412  -0.01467   2.18257
   A12        2.20891   0.00102   0.00000   0.00262   0.00220   2.21111
   A13        1.90722   0.00073   0.00000   0.00153   0.00130   1.90852
   A14        2.22012  -0.00241   0.00000  -0.00354  -0.00355   2.21656
   A15        2.12608   0.00245   0.00000   0.00670   0.00673   2.13281
   A16        1.91280  -0.00072   0.00000  -0.00144  -0.00170   1.91110
   A17        2.19565   0.00179   0.00000   0.00258   0.00266   2.19831
   A18        2.17068  -0.00076   0.00000   0.00032   0.00036   2.17104
   A19        2.74680  -0.00262   0.00000  -0.10079  -0.10079   2.64602
   A20        3.17459   0.00020   0.00000   0.04566   0.04499   3.21958
   A21        3.24616  -0.00129   0.00000   0.11198   0.11119   3.35734
    D1        0.14289  -0.00461   0.00000  -0.01043  -0.01088   0.13201
    D2        2.92737   0.00250   0.00000   0.01635   0.01574   2.94311
    D3        2.45582  -0.00153   0.00000  -0.07282  -0.07246   2.38336
    D4       -1.04289   0.00558   0.00000  -0.04603  -0.04583  -1.08872
    D5       -1.84168  -0.00210   0.00000  -0.08264  -0.08224  -1.92392
    D6        0.94280   0.00501   0.00000  -0.05586  -0.05561   0.88719
    D7       -0.05841   0.00239   0.00000   0.00452   0.00496  -0.05345
    D8        2.89112   0.00513   0.00000   0.00937   0.00977   2.90089
    D9       -2.37338  -0.00429   0.00000   0.06109   0.06072  -2.31266
   D10        0.57614  -0.00154   0.00000   0.06595   0.06553   0.64167
   D11        1.91990  -0.00325   0.00000   0.06839   0.06803   1.98793
   D12       -1.41376  -0.00051   0.00000   0.07324   0.07284  -1.34092
   D13        0.09111  -0.00775   0.00000   0.04072   0.04446   0.13557
   D14       -1.92164   0.00565   0.00000  -0.00675  -0.01101  -1.93265
   D15        2.22548   0.00168   0.00000   0.02199   0.02251   2.24799
   D16       -0.16738   0.00386   0.00000   0.01098   0.01130  -0.15608
   D17        2.71528   0.00764   0.00000   0.03213   0.03226   2.74753
   D18       -2.97818   0.00063   0.00000  -0.00579  -0.00587  -2.98405
   D19       -0.09553   0.00441   0.00000   0.01536   0.01509  -0.08044
   D20       -0.04123   0.00063   0.00000   0.00360   0.00330  -0.03792
   D21       -3.08923  -0.00286   0.00000  -0.01314  -0.01331  -3.10255
   D22       -2.98908  -0.00081   0.00000   0.00109   0.00077  -2.98831
   D23        0.24610  -0.00430   0.00000  -0.01566  -0.01584   0.23026
   D24        0.13815  -0.00355   0.00000  -0.01020  -0.01026   0.12790
   D25       -3.09539   0.00004   0.00000   0.00641   0.00620  -3.08920
   D26       -2.76107  -0.00625   0.00000  -0.02825  -0.02825  -2.78932
   D27        0.28857  -0.00266   0.00000  -0.01164  -0.01180   0.27677
         Item               Value     Threshold  Converged?
 Maximum Force            0.083504     0.000450     NO 
 RMS     Force            0.015426     0.000300     NO 
 Maximum Displacement     0.254487     0.001800     NO 
 RMS     Displacement     0.082183     0.001200     NO 
 Predicted change in Energy=-2.107505D-02
 GradGradGradGradGradGradGradGradGradGradGradGradGradGradGradGradGradGrad

                          Input orientation:                          
 ---------------------------------------------------------------------
 Center     Atomic      Atomic             Coordinates (Angstroms)
 Number     Number       Type             X           Y           Z
 ---------------------------------------------------------------------
      1          6           0       -0.286182    0.549902    0.060622
      2          6           0       -0.840729   -0.242711    1.181086
      3          6           0       -1.065807    0.163663   -1.139215
      4          6           0       -1.704566   -1.111535    0.656230
      5          6           0       -1.915718   -0.791000   -0.767965
      6          8           0       -0.182233    1.911041    0.278650
      7          1           0        0.837281    0.251612   -0.084932
      8          1           0       -0.422333   -0.355876    2.163992
      9          1           0       -1.065927    0.697335   -2.075434
     10          1           0       -2.037397   -2.048699    1.094449
     11          1           0       -2.608574   -1.315750   -1.418406
     12          8           0        2.251529    0.102953   -0.240296
     13          8           0        3.303297   -0.476070   -0.011659
 ---------------------------------------------------------------------
[...]
 Alpha virt. eigenvalues --    7.56134   7.98007   7.99781  23.93380  24.24970
 Alpha virt. eigenvalues --   24.53562  24.85526  24.91547  49.97689  50.08499
 Alpha virt. eigenvalues --   50.10956
  Beta  occ. eigenvalues --  -19.76649 -19.76571 -19.66198 -10.61254 -10.55418
  Beta  occ. eigenvalues --  -10.55368 -10.54921 -10.54912  -1.39472  -1.11447
  Beta  occ. eigenvalues --   -0.96571  -0.85798  -0.82130  -0.77289  -0.63641
  Beta  occ. eigenvalues --   -0.63302  -0.60310  -0.59775  -0.55413  -0.54806
  Beta  occ. eigenvalues --   -0.52112  -0.48459  -0.48013  -0.47403  -0.44075
  Beta  occ. eigenvalues --   -0.38887  -0.35173  -0.29421
  Beta virt. eigenvalues --   -0.08875  -0.05854  -0.05567  -0.01652   0.01642
  Beta virt. eigenvalues --    0.02701   0.03107   0.04522   0.04977   0.05905
  Beta virt. eigenvalues --    0.07508   0.08216   0.08519   0.10038   0.10413
  Beta virt. eigenvalues --    0.10550   0.12563   0.13782   0.14449   0.14627
  Beta virt. eigenvalues --    0.15456   0.16063   0.16150   0.18846   0.19737
  Beta virt. eigenvalues --    0.20258   0.20489   0.20994   0.21458   0.22663
  Beta virt. eigenvalues --    0.23600   0.24170   0.24693   0.25655   0.26711
  Beta virt. eigenvalues --    0.27028   0.28140   0.29874   0.30077   0.31215
  Beta virt. eigenvalues --    0.32660   0.33496   0.35679   0.36993   0.37881
  Beta virt. eigenvalues --    0.39919   0.40126   0.42030   0.46048   0.46652
  Beta virt. eigenvalues --    0.52120   0.54194   0.54499   0.55290   0.56218
  Beta virt. eigenvalues --    0.57790   0.58260   0.59473   0.60917   0.61755
  Beta virt. eigenvalues --    0.63272   0.63394   0.65188   0.68514   0.69196
  Beta virt. eigenvalues --    0.69330   0.70773   0.71419   0.72779   0.73115
  Beta virt. eigenvalues --    0.73965   0.75564   0.79496   0.80215   0.84181
  Beta virt. eigenvalues --    0.87550   0.90028   0.90464   0.94826   0.97625
  Beta virt. eigenvalues --    0.99452   1.02213   1.03265   1.03694   1.06259
  Beta virt. eigenvalues --    1.06484   1.07150   1.08836   1.09605   1.10907
  Beta virt. eigenvalues --    1.12485   1.14921   1.15814   1.16765   1.19232
  Beta virt. eigenvalues --    1.20153   1.21999   1.22523   1.26866   1.27944
  Beta virt. eigenvalues --    1.29073   1.29898   1.32660   1.33721   1.34645
  Beta virt. eigenvalues --    1.35475   1.36128   1.38501   1.39159   1.40020
  Beta virt. eigenvalues --    1.41167   1.43693   1.44377   1.44993   1.47115
  Beta virt. eigenvalues --    1.51126   1.51514   1.53419   1.56372   1.57752
  Beta virt. eigenvalues --    1.60224   1.63964   1.65733   1.66994   1.70955
  Beta virt. eigenvalues --    1.73357   1.77509   1.78206   1.78638   1.81333
  Beta virt. eigenvalues --    1.82825   1.88639   1.91779   1.93643   2.15351
  Beta virt. eigenvalues --    2.19211   2.31365   2.31553   2.32880   2.39511
  Beta virt. eigenvalues --    2.47298   2.50675   2.55848   2.58527   2.62886
  Beta virt. eigenvalues --    2.66729   2.70096   2.74548   2.75750   2.76421
  Beta virt. eigenvalues --    2.77891   2.79753   2.81436   2.82245   2.83225
  Beta virt. eigenvalues --    2.83988   2.89088   2.90546   2.91479   2.93180
  Beta virt. eigenvalues --    2.94352   2.94528   3.00265   3.04347   3.08771
  Beta virt. eigenvalues --    3.10456   3.15488   3.17386   3.19755   3.20269
  Beta virt. eigenvalues --    3.23599   3.25333   3.26804   3.30247   3.33741
  Beta virt. eigenvalues --    3.35402   3.37111   3.38736   3.39874   3.42426
  Beta virt. eigenvalues --    3.42816   3.44770   3.46583   3.50750   3.52882
  Beta virt. eigenvalues --    3.56282   3.56864   3.58098   3.61645   3.66718
  Beta virt. eigenvalues --    3.68161   3.69029   3.71235   3.73436   3.76664
  Beta virt. eigenvalues --    3.78276   3.78907   3.84553   3.85312   3.86543
  Beta virt. eigenvalues --    3.89451   3.95338   4.05105   4.07573   4.09838
  Beta virt. eigenvalues --    4.11492   4.14000   4.18394   4.24078   4.25328
  Beta virt. eigenvalues --    4.29973   4.33413   4.37061   4.38932   4.40485
  Beta virt. eigenvalues --    4.42599   4.47037   4.49327   4.51173   4.51583
  Beta virt. eigenvalues --    4.52228   4.54824   4.56020   4.57083   4.61741
  Beta virt. eigenvalues --    4.62084   4.71760   4.82455   4.83674   4.84993
  Beta virt. eigenvalues --    4.86077   4.88027   4.93287   4.99547   5.03529
  Beta virt. eigenvalues --    5.06143   5.06741   5.07979   5.08361   5.08508
  Beta virt. eigenvalues --    5.09566   5.11514   5.11588   5.13109   5.19373
  Beta virt. eigenvalues --    5.23482   5.24512   5.28039   5.29686   5.32439
  Beta virt. eigenvalues --    5.39992   5.47520   5.48045   5.49003   5.65268
  Beta virt. eigenvalues --    5.69837   5.69891   5.72255   5.80687   6.09162
  Beta virt. eigenvalues --    6.11901   6.29948   6.67432   6.68180   6.72740
  Beta virt. eigenvalues --    6.77923   6.78274   6.81406   6.82831   6.85613
  Beta virt. eigenvalues --    6.90990   6.92722   6.92915   6.94706   7.26282
  Beta virt. eigenvalues --    7.27515   7.27855   7.36550   7.60546   8.00112
  Beta virt. eigenvalues --    8.00816  23.93377  24.24975  24.53319  24.85545
  Beta virt. eigenvalues --   24.91565  49.96331  50.08110  50.09607
          Condensed to atoms (all electrons):
              1          2          3          4          5          6
     1  C    6.043998  -0.283942  -0.283083  -0.004292   0.046878   0.323749
     2  C   -0.283942   5.678530   0.098603   0.346053  -0.044757  -0.129668
     3  C   -0.283083   0.098603   5.644097  -0.007264   0.375430  -0.128067
     4  C   -0.004292   0.346053  -0.007264   5.235915   0.222865   0.012593
     5  C    0.046878  -0.044757   0.375430   0.222865   5.125114   0.007683
     6  O    0.323749  -0.129668  -0.128067   0.012593   0.007683   8.096972
     7  H    0.377277  -0.014323  -0.013476  -0.013260  -0.010174  -0.023813
     8  H   -0.002215   0.370583   0.005828   0.022741  -0.003815   0.002135
     9  H    0.000503   0.005375   0.364964  -0.003575   0.024716   0.002196
    10  H    0.006750   0.032942  -0.008415   0.339708   0.015219  -0.000272
    11  H    0.004418  -0.006130   0.033833   0.012791   0.342522  -0.000275
    12  O    0.006265   0.020733  -0.018085   0.010474  -0.005924  -0.000413
    13  O   -0.007703  -0.030207   0.028419   0.015278  -0.005487   0.000310
              7          8          9         10         11         12
     1  C    0.377277  -0.002215   0.000503   0.006750   0.004418   0.006265
     2  C   -0.014323   0.370583   0.005375   0.032942  -0.006130   0.020733
     3  C   -0.013476   0.005828   0.364964  -0.008415   0.033833  -0.018085
     4  C   -0.013260   0.022741  -0.003575   0.339708   0.012791   0.010474
     5  C   -0.010174  -0.003815   0.024716   0.015219   0.342522  -0.005924
     6  O   -0.023813   0.002135   0.002196  -0.000272  -0.000275  -0.000413
     7  H    0.524593  -0.000720  -0.000842  -0.000333  -0.000291   0.000851
     8  H   -0.000720   0.452338  -0.000005  -0.004318  -0.000033  -0.001472
     9  H   -0.000842  -0.000005   0.455687  -0.000038  -0.004334  -0.000025
    10  H   -0.000333  -0.004318  -0.000038   0.476509  -0.002307  -0.000321
    11  H   -0.000291  -0.000033  -0.004334  -0.002307   0.476935  -0.000085
    12  O    0.000851  -0.001472  -0.000025  -0.000321  -0.000085   7.647468
    13  O    0.001909   0.000154  -0.000807  -0.000162  -0.000625   0.326051
             13
     1  C   -0.007703
     2  C   -0.030207
     3  C    0.028419
     4  C    0.015278
     5  C   -0.005487
     6  O    0.000310
     7  H    0.001909
     8  H    0.000154
     9  H   -0.000807
    10  H   -0.000162
    11  H   -0.000625
    12  O    0.326051
    13  O    7.654951
 Mulliken atomic charges:
              1
     1  C   -0.228604
     2  C   -0.043792
     3  C   -0.092782
     4  C   -0.190028
     5  C   -0.090269
     6  O   -0.163130
     7  H    0.172603
     8  H    0.158799
     9  H    0.156185
    10  H    0.145037
    11  H    0.143580
    12  O    0.014482
    13  O    0.017918
 Sum of Mulliken atomic charges =   0.00000
 Mulliken charges with hydrogens summed into heavy atoms:
              1
     1  C   -0.056001
     2  C    0.115007
     3  C    0.063403
     4  C   -0.044991
     5  C    0.053311
     6  O   -0.163130
    12  O    0.014482
    13  O    0.017918
 Sum of Mulliken charges with hydrogens summed into heavy atoms =   0.00000
          Atomic-Atomic Spin Densities.
              1          2          3          4          5          6
     1  C    0.502871  -0.267807  -0.342964  -0.019357   0.108542  -0.048287
     2  C   -0.267807   0.144869   0.153713   0.011474  -0.024778   0.010916
     3  C   -0.342964   0.153713   0.323132   0.062840  -0.163097   0.012370
     4  C   -0.019357   0.011474   0.062840   0.039343  -0.084397  -0.001285
     5  C    0.108542  -0.024778  -0.163097  -0.084397   0.165259  -0.003157
     6  O   -0.048287   0.010916   0.012370  -0.001285  -0.003157   0.939049
     7  H    0.100290  -0.041706  -0.044976   0.001365   0.005162  -0.028235
     8  H    0.002143  -0.004927   0.000386   0.003495  -0.000602   0.000364
     9  H    0.003231   0.000024  -0.007496  -0.001110   0.005493   0.000370
    10  H   -0.002246   0.000331   0.000687   0.001070   0.000229  -0.000059
    11  H   -0.004351   0.001619   0.005814   0.002546  -0.006176  -0.000043
    12  O   -0.003669   0.017135  -0.001090  -0.015956   0.004377  -0.000545
    13  O   -0.020975   0.011175   0.015185  -0.006692  -0.000092  -0.000091
              7          8          9         10         11         12
     1  C    0.100290   0.002143   0.003231  -0.002246  -0.004351  -0.003669
     2  C   -0.041706  -0.004927   0.000024   0.000331   0.001619   0.017135
     3  C   -0.044976   0.000386  -0.007496   0.000687   0.005814  -0.001090
     4  C    0.001365   0.003495  -0.001110   0.001070   0.002546  -0.015956
     5  C    0.005162  -0.000602   0.005493   0.000229  -0.006176   0.004377
     6  O   -0.028235   0.000364   0.000370  -0.000059  -0.000043  -0.000545
     7  H    0.105427  -0.000615  -0.000628  -0.000142  -0.000128  -0.001404
     8  H   -0.000615   0.000570  -0.000005   0.000073   0.000003  -0.000837
     9  H   -0.000628  -0.000005  -0.000512   0.000008   0.000048   0.000206
    10  H   -0.000142   0.000073   0.000008   0.001762   0.000084  -0.000412
    11  H   -0.000128   0.000003   0.000048   0.000084   0.002798   0.000205
    12  O   -0.001404  -0.000837   0.000206  -0.000412   0.000205   1.431643
    13  O   -0.000301   0.000353  -0.000454   0.000236  -0.000601  -0.436577
             13
     1  C   -0.020975
     2  C    0.011175
     3  C    0.015185
     4  C   -0.006692
     5  C   -0.000092
     6  O   -0.000091
     7  H   -0.000301
     8  H    0.000353
     9  H   -0.000454
    10  H    0.000236
    11  H   -0.000601
    12  O   -0.436577
    13  O    1.433213
 Mulliken atomic spin densities:
              1
     1  C    0.007420
     2  C    0.012038
     3  C    0.014504
     4  C   -0.006664
     5  C    0.006763
     6  O    0.881366
     7  H    0.094106
     8  H    0.000400
     9  H   -0.000825
    10  H    0.001621
    11  H    0.001817
    12  O    0.993077
    13  O    0.994377
 Sum of Mulliken atomic spin densities =   3.00000
 Electronic spatial extent (au):  <R**2>=            968.5119
 Charge=              0.0000 electrons
 Dipole moment (field-independent basis, Debye):
    X=             -1.7842    Y=              1.1116    Z=              0.0186  Tot=              2.1022
 Quadrupole moment (field-independent basis, Debye-Ang):
   XX=            -52.4255   YY=            -43.9259   ZZ=            -42.9155
   XY=              2.3059   XZ=             -0.3032   YZ=              0.0498
 Traceless Quadrupole moment (field-independent basis, Debye-Ang):
   XX=             -6.0032   YY=              2.4964   ZZ=              3.5068
   XY=              2.3059   XZ=             -0.3032   YZ=              0.0498
 Octapole moment (field-independent basis, Debye-Ang**2):
  XXX=            -31.3082  YYY=             -1.8104  ZZZ=             -0.7721  XYY=            -13.9337
  XXY=              2.9513  XXZ=             -0.6340  XZZ=             -2.6184  YZZ=             -2.1077
  YYZ=             -0.5244  XYZ=             -1.6824
 Hexadecapole moment (field-independent basis, Debye-Ang**3):
 XXXX=           -636.2650 YYYY=           -308.8712 ZZZZ=           -221.9224 XXXY=             18.7010
 XXXZ=              3.3623 YYYX=              4.3803 YYYZ=              0.5197 ZZZX=             -2.8824
 ZZZY=             -2.1984 XXYY=           -176.3024 XXZZ=           -147.6568 YYZZ=            -90.1844
 XXYZ=             -0.2058 YYXZ=              0.4652 ZZXY=             -1.9630
 N-N= 3.383046144411D+02 E-N=-2.458715829987D+03  KE= 6.215413549133D+02
                          Isotropic Fermi Contact Couplings
        Atom                 a.u.       MegaHertz       Gauss      10(-4) cm-1
     1  C(13)             -0.03308     -12.39697      -4.42355      -4.13518
     2  C(13)              0.01656       6.20592       2.21443       2.07007
     3  C(13)              0.01803       6.75754       2.41126       2.25407
     4  C(13)              0.00379       1.41927       0.50643       0.47342
     5  C(13)              0.00420       1.57224       0.56101       0.52444
     6  O(17)              0.13226     -26.72581      -9.53643      -8.91477
     7  H(1)               0.05369      79.99792      28.54525      26.68444
     8  H(1)              -0.00028      -0.42390      -0.15126      -0.14140
     9  H(1)              -0.00044      -0.66303      -0.23658      -0.22116
    10  H(1)               0.00111       1.65999       0.59233       0.55371
    11  H(1)               0.00115       1.71566       0.61219       0.57228
    12  O(17)              0.18686     -37.75706     -13.47266     -12.59440
    13  O(17)              0.18457     -37.29614     -13.30819     -12.44065
 --------------------------------------------------------
       Center         ----  Spin Dipole Couplings  ----
                      3XX-RR        3YY-RR        3ZZ-RR
 --------------------------------------------------------
     1   Atom        0.035919      0.017711     -0.053630
     2   Atom        0.009795     -0.012235      0.002440
     3   Atom        0.012880      0.000540     -0.013420
     4   Atom        0.006718      0.001711     -0.008429
     5   Atom        0.005003      0.004784     -0.009787
     6   Atom        0.026551      1.584053     -1.610603
     7   Atom        0.047026     -0.017857     -0.029169
     8   Atom        0.002324     -0.009655      0.007332
     9   Atom        0.000970     -0.005955      0.004985
    10   Atom       -0.000885      0.003772     -0.002887
    11   Atom       -0.000373      0.006095     -0.005721
    12   Atom        1.275190      0.863625     -2.138815
    13   Atom        1.279278      0.866347     -2.145625
 --------------------------------------------------------
                        XY            XZ            YZ
 --------------------------------------------------------
     1   Atom       -0.009534      0.004347      0.009728
     2   Atom       -0.011422     -0.014153      0.025781
     3   Atom       -0.007809      0.011791     -0.027958
     4   Atom        0.001612     -0.000413      0.005870
     5   Atom        0.000578      0.001450     -0.003039
     6   Atom        2.457690      0.493869      0.673298
     7   Atom       -0.007375      0.001606      0.001584
     8   Atom       -0.001602      0.001706      0.003981
     9   Atom       -0.000641     -0.002434     -0.007738
    10   Atom        0.003972      0.002800      0.006252
    11   Atom        0.004626     -0.001414     -0.003254
    12   Atom       -0.037507      0.112243      1.198308
    13   Atom       -0.048449      0.111055      1.190500
 --------------------------------------------------------


 ---------------------------------------------------------------------------------
              Anisotropic Spin Dipole Couplings in Principal Axis System
 ---------------------------------------------------------------------------------

       Atom             a.u.   MegaHertz   Gauss  10(-4) cm-1        Axes

              Baa    -0.0553    -7.418    -2.647    -2.474 -0.0617 -0.1398  0.9883
     1 C(13)  Bbb     0.0153     2.050     0.732     0.684  0.3877  0.9090  0.1528
              Bcc     0.0400     5.367     1.915     1.790  0.9197 -0.3926  0.0019
 
              Baa    -0.0317    -4.255    -1.518    -1.419  0.0166  0.8013 -0.5980
     2 C(13)  Bbb    -0.0033    -0.443    -0.158    -0.148  0.8110  0.3390  0.4768
              Bcc     0.0350     4.698     1.676     1.567 -0.5848  0.4929  0.6442
 
              Baa    -0.0357    -4.790    -1.709    -1.598 -0.0981  0.5945  0.7980
     3 C(13)  Bbb     0.0037     0.502     0.179     0.167  0.8081  0.5156 -0.2848
              Bcc     0.0320     4.288     1.530     1.430 -0.5808  0.6170 -0.5311
 
              Baa    -0.0112    -1.500    -0.535    -0.500  0.0587 -0.4198  0.9057
     4 C(13)  Bbb     0.0038     0.514     0.183     0.172 -0.4004  0.8212  0.4066
              Bcc     0.0073     0.986     0.352     0.329  0.9144  0.3866  0.1199
 
              Baa    -0.0105    -1.415    -0.505    -0.472 -0.0983  0.1971  0.9754
     5 C(13)  Bbb     0.0050     0.667     0.238     0.222  0.8294 -0.5255  0.1897
              Bcc     0.0056     0.749     0.267     0.250  0.5500  0.8277 -0.1118
 
              Baa    -1.7728   128.281    45.774    42.790  0.8092 -0.5869 -0.0275
     6 O(17)  Bbb    -1.7465   126.375    45.094    42.154 -0.0724 -0.1461  0.9866
              Bcc     3.5193  -254.657   -90.868   -84.944  0.5831  0.7964  0.1607
 
              Baa    -0.0295   -15.729    -5.612    -5.247 -0.0359 -0.1573  0.9869
     7 H(1)   Bbb    -0.0184    -9.817    -3.503    -3.275  0.1067  0.9813  0.1603
              Bcc     0.0479    25.546     9.116     8.521  0.9936 -0.1110  0.0184
 
              Baa    -0.0108    -5.778    -2.062    -1.927  0.1465  0.9633 -0.2249
     8 H(1)   Bbb     0.0023     1.238     0.442     0.413  0.9656 -0.1886 -0.1788
              Bcc     0.0085     4.539     1.620     1.514  0.2147  0.1910  0.9578
 
              Baa    -0.0102    -5.453    -1.946    -1.819  0.1516  0.8709  0.4675
     9 H(1)   Bbb     0.0008     0.431     0.154     0.144  0.9637 -0.2353  0.1259
              Bcc     0.0094     5.021     1.792     1.675 -0.2196 -0.4315  0.8750
 
              Baa    -0.0067    -3.559    -1.270    -1.187 -0.0857 -0.4876  0.8689
    10 H(1)   Bbb    -0.0031    -1.636    -0.584    -0.546  0.9056 -0.4016 -0.1361
              Bcc     0.0097     5.196     1.854     1.733  0.4153  0.7752  0.4760
 
              Baa    -0.0066    -3.505    -1.251    -1.169  0.0487  0.2318  0.9715
    11 H(1)   Bbb    -0.0028    -1.477    -0.527    -0.493  0.8939 -0.4441  0.0612
              Bcc     0.0093     4.982     1.778     1.662  0.4456  0.8655 -0.2289
 
              Baa    -2.5621   185.390    66.152    61.840 -0.0308 -0.3303  0.9434
    12 O(17)  Bbb     1.2783   -92.494   -33.004   -30.853  0.9461 -0.3140 -0.0791
              Bcc     1.2838   -92.896   -33.148   -30.987  0.3224  0.8901  0.3222
 
              Baa    -2.5631   185.468    66.179    61.865 -0.0314 -0.3282  0.9441
    13 O(17)  Bbb     1.2721   -92.052   -32.846   -30.705  0.6479  0.7125  0.2692
              Bcc     1.2910   -93.416   -33.333   -31.160  0.7610 -0.6202 -0.1902
 

 ---------------------------------------------------------------------------------



 THOSE WITH THE GOLD MAKE THE RULES.

             -- PETER'S GOLDEN RULE
 Error termination request processed by link 9999.
 Error termination via Lnk1e in /shared/apps/gaussian/G09_LINUX_LINDA/g09/l9999.exe at Sun Aug 20 19:43:24 2017.
 Job cpu time:  3 days 11 hours 58 minutes 49.7 seconds.
 File lengths (MBytes):  RWF=   2544 Int=      0 D2E=      0 Chk=     32 Scr=     32
