 Entering Gaussian System, Link 0=/shared/apps/gaussian/G09_LINUX_LINDA/g09/g09
 Input=/gss_gpfs_scratch/harms.n/QMscratch/[O]CCC=O+[O][O]_[O]C[CH]C=O+[O]ORxnC.gjf
 Output=/gss_gpfs_scratch/harms.n/QMscratch/[O]CCC=O+[O][O]_[O]C[CH]C=O+[O]ORxnC.log
 Initial command:
 /shared/apps/gaussian/G09_LINUX_LINDA/g09/l1.exe /gss_gpfs_scratch/harms.n/comparerTST/Gau-17988.inp -scrdir=/gss_gpfs_scratch/harms.n/comparerTST/
 Entering Link 1 = /shared/apps/gaussian/G09_LINUX_LINDA/g09/l1.exe PID=     17989.
  
 Copyright (c) 1988,1990,1992,1993,1995,1998,2003,2009,2010,
            Gaussian, Inc.  All Rights Reserved.
  
 This is part of the Gaussian(R) 09 program.  It is based on
 the Gaussian(R) 03 system (copyright 2003, Gaussian, Inc.),
 the Gaussian(R) 98 system (copyright 1998, Gaussian, Inc.),
 the Gaussian(R) 94 system (copyright 1995, Gaussian, Inc.),
 the Gaussian 92(TM) system (copyright 1992, Gaussian, Inc.),
 the Gaussian 90(TM) system (copyright 1990, Gaussian, Inc.),
 the Gaussian 88(TM) system (copyright 1988, Gaussian, Inc.),
 the Gaussian 86(TM) system (copyright 1986, Carnegie Mellon
 University), and the Gaussian 82(TM) system (copyright 1983,
 Carnegie Mellon University). Gaussian is a federally registered
 trademark of Gaussian, Inc.
  
 This software contains proprietary and confidential information,
 including trade secrets, belonging to Gaussian, Inc.
  
 This software is provided under written license and may be
 used, copied, transmitted, or stored only in accord with that
 written license.
  
 The following legend is applicable only to US Government
 contracts under FAR:
  
                    RESTRICTED RIGHTS LEGEND
  
 Use, reproduction and disclosure by the US Government is
 subject to restrictions as set forth in subparagraphs (a)
 and (c) of the Commercial Computer Software - Restricted
 Rights clause in FAR 52.227-19.
  
 Gaussian, Inc.
 340 Quinnipiac St., Bldg. 40, Wallingford CT 06492
  
  
 ---------------------------------------------------------------
 Warning -- This program may not be used in any manner that
 competes with the business of Gaussian, Inc. or will provide
 assistance to any competitor of Gaussian, Inc.  The licensee
 of this program is prohibited from giving any competitor of
 Gaussian, Inc. access to this program.  By using this program,
 the user acknowledges that Gaussian, Inc. is engaged in the
 business of creating and licensing software in the field of
 computational chemistry and represents and warrants to the
 licensee that it is not a competitor of Gaussian, Inc. and that
 it will not use this program in any manner prohibited above.
 ---------------------------------------------------------------
  

 Cite this work as:
 Gaussian 09, Revision B.01,
 M. J. Frisch, G. W. Trucks, H. B. Schlegel, G. E. Scuseria, 
 M. A. Robb, J. R. Cheeseman, G. Scalmani, V. Barone, B. Mennucci, 
 G. A. Petersson, H. Nakatsuji, M. Caricato, X. Li, H. P. Hratchian, 
 A. F. Izmaylov, J. Bloino, G. Zheng, J. L. Sonnenberg, M. Hada, 
 M. Ehara, K. Toyota, R. Fukuda, J. Hasegawa, M. Ishida, T. Nakajima, 
 Y. Honda, O. Kitao, H. Nakai, T. Vreven, J. A. Montgomery, Jr., 
 J. E. Peralta, F. Ogliaro, M. Bearpark, J. J. Heyd, E. Brothers, 
 K. N. Kudin, V. N. Staroverov, T. Keith, R. Kobayashi, J. Normand, 
 K. Raghavachari, A. Rendell, J. C. Burant, S. S. Iyengar, J. Tomasi, 
 M. Cossi, N. Rega, J. M. Millam, M. Klene, J. E. Knox, J. B. Cross, 
 V. Bakken, C. Adamo, J. Jaramillo, R. Gomperts, R. E. Stratmann, 
 O. Yazyev, A. J. Austin, R. Cammi, C. Pomelli, J. W. Ochterski, 
 R. L. Martin, K. Morokuma, V. G. Zakrzewski, G. A. Voth, 
 P. Salvador, J. J. Dannenberg, S. Dapprich, A. D. Daniels, 
 O. Farkas, J. B. Foresman, J. V. Ortiz, J. Cioslowski, 
 and D. J. Fox, Gaussian, Inc., Wallingford CT, 2010.
 
 ******************************************
 Gaussian 09:  EM64L-G09RevB.01 12-Aug-2010
                18-Aug-2017 
 ******************************************
 %nprocshared=20
 Will use up to   20 processors via shared memory.
 %mem=5GB
 ---------------------------------------------------
 # m062x/6-311+g(2df,2p) opt=(ts,calcfc,noeigentest)
 ---------------------------------------------------
 1/5=1,10=4,11=1,14=-1,18=20,26=3,38=1/1,3;
 2/9=110,12=2,17=6,18=5,40=1/2;
 3/5=4,6=6,7=214,11=2,16=1,25=1,30=1,71=2,74=-55/1,2,3;
 4//1;
 5/5=2,38=5/2;
 8/6=4,10=90,11=11/1;
 11/6=1,8=1,9=11,15=111,16=1/1,2,10;
 10/6=1,7=6,13=1/2;
 6/7=2,8=2,9=2,10=2,28=1/1;
 7/10=1,18=20,25=1/1,2,3,16;
 1/5=1,10=4,11=1,14=-1,18=20/3(2);
 2/9=110/2;
 99//99;
 2/9=110/2;
 3/5=4,6=6,7=214,11=2,16=1,25=1,30=1,71=1,74=-55/1,2,3;
 4/5=5,16=3/1;
 5/5=2,38=5/2;
 7//1,2,3,16;
 1/5=1,11=1,14=-1,18=20/3(-5);
 2/9=110/2;
 6/7=2,8=2,9=2,10=2,19=2,28=1/1;
 99/9=1/99;
 --------------------------------
 [O]CCC=O+[O][O]_[O]C[CH]C=O+[O]O
 --------------------------------
 Symbolic Z-matrix:
 Charge =  0 Multiplicity = 4
 C                    -0.65653   0.05824  -0.31574 
 C                    -1.04929   1.40569   0.21785 
 C                    -1.36106  -1.02908   0.36009 
 H                     0.57141  -0.06277   0.04481 
 H                    -0.59087  -0.0086   -1.40192 
 O                    -0.20049   2.42656  -0.17066 
 H                    -2.03008   1.61048  -0.22527 
 H                    -1.12193   1.31735   1.31909 
 O                    -1.82447  -1.98397  -0.2606 
 H                    -1.09154  -1.24718   1.39716 
 O                     1.81256  -0.26933   0.15997 
 O                     3.04544  -0.70056  -0.06711 
 

 GradGradGradGradGradGradGradGradGradGradGradGradGradGradGradGradGradGrad
 Berny optimization.
 Initialization pass.
                           ----------------------------
                           !    Initial Parameters    !
                           ! (Angstroms and Degrees)  !
 --------------------------                            --------------------------
 ! Name  Definition              Value          Derivative Info.                !
 --------------------------------------------------------------------------------
 ! R1    R(1,2)                  1.5015         calculate D2E/DX2 analytically  !
 ! R2    R(1,3)                  1.4613         calculate D2E/DX2 analytically  !
 ! R3    R(1,4)                  1.2855         calculate D2E/DX2 analytically  !
 ! R4    R(1,5)                  1.0902         calculate D2E/DX2 analytically  !
 ! R5    R(2,6)                  1.3833         calculate D2E/DX2 analytically  !
 ! R6    R(2,7)                  1.0956         calculate D2E/DX2 analytically  !
 ! R7    R(2,8)                  1.1072         calculate D2E/DX2 analytically  !
 ! R8    R(3,9)                  1.2296         calculate D2E/DX2 analytically  !
 ! R9    R(3,10)                 1.0935         calculate D2E/DX2 analytically  !
 ! R10   R(4,11)                 1.2635         calculate D2E/DX2 analytically  !
 ! R11   R(11,12)                1.3257         calculate D2E/DX2 analytically  !
 ! A1    A(2,1,3)              112.1643         calculate D2E/DX2 analytically  !
 ! A2    A(2,1,4)              103.5724         calculate D2E/DX2 analytically  !
 ! A3    A(2,1,5)              115.1394         calculate D2E/DX2 analytically  !
 ! A4    A(3,1,4)              105.1164         calculate D2E/DX2 analytically  !
 ! A5    A(3,1,5)              116.3715         calculate D2E/DX2 analytically  !
 ! A6    A(4,1,5)              102.4822         calculate D2E/DX2 analytically  !
 ! A7    A(1,2,6)              113.6999         calculate D2E/DX2 analytically  !
 ! A8    A(1,2,7)              104.9623         calculate D2E/DX2 analytically  !
 ! A9    A(1,2,8)              107.3993         calculate D2E/DX2 analytically  !
 ! A10   A(6,2,7)              107.3239         calculate D2E/DX2 analytically  !
 ! A11   A(6,2,8)              112.2398         calculate D2E/DX2 analytically  !
 ! A12   A(7,2,8)              111.0074         calculate D2E/DX2 analytically  !
 ! A13   A(1,3,9)              121.7432         calculate D2E/DX2 analytically  !
 ! A14   A(1,3,10)             117.9171         calculate D2E/DX2 analytically  !
 ! A15   A(9,3,10)             114.6301         calculate D2E/DX2 analytically  !
 ! A16   A(1,4,11)             168.3235         calculate D2E/DX2 analytically  !
 ! A17   A(4,11,12)            162.0086         calculate D2E/DX2 analytically  !
 ! D1    D(3,1,2,6)            166.1101         calculate D2E/DX2 analytically  !
 ! D2    D(3,1,2,7)            -76.8943         calculate D2E/DX2 analytically  !
 ! D3    D(3,1,2,8)             41.3095         calculate D2E/DX2 analytically  !
 ! D4    D(4,1,2,6)             53.2786         calculate D2E/DX2 analytically  !
 ! D5    D(4,1,2,7)            170.2742         calculate D2E/DX2 analytically  !
 ! D6    D(4,1,2,8)            -71.522          calculate D2E/DX2 analytically  !
 ! D7    D(5,1,2,6)            -57.7541         calculate D2E/DX2 analytically  !
 ! D8    D(5,1,2,7)             59.2416         calculate D2E/DX2 analytically  !
 ! D9    D(5,1,2,8)            177.4453         calculate D2E/DX2 analytically  !
 ! D10   D(2,1,3,9)            137.3469         calculate D2E/DX2 analytically  !
 ! D11   D(2,1,3,10)           -70.7194         calculate D2E/DX2 analytically  !
 ! D12   D(4,1,3,9)           -110.7819         calculate D2E/DX2 analytically  !
 ! D13   D(4,1,3,10)            41.1518         calculate D2E/DX2 analytically  !
 ! D14   D(5,1,3,9)              1.7882         calculate D2E/DX2 analytically  !
 ! D15   D(5,1,3,10)           153.7219         calculate D2E/DX2 analytically  !
 ! D16   D(2,1,4,11)          -135.9702         calculate D2E/DX2 analytically  !
 ! D17   D(3,1,4,11)           106.1755         calculate D2E/DX2 analytically  !
 ! D18   D(5,1,4,11)           -15.9008         calculate D2E/DX2 analytically  !
 ! D19   D(1,4,11,12)          -14.5763         calculate D2E/DX2 analytically  !
 --------------------------------------------------------------------------------
 Trust Radius=3.00D-01 FncErr=1.00D-07 GrdErr=1.00D-06
 Number of steps in this run=     57 maximum allowed number of steps=    100.
 Search for a saddle point of order  1.
 GradGradGradGradGradGradGradGradGradGradGradGradGradGradGradGradGradGrad

                          Input orientation:                          
 ---------------------------------------------------------------------
 Center     Atomic      Atomic             Coordinates (Angstroms)
 Number     Number       Type             X           Y           Z
 ---------------------------------------------------------------------
      1          6           0       -0.656530    0.058244   -0.315738
      2          6           0       -1.049291    1.405685    0.217852
      3          6           0       -1.361063   -1.029083    0.360086
      4          1           0        0.571406   -0.062773    0.044811
      5          1           0       -0.590869   -0.008596   -1.401915
      6          8           0       -0.200485    2.426557   -0.170657
      7          1           0       -2.030084    1.610476   -0.225273
      8          1           0       -1.121929    1.317352    1.319094
      9          8           0       -1.824474   -1.983967   -0.260596
     10          1           0       -1.091543   -1.247179    1.397158
     11          8           0        1.812561   -0.269325    0.159973
     12          8           0        3.045439   -0.700560   -0.067105
 ---------------------------------------------------------------------
                    Distance matrix (angstroms):
                    1          2          3          4          5
     1  C    0.000000
     2  C    1.501525   0.000000
     3  C    1.461296   2.458765   0.000000
     4  H    1.285483   2.193848   2.183481   0.000000
     5  H    1.090211   2.198633   2.176980   1.856565   0.000000
     6  O    2.416181   1.383326   3.683759   2.615149   2.756513
     7  H    2.074671   1.095561   2.785230   3.104909   2.465202
     8  H    2.115331   1.107164   2.546103   2.529017   3.073118
     9  O    2.353244   3.509923   1.229553   3.086179   2.593546
    10  H    2.197130   2.903487   1.093492   2.448889   3.101543
    11  O    2.535747   3.316505   3.269429   1.263484   2.878185
    12  O    3.787107   4.613489   4.439333   2.557369   3.934878
                    6          7          8          9         10
     6  O    0.000000
     7  H    2.004097   0.000000
     8  H    2.073343   1.815416   0.000000
     9  O    4.700867   3.600492   3.726620   0.000000
    10  H    4.092477   3.417504   2.565899   1.956577   0.000000
    11  O    3.380747   4.295112   3.531620   4.042883   3.304640
    12  O    4.508393   5.579143   4.833267   5.039903   4.422384
                   11         12
    11  O    0.000000
    12  O    1.325713   0.000000
 Stoichiometry    C3H5O4(4)
 Framework group  C1[X(C3H5O4)]
 Deg. of freedom    30
 Full point group                 C1      NOp   1
 Largest Abelian subgroup         C1      NOp   1
 Largest concise Abelian subgroup C1      NOp   1
                         Standard orientation:                         
 ---------------------------------------------------------------------
 Center     Atomic      Atomic             Coordinates (Angstroms)
 Number     Number       Type             X           Y           Z
 ---------------------------------------------------------------------
      1          6           0       -0.656530    0.058244   -0.315738
      2          6           0       -1.049291    1.405685    0.217852
      3          6           0       -1.361063   -1.029083    0.360086
      4          1           0        0.571406   -0.062773    0.044811
      5          1           0       -0.590869   -0.008596   -1.401915
      6          8           0       -0.200484    2.426557   -0.170657
      7          1           0       -2.030084    1.610477   -0.225273
      8          1           0       -1.121929    1.317352    1.319094
      9          8           0       -1.824475   -1.983966   -0.260596
     10          1           0       -1.091543   -1.247179    1.397158
     11          8           0        1.812561   -0.269325    0.159973
     12          8           0        3.045439   -0.700561   -0.067105
 ---------------------------------------------------------------------
 Rotational constants (GHZ):      2.3026097      1.6107401      0.9888798
 Standard basis: 6-311+G(2df,2p) (5D, 7F)
 There are   283 symmetry adapted basis functions of A   symmetry.
 Integral buffers will be    131072 words long.
 Raffenetti 2 integral format.
 Two-electron integral symmetry is turned on.
   283 basis functions,   419 primitive gaussians,   318 cartesian basis functions
    29 alpha electrons       26 beta electrons
       nuclear repulsion energy       276.0240591654 Hartrees.
 NAtoms=   12 NActive=   12 NUniq=   12 SFac= 1.00D+00 NAtFMM=   50 NAOKFM=F Big=F
 One-electron integrals computed using PRISM.
 NBasis=   283 RedAO= T  NBF=   283
 NBsUse=   283 1.00D-06 NBFU=   283
 Harris functional with IExCor= 1009 diagonalized for initial guess.
 ExpMin= 4.38D-02 ExpMax= 8.59D+03 ExpMxC= 1.30D+03 IAcc=2 IRadAn=         0 AccDes= 0.00D+00
 HarFok:  IExCor= 1009 AccDes= 0.00D+00 IRadAn=         0 IDoV= 1
 ScaDFX=  1.000000  1.000000  1.000000  1.000000
 FoFCou: FMM=F IPFlag=           0 FMFlag=      100000 FMFlg1=           0
         NFxFlg=           0 DoJE=T BraDBF=F KetDBF=T FulRan=T
         Omega=  0.000000  0.000000  1.000000  0.000000  0.000000 ICntrl=     500 IOpCl=  0
         NMat0=    1 NMatS0=    1 NMatT0=    0 NMatD0=    1 NMtDS0=    0 NMtDT0=    0
         I1Cent=           4 NGrid=           0.
 Petite list used in FoFCou.
 Initial guess orbital symmetries:
 Alpha Orbitals:
       Occupied  (A) (A) (A) (A) (A) (A) (A) (A) (A) (A) (A) (A)
                 (A) (A) (A) (A) (A) (A) (A) (A) (A) (A) (A) (A)
                 (A) (A) (A) (A) (A)
       Virtual   (A) (A) (A) (A) (A) (A) (A) (A) (A) (A) (A) (A)
                 (A) (A) (A) (A) (A) (A) (A) (A) (A) (A) (A) (A)
                 (A) (A) (A) (A) (A) (A) (A) (A) (A) (A) (A) (A)
                 (A) (A) (A) (A) (A) (A) (A) (A) (A) (A) (A) (A)
                 (A) (A) (A) (A) (A) (A) (A) (A) (A) (A) (A) (A)
                 (A) (A) (A) (A) (A) (A) (A) (A) (A) (A) (A) (A)
                 (A) (A) (A) (A) (A) (A) (A) (A) (A) (A) (A) (A)
                 (A) (A) (A) (A) (A) (A) (A) (A) (A) (A) (A) (A)
                 (A) (A) (A) (A) (A) (A) (A) (A) (A) (A) (A) (A)
                 (A) (A) (A) (A) (A) (A) (A) (A) (A) (A) (A) (A)
                 (A) (A) (A) (A) (A) (A) (A) (A) (A) (A) (A) (A)
                 (A) (A) (A) (A) (A) (A) (A) (A) (A) (A) (A) (A)
                 (A) (A) (A) (A) (A) (A) (A) (A) (A) (A) (A) (A)
                 (A) (A) (A) (A) (A) (A) (A) (A) (A) (A) (A) (A)
                 (A) (A) (A) (A) (A) (A) (A) (A) (A) (A) (A) (A)
                 (A) (A) (A) (A) (A) (A) (A) (A) (A) (A) (A) (A)
                 (A) (A) (A) (A) (A) (A) (A) (A) (A) (A) (A) (A)
                 (A) (A) (A) (A) (A) (A) (A) (A) (A) (A) (A) (A)
                 (A) (A) (A) (A) (A) (A) (A) (A) (A) (A) (A) (A)
                 (A) (A) (A) (A) (A) (A) (A) (A) (A) (A) (A) (A)
                 (A) (A) (A) (A) (A) (A) (A) (A) (A) (A) (A) (A)
                 (A) (A)
 Beta  Orbitals:
       Occupied  (A) (A) (A) (A) (A) (A) (A) (A) (A) (A) (A) (A)
                 (A) (A) (A) (A) (A) (A) (A) (A) (A) (A) (A) (A)
                 (A) (A)
       Virtual   (A) (A) (A) (A) (A) (A) (A) (A) (A) (A) (A) (A)
                 (A) (A) (A) (A) (A) (A) (A) (A) (A) (A) (A) (A)
                 (A) (A) (A) (A) (A) (A) (A) (A) (A) (A) (A) (A)
                 (A) (A) (A) (A) (A) (A) (A) (A) (A) (A) (A) (A)
                 (A) (A) (A) (A) (A) (A) (A) (A) (A) (A) (A) (A)
                 (A) (A) (A) (A) (A) (A) (A) (A) (A) (A) (A) (A)
                 (A) (A) (A) (A) (A) (A) (A) (A) (A) (A) (A) (A)
                 (A) (A) (A) (A) (A) (A) (A) (A) (A) (A) (A) (A)
                 (A) (A) (A) (A) (A) (A) (A) (A) (A) (A) (A) (A)
                 (A) (A) (A) (A) (A) (A) (A) (A) (A) (A) (A) (A)
                 (A) (A) (A) (A) (A) (A) (A) (A) (A) (A) (A) (A)
                 (A) (A) (A) (A) (A) (A) (A) (A) (A) (A) (A) (A)
                 (A) (A) (A) (A) (A) (A) (A) (A) (A) (A) (A) (A)
                 (A) (A) (A) (A) (A) (A) (A) (A) (A) (A) (A) (A)
                 (A) (A) (A) (A) (A) (A) (A) (A) (A) (A) (A) (A)
                 (A) (A) (A) (A) (A) (A) (A) (A) (A) (A) (A) (A)
                 (A) (A) (A) (A) (A) (A) (A) (A) (A) (A) (A) (A)
                 (A) (A) (A) (A) (A) (A) (A) (A) (A) (A) (A) (A)
                 (A) (A) (A) (A) (A) (A) (A) (A) (A) (A) (A) (A)
                 (A) (A) (A) (A) (A) (A) (A) (A) (A) (A) (A) (A)
                 (A) (A) (A) (A) (A) (A) (A) (A) (A) (A) (A) (A)
                 (A) (A) (A) (A) (A)
 The electronic state of the initial guess is 4-A.
 Initial guess <Sx>= 0.0000 <Sy>= 0.0000 <Sz>= 1.5000 <S**2>= 3.7500 S= 1.5000
 Requested convergence on RMS density matrix=1.00D-08 within 128 cycles.
 Requested convergence on MAX density matrix=1.00D-06.
 Requested convergence on             energy=1.00D-06.
 No special actions if energy rises.
 Restarting incremental Fock formation.
 Restarting incremental Fock formation.
 SCF Done:  E(UM062X) =  -417.871948707     A.U. after   42 cycles
             Convg  =    0.1928D-08             -V/T =  2.0034
 <Sx>= 0.0000 <Sy>= 0.0000 <Sz>= 1.5000 <S**2>= 3.7704 S= 1.5051
 <L.S>= 0.000000000000E+00
 Annihilation of the first spin contaminant:
 S**2 before annihilation     3.7704,   after     3.7502
 Range of M.O.s used for correlation:     1   283
 NBasis=   283 NAE=    29 NBE=    26 NFC=     0 NFV=     0
 NROrb=    283 NOA=    29 NOB=    26 NVA=   254 NVB=   257

 **** Warning!!: The largest alpha MO coefficient is  0.49525343D+02


 **** Warning!!: The largest beta MO coefficient is  0.55208170D+02

 Symmetrizing basis deriv contribution to polar:
 IMax=3 JMax=2 DiffMx= 0.00D+00
 G2DrvN: will do    13 centers at a time, making    1 passes doing MaxLOS=3.
 Calling FoFCou, ICntrl=  3107 FMM=F I1Cent=   0 AccDes= 0.00D+00.
 FoFDir/FoFCou used for L=0 through L=3.
 End of G2Drv Frequency-dependent properties file   721 does not exist.
 End of G2Drv Frequency-dependent properties file   722 does not exist.
          IDoAtm=111111111111
          Differentiating once with respect to nuclear coordinates.
          There are    39 degrees of freedom in the 1st order CPHF.  IDoFFX=5.
     33 vectors produced by pass  0 Test12= 3.60D-10 2.56D-07 XBig12= 2.16D-01 1.52D-01.
 AX will form    33 AO Fock derivatives at one time.
     33 vectors produced by pass  1 Test12= 3.60D-10 2.56D-07 XBig12= 3.28D-02 6.04D-02.
     33 vectors produced by pass  2 Test12= 3.60D-10 2.56D-07 XBig12= 1.94D-03 1.15D-02.
     33 vectors produced by pass  3 Test12= 3.60D-10 2.56D-07 XBig12= 3.36D-05 9.51D-04.
     33 vectors produced by pass  4 Test12= 3.60D-10 2.56D-07 XBig12= 5.26D-07 1.19D-04.
     30 vectors produced by pass  5 Test12= 3.60D-10 2.56D-07 XBig12= 9.36D-09 1.78D-05.
      9 vectors produced by pass  6 Test12= 3.60D-10 2.56D-07 XBig12= 1.07D-10 1.05D-06.
 Inverted reduced A of dimension   204 with in-core refinement.
 End of Minotr Frequency-dependent properties file   721 does not exist.
 End of Minotr Frequency-dependent properties file   722 does not exist.

 **********************************************************************

            Population analysis using the SCF density.

 **********************************************************************

 Orbital symmetries:
 Alpha Orbitals:
       Occupied  (A) (A) (A) (A) (A) (A) (A) (A) (A) (A) (A) (A)
                 (A) (A) (A) (A) (A) (A) (A) (A) (A) (A) (A) (A)
                 (A) (A) (A) (A) (A)
       Virtual   (A) (A) (A) (A) (A) (A) (A) (A) (A) (A) (A) (A)
                 (A) (A) (A) (A) (A) (A) (A) (A) (A) (A) (A) (A)
                 (A) (A) (A) (A) (A) (A) (A) (A) (A) (A) (A) (A)
                 (A) (A) (A) (A) (A) (A) (A) (A) (A) (A) (A) (A)
                 (A) (A) (A) (A) (A) (A) (A) (A) (A) (A) (A) (A)
                 (A) (A) (A) (A) (A) (A) (A) (A) (A) (A) (A) (A)
                 (A) (A) (A) (A) (A) (A) (A) (A) (A) (A) (A) (A)
                 (A) (A) (A) (A) (A) (A) (A) (A) (A) (A) (A) (A)
                 (A) (A) (A) (A) (A) (A) (A) (A) (A) (A) (A) (A)
                 (A) (A) (A) (A) (A) (A) (A) (A) (A) (A) (A) (A)
                 (A) (A) (A) (A) (A) (A) (A) (A) (A) (A) (A) (A)
                 (A) (A) (A) (A) (A) (A) (A) (A) (A) (A) (A) (A)
                 (A) (A) (A) (A) (A) (A) (A) (A) (A) (A) (A) (A)
                 (A) (A) (A) (A) (A) (A) (A) (A) (A) (A) (A) (A)
                 (A) (A) (A) (A) (A) (A) (A) (A) (A) (A) (A) (A)
                 (A) (A) (A) (A) (A) (A) (A) (A) (A) (A) (A) (A)
                 (A) (A) (A) (A) (A) (A) (A) (A) (A) (A) (A) (A)
                 (A) (A) (A) (A) (A) (A) (A) (A) (A) (A) (A) (A)
                 (A) (A) (A) (A) (A) (A) (A) (A) (A) (A) (A) (A)
                 (A) (A) (A) (A) (A) (A) (A) (A) (A) (A) (A) (A)
                 (A) (A) (A) (A) (A) (A) (A) (A) (A) (A) (A) (A)
                 (A) (A)
 Beta  Orbitals:
       Occupied  (A) (A) (A) (A) (A) (A) (A) (A) (A) (A) (A) (A)
                 (A) (A) (A) (A) (A) (A) (A) (A) (A) (A) (A) (A)
                 (A) (A)
       Virtual   (A) (A) (A) (A) (A) (A) (A) (A) (A) (A) (A) (A)
                 (A) (A) (A) (A) (A) (A) (A) (A) (A) (A) (A) (A)
                 (A) (A) (A) (A) (A) (A) (A) (A) (A) (A) (A) (A)
                 (A) (A) (A) (A) (A) (A) (A) (A) (A) (A) (A) (A)
                 (A) (A) (A) (A) (A) (A) (A) (A) (A) (A) (A) (A)
                 (A) (A) (A) (A) (A) (A) (A) (A) (A) (A) (A) (A)
                 (A) (A) (A) (A) (A) (A) (A) (A) (A) (A) (A) (A)
                 (A) (A) (A) (A) (A) (A) (A) (A) (A) (A) (A) (A)
                 (A) (A) (A) (A) (A) (A) (A) (A) (A) (A) (A) (A)
                 (A) (A) (A) (A) (A) (A) (A) (A) (A) (A) (A) (A)
                 (A) (A) (A) (A) (A) (A) (A) (A) (A) (A) (A) (A)
                 (A) (A) (A) (A) (A) (A) (A) (A) (A) (A) (A) (A)
                 (A) (A) (A) (A) (A) (A) (A) (A) (A) (A) (A) (A)
                 (A) (A) (A) (A) (A) (A) (A) (A) (A) (A) (A) (A)
                 (A) (A) (A) (A) (A) (A) (A) (A) (A) (A) (A) (A)
                 (A) (A) (A) (A) (A) (A) (A) (A) (A) (A) (A) (A)
                 (A) (A) (A) (A) (A) (A) (A) (A) (A) (A) (A) (A)
                 (A) (A) (A) (A) (A) (A) (A) (A) (A) (A) (A) (A)
                 (A) (A) (A) (A) (A) (A) (A) (A) (A) (A) (A) (A)
                 (A) (A) (A) (A) (A) (A) (A) (A) (A) (A) (A) (A)
                 (A) (A) (A) (A) (A) (A) (A) (A) (A) (A) (A) (A)
                 (A) (A) (A) (A) (A)
 The electronic state is 4-A.
 Alpha  occ. eigenvalues --  -19.84865 -19.83479 -19.68404 -19.62885 -10.63475
 Alpha  occ. eigenvalues --  -10.61053 -10.55641  -1.40852  -1.16950  -1.16584
 Alpha  occ. eigenvalues --   -1.06993  -0.89474  -0.74683  -0.71390  -0.67777
 Alpha  occ. eigenvalues --   -0.67566  -0.66616  -0.59381  -0.56817  -0.54321
 Alpha  occ. eigenvalues --   -0.52462  -0.49867  -0.48127  -0.48043  -0.45982
 Alpha  occ. eigenvalues --   -0.43819  -0.38676  -0.36689  -0.33618
 Alpha virt. eigenvalues --   -0.01546   0.01644   0.02467   0.03157   0.03931
 Alpha virt. eigenvalues --    0.04436   0.06950   0.07277   0.07497   0.08313
 Alpha virt. eigenvalues --    0.09591   0.11601   0.12616   0.13431   0.14481
 Alpha virt. eigenvalues --    0.16026   0.16541   0.18956   0.20182   0.20698
 Alpha virt. eigenvalues --    0.21983   0.22781   0.22906   0.24405   0.25134
 Alpha virt. eigenvalues --    0.26355   0.27524   0.28062   0.28473   0.29847
 Alpha virt. eigenvalues --    0.30774   0.31985   0.32661   0.33420   0.34580
 Alpha virt. eigenvalues --    0.37077   0.38940   0.40487   0.42635   0.47813
 Alpha virt. eigenvalues --    0.49661   0.52155   0.54546   0.54640   0.57634
 Alpha virt. eigenvalues --    0.59149   0.59873   0.60438   0.62354   0.62652
 Alpha virt. eigenvalues --    0.64440   0.65470   0.67332   0.71291   0.71997
 Alpha virt. eigenvalues --    0.78114   0.80960   0.82931   0.86603   0.90125
 Alpha virt. eigenvalues --    0.92341   0.95112   0.97435   0.98037   0.99607
 Alpha virt. eigenvalues --    1.02159   1.03218   1.03973   1.05616   1.07082
 Alpha virt. eigenvalues --    1.08741   1.10836   1.11904   1.13082   1.13543
 Alpha virt. eigenvalues --    1.14491   1.16458   1.17692   1.19257   1.20176
 Alpha virt. eigenvalues --    1.21755   1.22864   1.25354   1.27089   1.28001
 Alpha virt. eigenvalues --    1.30011   1.30899   1.33454   1.35874   1.38414
 Alpha virt. eigenvalues --    1.40882   1.42708   1.43774   1.45815   1.47556
 Alpha virt. eigenvalues --    1.48475   1.51284   1.53388   1.54082   1.56508
 Alpha virt. eigenvalues --    1.59057   1.60146   1.61572   1.63679   1.66832
 Alpha virt. eigenvalues --    1.71035   1.72861   1.77155   1.81305   1.82492
 Alpha virt. eigenvalues --    1.86772   1.93521   2.04625   2.11097   2.12983
 Alpha virt. eigenvalues --    2.21940   2.24671   2.29509   2.34027   2.37074
 Alpha virt. eigenvalues --    2.44961   2.50488   2.58376   2.59674   2.61529
 Alpha virt. eigenvalues --    2.70603   2.73865   2.74351   2.81474   2.83503
 Alpha virt. eigenvalues --    2.89375   2.93878   2.97684   2.98731   3.03840
 Alpha virt. eigenvalues --    3.07251   3.09836   3.10457   3.15516   3.17769
 Alpha virt. eigenvalues --    3.20689   3.23143   3.28015   3.32357   3.33682
 Alpha virt. eigenvalues --    3.36192   3.41454   3.43153   3.48090   3.50026
 Alpha virt. eigenvalues --    3.51797   3.53867   3.57106   3.59710   3.65979
 Alpha virt. eigenvalues --    3.67583   3.69395   3.74636   3.76524   3.78651
 Alpha virt. eigenvalues --    3.84549   3.88148   3.93553   3.95143   3.97902
 Alpha virt. eigenvalues --    4.01847   4.06730   4.12913   4.15052   4.17188
 Alpha virt. eigenvalues --    4.23450   4.27335   4.29961   4.32859   4.34949
 Alpha virt. eigenvalues --    4.38818   4.43853   4.45743   4.47300   4.50277
 Alpha virt. eigenvalues --    4.53775   4.57498   4.58680   4.61385   4.67221
 Alpha virt. eigenvalues --    4.77222   4.84304   4.84475   4.85880   4.90738
 Alpha virt. eigenvalues --    4.91516   4.98298   4.98351   5.01260   5.03015
 Alpha virt. eigenvalues --    5.03557   5.04479   5.06821   5.09334   5.10378
 Alpha virt. eigenvalues --    5.11661   5.17978   5.18523   5.23090   5.23779
 Alpha virt. eigenvalues --    5.30332   5.31507   5.35689   5.37677   5.38748
 Alpha virt. eigenvalues --    5.39625   5.44177   5.45790   5.47714   5.50677
 Alpha virt. eigenvalues --    5.58729   5.63596   5.69061   5.83866   5.88331
 Alpha virt. eigenvalues --    6.21517   6.25054   6.38016   6.48304   6.48647
 Alpha virt. eigenvalues --    6.49351   6.57761   6.63760   6.64025   6.75651
 Alpha virt. eigenvalues --    6.76895   6.78569   6.85538   6.87202   6.89109
 Alpha virt. eigenvalues --    7.00767   7.09195   7.17484   7.20769   7.22685
 Alpha virt. eigenvalues --    7.24142   7.30000   7.38050   7.50862   7.59788
 Alpha virt. eigenvalues --    7.75886   7.92301  24.28423  24.48563  24.70643
 Alpha virt. eigenvalues --   49.79199  49.89298  50.04423  50.22216
  Beta  occ. eigenvalues --  -19.82249 -19.81247 -19.66885 -19.62862 -10.63474
  Beta  occ. eigenvalues --  -10.61098 -10.55570  -1.33091  -1.16665  -1.10607
  Beta  occ. eigenvalues --   -0.97044  -0.88147  -0.72929  -0.68328  -0.65372
  Beta  occ. eigenvalues --   -0.56268  -0.55783  -0.54157  -0.53637  -0.52426
  Beta  occ. eigenvalues --   -0.50178  -0.48475  -0.45327  -0.36992  -0.36499
  Beta  occ. eigenvalues --   -0.33197
  Beta virt. eigenvalues --   -0.14289  -0.14043  -0.09623  -0.01037   0.01620
  Beta virt. eigenvalues --    0.02720   0.03360   0.03910   0.05501   0.07029
  Beta virt. eigenvalues --    0.07505   0.07579   0.08450   0.10416   0.11798
  Beta virt. eigenvalues --    0.12926   0.13451   0.15295   0.17039   0.17094
  Beta virt. eigenvalues --    0.19353   0.20561   0.20890   0.22105   0.22782
  Beta virt. eigenvalues --    0.23039   0.24214   0.25305   0.26801   0.27844
  Beta virt. eigenvalues --    0.28332   0.28774   0.30053   0.30833   0.32160
  Beta virt. eigenvalues --    0.32761   0.33557   0.34712   0.37384   0.39102
  Beta virt. eigenvalues --    0.40353   0.42744   0.48017   0.49877   0.52200
  Beta virt. eigenvalues --    0.54487   0.54868   0.57552   0.58933   0.60094
  Beta virt. eigenvalues --    0.60453   0.62505   0.62931   0.64502   0.65403
  Beta virt. eigenvalues --    0.67406   0.71404   0.71997   0.78079   0.81053
  Beta virt. eigenvalues --    0.83091   0.87088   0.90674   0.92647   0.96355
  Beta virt. eigenvalues --    0.99589   1.01322   1.02126   1.02901   1.03590
  Beta virt. eigenvalues --    1.04689   1.06676   1.07878   1.09768   1.11584
  Beta virt. eigenvalues --    1.13221   1.14454   1.15248   1.15802   1.16951
  Beta virt. eigenvalues --    1.17964   1.20083   1.20822   1.22150   1.23499
  Beta virt. eigenvalues --    1.26215   1.28078   1.29997   1.31496   1.31967
  Beta virt. eigenvalues --    1.34038   1.36732   1.38938   1.41560   1.43194
  Beta virt. eigenvalues --    1.43703   1.46916   1.48443   1.49191   1.52033
  Beta virt. eigenvalues --    1.53923   1.55629   1.56573   1.60506   1.62090
  Beta virt. eigenvalues --    1.63406   1.65689   1.68114   1.72985   1.74081
  Beta virt. eigenvalues --    1.78633   1.82726   1.83636   1.87985   1.93953
  Beta virt. eigenvalues --    2.05883   2.11469   2.14083   2.23337   2.26214
  Beta virt. eigenvalues --    2.30034   2.35103   2.38391   2.45195   2.50809
  Beta virt. eigenvalues --    2.58515   2.59824   2.61734   2.71181   2.73879
  Beta virt. eigenvalues --    2.74381   2.81510   2.83366   2.89326   2.93641
  Beta virt. eigenvalues --    2.97703   2.98779   3.03866   3.06930   3.09708
  Beta virt. eigenvalues --    3.10551   3.15484   3.17406   3.20489   3.23184
  Beta virt. eigenvalues --    3.27963   3.32531   3.33628   3.36161   3.41322
  Beta virt. eigenvalues --    3.43157   3.47947   3.49857   3.51613   3.53361
  Beta virt. eigenvalues --    3.57189   3.59756   3.65895   3.67457   3.69483
  Beta virt. eigenvalues --    3.74814   3.76630   3.78719   3.84439   3.88019
  Beta virt. eigenvalues --    3.93543   3.95159   3.97951   4.01698   4.06557
  Beta virt. eigenvalues --    4.12888   4.15061   4.17138   4.23052   4.27263
  Beta virt. eigenvalues --    4.30044   4.33004   4.34893   4.38904   4.43845
  Beta virt. eigenvalues --    4.46764   4.48939   4.52263   4.53758   4.57762
  Beta virt. eigenvalues --    4.60707   4.63223   4.67423   4.77503   4.86023
  Beta virt. eigenvalues --    4.87068   4.87368   4.96051   4.96540   5.01162
  Beta virt. eigenvalues --    5.01218   5.02761   5.05772   5.06983   5.07941
  Beta virt. eigenvalues --    5.10042   5.10663   5.12974   5.15070   5.18793
  Beta virt. eigenvalues --    5.21644   5.24235   5.26257   5.31058   5.32618
  Beta virt. eigenvalues --    5.37016   5.38971   5.40128   5.41025   5.44361
  Beta virt. eigenvalues --    5.46018   5.47833   5.50989   5.58921   5.63858
  Beta virt. eigenvalues --    5.69111   5.86943   5.89559   6.22168   6.26249
  Beta virt. eigenvalues --    6.39498   6.49425   6.58959   6.59985   6.60134
  Beta virt. eigenvalues --    6.74675   6.75116   6.83121   6.84916   6.88371
  Beta virt. eigenvalues --    6.90040   6.90604   6.91485   7.00978   7.12732
  Beta virt. eigenvalues --    7.23092   7.24821   7.26221   7.30137   7.33885
  Beta virt. eigenvalues --    7.38173   7.55421   7.59881   7.74532   7.95326
  Beta virt. eigenvalues --   24.28404  24.48381  24.70649  49.77995  49.88061
  Beta virt. eigenvalues --   50.04039  50.22191
          Condensed to atoms (all electrons):
              1          2          3          4          5          6
     1  C    6.064117  -0.124370  -0.053645   0.429156   0.406717  -0.140091
     2  C   -0.124370   5.234284   0.115371  -0.122323  -0.006793   0.216249
     3  C   -0.053645   0.115371   5.182784  -0.078508  -0.015710   0.032740
     4  H    0.429156  -0.122323  -0.078508   0.837277  -0.034200  -0.009847
     5  H    0.406717  -0.006793  -0.015710  -0.034200   0.450715   0.004766
     6  O   -0.140091   0.216249   0.032740  -0.009847   0.004766   8.136953
     7  H   -0.026111   0.409259  -0.010674   0.011714  -0.007652  -0.028834
     8  H   -0.090486   0.468640   0.003676  -0.008437   0.005069  -0.045557
     9  O   -0.073769  -0.019450   0.363578   0.004969  -0.003124  -0.000531
    10  H    0.015306  -0.018999   0.368661  -0.001287   0.002488  -0.000889
    11  O    0.007990   0.020552  -0.001438  -0.415891   0.011087   0.011010
    12  O    0.032759  -0.011070   0.004128   0.009825  -0.001602   0.000135
              7          8          9         10         11         12
     1  C   -0.026111  -0.090486  -0.073769   0.015306   0.007990   0.032759
     2  C    0.409259   0.468640  -0.019450  -0.018999   0.020552  -0.011070
     3  C   -0.010674   0.003676   0.363578   0.368661  -0.001438   0.004128
     4  H    0.011714  -0.008437   0.004969  -0.001287  -0.415891   0.009825
     5  H   -0.007652   0.005069  -0.003124   0.002488   0.011087  -0.001602
     6  O   -0.028834  -0.045557  -0.000531  -0.000889   0.011010   0.000135
     7  H    0.514541  -0.035276   0.000419   0.000165  -0.002480   0.000181
     8  H   -0.035276   0.565325   0.001300  -0.000729  -0.000342  -0.000547
     9  O    0.000419   0.001300   8.110542  -0.054087  -0.002450  -0.000873
    10  H    0.000165  -0.000729  -0.054087   0.539040  -0.003224  -0.000887
    11  O   -0.002480  -0.000342  -0.002450  -0.003224   8.153080   0.293247
    12  O    0.000181  -0.000547  -0.000873  -0.000887   0.293247   7.613394
 Mulliken atomic charges:
              1
     1  C   -0.447575
     2  C   -0.161351
     3  C    0.089037
     4  H    0.377554
     5  H    0.188239
     6  O   -0.176104
     7  H    0.174749
     8  H    0.137365
     9  O   -0.326524
    10  H    0.154442
    11  O   -0.071141
    12  O    0.061309
 Sum of Mulliken atomic charges =   0.00000
 Mulliken charges with hydrogens summed into heavy atoms:
              1
     1  C   -0.259336
     2  C    0.150764
     3  C    0.243478
     6  O   -0.176104
     9  O   -0.326524
    11  O    0.306413
    12  O    0.061309
 Sum of Mulliken charges with hydrogens summed into heavy atoms =   0.00000
          Atomic-Atomic Spin Densities.
              1          2          3          4          5          6
     1  C    0.150631   0.003877  -0.062713  -0.016198   0.002503  -0.024686
     2  C    0.003877  -0.053479   0.007220   0.014952  -0.000909  -0.015357
     3  C   -0.062713   0.007220   0.050044  -0.001262  -0.000350   0.005108
     4  H   -0.016198   0.014952  -0.001262  -0.023241  -0.000177   0.004915
     5  H    0.002503  -0.000909  -0.000350  -0.000177  -0.000825  -0.000165
     6  O   -0.024686  -0.015357   0.005108   0.004915  -0.000165   0.959111
     7  H   -0.040731   0.048630   0.006169   0.001117  -0.001082  -0.021102
     8  H    0.020522  -0.012342  -0.002528  -0.001764   0.000189   0.001129
     9  O    0.004123  -0.000823  -0.007425  -0.000166   0.000498  -0.000131
    10  H    0.000185   0.000205  -0.000563   0.000057   0.000081  -0.000088
    11  O   -0.002031  -0.010187   0.007834   0.012156   0.000627   0.001824
    12  O    0.005071   0.000267  -0.001042   0.026199  -0.000630   0.000893
              7          8          9         10         11         12
     1  C   -0.040731   0.020522   0.004123   0.000185  -0.002031   0.005071
     2  C    0.048630  -0.012342  -0.000823   0.000205  -0.010187   0.000267
     3  C    0.006169  -0.002528  -0.007425  -0.000563   0.007834  -0.001042
     4  H    0.001117  -0.001764  -0.000166   0.000057   0.012156   0.026199
     5  H   -0.001082   0.000189   0.000498   0.000081   0.000627  -0.000630
     6  O   -0.021102   0.001129  -0.000131  -0.000088   0.001824   0.000893
     7  H    0.091524  -0.007877  -0.000212  -0.000129   0.000514   0.000102
     8  H   -0.007877   0.009809  -0.000058   0.000378  -0.000641  -0.000260
     9  O   -0.000212  -0.000058   0.014922   0.000808  -0.000051  -0.000369
    10  H   -0.000129   0.000378   0.000808  -0.001052  -0.000486  -0.000282
    11  O    0.000514  -0.000641  -0.000051  -0.000486   1.184138  -0.335453
    12  O    0.000102  -0.000260  -0.000369  -0.000282  -0.335453   1.402656
 Mulliken atomic spin densities:
              1
     1  C    0.040554
     2  C   -0.017946
     3  C    0.000491
     4  H    0.016589
     5  H   -0.000240
     6  O    0.911450
     7  H    0.076922
     8  H    0.006556
     9  O    0.011115
    10  H   -0.000886
    11  O    0.858245
    12  O    1.097150
 Sum of Mulliken atomic spin densities =   3.00000
 APT atomic charges:
              1
     1  C   -0.653244
     2  C   -0.572596
     3  C   -0.129768
     4  H    0.455257
     5  H    0.358141
     6  O   -0.262988
     7  H    0.463801
     8  H    0.301847
     9  O   -0.254507
    10  H    0.341217
    11  O   -0.706262
    12  O    0.659102
 Sum of APT charges=   0.00000
 APT Atomic charges with hydrogens summed into heavy atoms:
              1
     1  C   -0.295103
     2  C    0.193052
     3  C    0.211449
     4  H    0.000000
     5  H    0.000000
     6  O   -0.262988
     7  H    0.000000
     8  H    0.000000
     9  O   -0.254507
    10  H    0.000000
    11  O   -0.251005
    12  O    0.659102
 Sum of APT charges=   0.00000
 Electronic spatial extent (au):  <R**2>=           1063.6593
 Charge=              0.0000 electrons
 Dipole moment (field-independent basis, Debye):
    X=              1.5963    Y=              0.6253    Z=              1.3524  Tot=              2.1836
 Quadrupole moment (field-independent basis, Debye-Ang):
   XX=            -39.2229   YY=            -52.3832   ZZ=            -39.3346
   XY=             -8.3188   XZ=             -1.6216   YZ=             -1.3791
 Traceless Quadrupole moment (field-independent basis, Debye-Ang):
   XX=              4.4240   YY=             -8.7363   ZZ=              4.3123
   XY=             -8.3188   XZ=             -1.6216   YZ=             -1.3791
 Octapole moment (field-independent basis, Debye-Ang**2):
  XXX=             29.5164  YYY=             -4.8013  ZZZ=              0.0936  XYY=             15.7129
  XXY=             13.3648  XXZ=              1.7840  XZZ=              4.8216  YZZ=             -1.4728
  YYZ=              4.0376  XYZ=              3.6979
 Hexadecapole moment (field-independent basis, Debye-Ang**3):
 XXXX=           -647.9338 YYYY=           -583.5590 ZZZZ=            -72.0635 XXXY=            -39.7468
 XXXZ=             -0.8105 YYYX=            -42.1868 YYYZ=             -4.6940 ZZZX=              0.3646
 ZZZY=             -0.8391 XXYY=           -212.6509 XXZZ=           -124.5813 YYZZ=            -97.5555
 XXYZ=             -7.1022 YYXZ=             -2.6353 ZZXY=             -2.5260
 N-N= 2.760240591654D+02 E-N=-2.273883122102D+03  KE= 6.198118089017D+02
  Exact polarizability:   0.000   0.000   0.000   0.000   0.000   0.000
 Approx polarizability:  97.663  -0.455  67.746   0.019   3.857  55.591
                          Isotropic Fermi Contact Couplings
        Atom                 a.u.       MegaHertz       Gauss      10(-4) cm-1
     1  C(13)              0.03297      12.35331       4.40797       4.12062
     2  C(13)             -0.03012     -11.28712      -4.02753      -3.76498
     3  C(13)              0.00130       0.48578       0.17334       0.16204
     4  H(1)              -0.00200      -2.98386      -1.06472      -0.99531
     5  H(1)              -0.00094      -1.39685      -0.49843      -0.46594
     6  O(17)              0.13427     -27.13221      -9.68145      -9.05033
     7  H(1)               0.04282      63.79795      22.76469      21.28071
     8  H(1)               0.00271       4.03129       1.43846       1.34469
     9  O(17)              0.00244      -0.49237      -0.17569      -0.16424
    10  H(1)              -0.00013      -0.19011      -0.06784      -0.06341
    11  O(17)              0.20192     -40.80124     -14.55890     -13.60983
    12  O(17)              0.19322     -39.04231     -13.93127     -13.02311
 --------------------------------------------------------
       Center         ----  Spin Dipole Couplings  ----
                      3XX-RR        3YY-RR        3ZZ-RR
 --------------------------------------------------------
     1   Atom        0.012605      0.040836     -0.053441
     2   Atom        0.025272      0.016423     -0.041695
     3   Atom        0.006010      0.002107     -0.008117
     4   Atom        0.115520     -0.041253     -0.074267
     5   Atom        0.001634     -0.002724      0.001090
     6   Atom        1.581828     -0.195923     -1.385906
     7   Atom        0.025109     -0.009769     -0.015339
     8   Atom       -0.000988     -0.004841      0.005829
     9   Atom        0.027067     -0.004856     -0.022211
    10   Atom        0.005458     -0.001148     -0.004310
    11   Atom       -1.813418      0.760080      1.053337
    12   Atom       -1.976476      0.888819      1.087657
 --------------------------------------------------------
                        XY            XZ            YZ
 --------------------------------------------------------
     1   Atom       -0.021917      0.008793      0.018257
     2   Atom       -0.000169     -0.000263     -0.024416
     3   Atom        0.012974     -0.003083     -0.003451
     4   Atom       -0.046666      0.003107     -0.003640
     5   Atom       -0.001215      0.010796      0.008079
     6   Atom       -2.329164      1.146221     -0.785206
     7   Atom        0.009326      0.006373     -0.001894
     8   Atom        0.001611     -0.015391     -0.009173
     9   Atom        0.003269     -0.017331     -0.003690
    10   Atom        0.005067     -0.006040     -0.004695
    11   Atom        1.095248      0.646666     -0.181522
    12   Atom        1.305412      0.765828     -0.461389
 --------------------------------------------------------


 ---------------------------------------------------------------------------------
              Anisotropic Spin Dipole Couplings in Principal Axis System
 ---------------------------------------------------------------------------------

       Atom             a.u.   MegaHertz   Gauss  10(-4) cm-1        Axes

              Baa    -0.0592    -7.946    -2.835    -2.650 -0.1831 -0.2152  0.9593
     1 C(13)  Bbb     0.0051     0.679     0.242     0.227  0.8769  0.4054  0.2583
              Bcc     0.0542     7.267     2.593     2.424 -0.4445  0.8885  0.1144
 
              Baa    -0.0506    -6.789    -2.422    -2.265  0.0040  0.3423  0.9396
     2 C(13)  Bbb     0.0252     3.385     1.208     1.129  0.8102  0.5496 -0.2037
              Bcc     0.0254     3.404     1.215     1.136 -0.5861  0.7621 -0.2752
 
              Baa    -0.0096    -1.287    -0.459    -0.429 -0.4021  0.6393  0.6555
     3 C(13)  Bbb    -0.0084    -1.126    -0.402    -0.376  0.5338 -0.4180  0.7351
              Bcc     0.0180     2.414     0.861     0.805  0.7439  0.6455 -0.1732
 
              Baa    -0.0747   -39.853   -14.221   -13.294  0.0156  0.1297  0.9914
     4 H(1)   Bbb    -0.0537   -28.675   -10.232    -9.565  0.2658  0.9553 -0.1292
              Bcc     0.1284    68.528    24.452    22.858  0.9639 -0.2655  0.0195
 
              Baa    -0.0138    -7.345    -2.621    -2.450 -0.5101 -0.5437  0.6664
     5 H(1)   Bbb     0.0000     0.021     0.007     0.007 -0.6007  0.7798  0.1764
              Bcc     0.0137     7.324     2.613     2.443  0.6156  0.3103  0.7244
 
              Baa    -1.8005   130.283    46.488    43.458  0.5911  0.7968 -0.1253
     6 O(17)  Bbb    -1.7746   128.407    45.819    42.832 -0.1464  0.2588  0.9548
              Bcc     3.5751  -258.690   -92.307   -86.290  0.7932 -0.5461  0.2697
 
              Baa    -0.0180    -9.606    -3.428    -3.204 -0.2256  0.4538  0.8621
     7 H(1)   Bbb    -0.0102    -5.441    -1.942    -1.815 -0.1390  0.8609 -0.4895
              Bcc     0.0282    15.047     5.369     5.019  0.9643  0.2303  0.1311
 
              Baa    -0.0156    -8.337    -2.975    -2.781  0.6228  0.4508  0.6395
     8 H(1)   Bbb    -0.0052    -2.781    -0.992    -0.928 -0.5431  0.8374 -0.0614
              Bcc     0.0208    11.119     3.967     3.709 -0.5632 -0.3091  0.7663
 
              Baa    -0.0280     2.024     0.722     0.675  0.2925  0.1102  0.9499
     9 O(17)  Bbb    -0.0050     0.365     0.130     0.122 -0.1392  0.9877 -0.0717
              Bcc     0.0330    -2.390    -0.853    -0.797  0.9461  0.1113 -0.3043
 
              Baa    -0.0082    -4.353    -1.553    -1.452  0.2333  0.4190  0.8775
    10 H(1)   Bbb    -0.0036    -1.926    -0.687    -0.643 -0.5829  0.7825 -0.2187
              Bcc     0.0118     6.279     2.241     2.094  0.7783  0.4605 -0.4268
 
              Baa    -2.3483   169.918    60.631    56.679  0.9218 -0.3361 -0.1932
    11 O(17)  Bbb     1.1210   -81.116   -28.944   -27.057  0.1521  0.7719 -0.6173
              Bcc     1.2272   -88.802   -31.687   -29.621  0.3566  0.5396  0.7627
 
              Baa    -2.6878   194.488    69.398    64.874  0.9049 -0.3596 -0.2275
    12 O(17)  Bbb     1.1859   -85.809   -30.619   -28.623  0.3874  0.4747  0.7903
              Bcc     1.5019  -108.679   -38.779   -36.251  0.1762  0.8033 -0.5689
 

 ---------------------------------------------------------------------------------

 Calling FoFJK, ICntrl=    100147 FMM=F ISym2X=0 I1Cent= 0 IOpClX= 1 NMat=1 NMatS=1 NMatT=0.
 ***** Axes restored to original set *****
 -------------------------------------------------------------------
 Center     Atomic                   Forces (Hartrees/Bohr)
 Number     Number              X              Y              Z
 -------------------------------------------------------------------
      1        6           0.057976035    0.011098228    0.009859245
      2        6           0.005131429    0.008603588    0.006436842
      3        6           0.018529534   -0.069359849   -0.034689912
      4        1          -0.121109161    0.006192429   -0.026785196
      5        1          -0.010760789   -0.001563997    0.001541704
      6        8          -0.008086698   -0.008376986    0.001424141
      7        1          -0.003707402    0.010304301    0.003374073
      8        1          -0.005130064    0.007445200   -0.005820259
      9        8          -0.003297136    0.029695107    0.015895655
     10        1          -0.011340497    0.014559388    0.014415746
     11        8           0.203759264   -0.048183025   -0.003453224
     12        8          -0.121964515    0.039585615    0.017801185
 -------------------------------------------------------------------
 Cartesian Forces:  Max     0.203759264 RMS     0.049529347

 GradGradGradGradGradGradGradGradGradGradGradGradGradGradGradGradGradGrad
 Berny optimization.
 Internal  Forces:  Max     0.129349882 RMS     0.024831702
 Search for a saddle point.
 Step number   1 out of a maximum of   57
 All quantities printed in internal units (Hartrees-Bohrs-Radians)
 Swaping is turned off.
 Second derivative matrix not updated -- analytic derivatives used.
 ITU=  0
     Eigenvalues ---   -0.05454  -0.00545  -0.00012   0.00054   0.00183
     Eigenvalues ---    0.00280   0.02324   0.02800   0.03967   0.04466
     Eigenvalues ---    0.05197   0.05382   0.06111   0.06323   0.08788
     Eigenvalues ---    0.11585   0.14458   0.15478   0.16901   0.17861
     Eigenvalues ---    0.23046   0.29909   0.30735   0.31611   0.32198
     Eigenvalues ---    0.33775   0.34438   0.35057   0.38081   0.76866
 Eigenvectors required to have negative eigenvalues:
                          A17       R10       R3        A16       R11
   1                    0.92869   0.28112  -0.20991  -0.04952  -0.04148
                          D10       D11       A2        D2        D7
   1                   -0.03516  -0.03359   0.02937   0.02428  -0.02406
 RFO step:  Lambda0=1.051255912D-02 Lambda=-1.13494944D-01.
 Linear search not attempted -- option 19 set.
 Maximum step size (   0.300) exceeded in Quadratic search.
    -- Step size scaled by   0.285
 Iteration  1 RMS(Cart)=  0.05355608 RMS(Int)=  0.00541684
 Iteration  2 RMS(Cart)=  0.00529601 RMS(Int)=  0.00122870
 Iteration  3 RMS(Cart)=  0.00009449 RMS(Int)=  0.00122178
 Iteration  4 RMS(Cart)=  0.00000005 RMS(Int)=  0.00122178
 Variable       Old X    -DE/DX   Delta X   Delta X   Delta X     New X
                                 (Linear)    (Quad)   (Total)
    R1        2.83747   0.02113   0.00000  -0.01525  -0.01525   2.82222
    R2        2.76145   0.01479   0.00000   0.00715   0.00715   2.76860
    R3        2.42921  -0.04081   0.00000  -0.05032  -0.05032   2.37889
    R4        2.06020  -0.00209   0.00000   0.00032   0.00032   2.06052
    R5        2.61411  -0.01154   0.00000  -0.01231  -0.01231   2.60180
    R6        2.07031   0.00388   0.00000   0.01879   0.01879   2.08910
    R7        2.09224  -0.00605   0.00000   0.00283   0.00283   2.09507
    R8        2.32352  -0.02985   0.00000  -0.01025  -0.01025   2.31326
    R9        2.06640   0.00798   0.00000   0.00816   0.00816   2.07456
   R10        2.38764   0.08306   0.00000   0.08586   0.08586   2.47349
   R11        2.50524  -0.12935   0.00000  -0.10000  -0.10000   2.40523
    A1        1.95764   0.00806   0.00000   0.03251   0.03231   1.98995
    A2        1.80768   0.00166   0.00000  -0.02262  -0.02232   1.78536
    A3        2.00956  -0.00341   0.00000   0.00747   0.00730   2.01686
    A4        1.83463  -0.00412   0.00000  -0.01648  -0.01622   1.81840
    A5        2.03107  -0.00591   0.00000  -0.01244  -0.01286   2.01821
    A6        1.78865   0.00404   0.00000   0.00246   0.00236   1.79102
    A7        1.98444  -0.00527   0.00000   0.11366   0.10930   2.09373
    A8        1.83194   0.01446   0.00000   0.06471   0.06274   1.89468
    A9        1.87447   0.01115   0.00000   0.04248   0.03914   1.91361
   A10        1.87315  -0.00672   0.00000  -0.09161  -0.09462   1.77854
   A11        1.95895  -0.00304   0.00000  -0.03878  -0.04343   1.91553
   A12        1.93744  -0.01002   0.00000  -0.08836  -0.08865   1.84880
   A13        2.12482   0.00965   0.00000   0.02021   0.01998   2.14480
   A14        2.05804  -0.00300   0.00000  -0.00914  -0.00938   2.04866
   A15        2.00067   0.00300   0.00000   0.00573   0.00548   2.00615
   A16        2.93780   0.00634   0.00000   0.05824   0.05824   2.99604
   A17        2.82758  -0.01324   0.00000  -0.16190  -0.16190   2.66568
    D1        2.89917   0.00176   0.00000   0.01901   0.01911   2.91828
    D2       -1.34206  -0.00005   0.00000   0.00825   0.00872  -1.33333
    D3        0.72099   0.00090   0.00000  -0.04097  -0.04215   0.67884
    D4        0.92989   0.00215   0.00000   0.03639   0.03675   0.96664
    D5        2.97185   0.00034   0.00000   0.02563   0.02637   2.99821
    D6       -1.24830   0.00130   0.00000  -0.02359  -0.02450  -1.27280
    D7       -1.00800  -0.00214   0.00000   0.04366   0.04410  -0.96390
    D8        1.03396  -0.00395   0.00000   0.03290   0.03371   1.06768
    D9        3.09700  -0.00299   0.00000  -0.01632  -0.01715   3.07985
   D10        2.39716  -0.01195   0.00000   0.02078   0.02074   2.41790
   D11       -1.23429   0.01090   0.00000   0.06061   0.06063  -1.17365
   D12       -1.93351  -0.00859   0.00000   0.00004  -0.00014  -1.93365
   D13        0.71823   0.01426   0.00000   0.03987   0.03975   0.75799
   D14        0.03121  -0.00927   0.00000  -0.01386  -0.01374   0.01747
   D15        2.68295   0.01357   0.00000   0.02597   0.02616   2.70911
   D16       -2.37313   0.00334   0.00000  -0.04921  -0.04911  -2.42224
   D17        1.85311  -0.00467   0.00000  -0.06885  -0.06901   1.78410
   D18       -0.27752   0.00189   0.00000  -0.04893  -0.04887  -0.32639
   D19       -0.25441   0.00001   0.00000   0.09331   0.09331  -0.16110
         Item               Value     Threshold  Converged?
 Maximum Force            0.129350     0.000450     NO 
 RMS     Force            0.024832     0.000300     NO 
 Maximum Displacement     0.153508     0.001800     NO 
 RMS     Displacement     0.053850     0.001200     NO 
 Predicted change in Energy=-2.773797D-02
 GradGradGradGradGradGradGradGradGradGradGradGradGradGradGradGradGradGrad

                          Input orientation:                          
 ---------------------------------------------------------------------
 Center     Atomic      Atomic             Coordinates (Angstroms)
 Number     Number       Type             X           Y           Z
 ---------------------------------------------------------------------
      1          6           0       -0.651294    0.046332   -0.330154
      2          6           0       -1.013353    1.395765    0.197438
      3          6           0       -1.334236   -1.060515    0.344335
      4          1           0        0.550026   -0.068118    0.028247
      5          1           0       -0.584497   -0.031960   -1.415667
      6          8           0       -0.263322    2.495495   -0.154217
      7          1           0       -2.012592    1.668187   -0.189150
      8          1           0       -1.116074    1.349435    1.300358
      9          8           0       -1.788506   -2.025827   -0.255912
     10          1           0       -1.075911   -1.248105    1.394697
     11          8           0        1.828691   -0.263100    0.228899
     12          8           0        2.964206   -0.740757   -0.091186
 ---------------------------------------------------------------------
                    Distance matrix (angstroms):
                    1          2          3          4          5
     1  C    0.000000
     2  C    1.493456   0.000000
     3  C    1.465080   2.481503   0.000000
     4  H    1.258856   2.148426   2.152953   0.000000
     5  H    1.090380   2.196457   2.172013   1.836664   0.000000
     6  O    2.485935   1.376812   3.747081   2.695726   2.842962
     7  H    2.122128   1.105505   2.861920   3.103067   2.536591
     8  H    2.138380   1.108662   2.601813   2.530536   3.093156
     9  O    2.364870   3.537468   1.224126   3.063022   2.601956
    10  H    2.197950   2.902997   1.097808   2.429656   3.101394
    11  O    2.560979   3.290902   3.263940   1.308917   2.929419
    12  O    3.707891   4.524269   4.332266   2.508979   3.853561
                    6          7          8          9         10
     6  O    0.000000
     7  H    1.935356   0.000000
     8  H    2.038732   1.767479   0.000000
     9  O    4.772722   3.701406   3.777107   0.000000
    10  H    4.132067   3.448289   2.599563   1.958866   0.000000
    11  O    3.483266   4.319732   3.524193   4.052945   3.281164
    12  O    4.571022   5.530020   4.791032   4.926136   4.334490
                   11         12
    11  O    0.000000
    12  O    1.272795   0.000000
 Stoichiometry    C3H5O4(4)
 Framework group  C1[X(C3H5O4)]
 Deg. of freedom    30
 Full point group                 C1      NOp   1
 Largest Abelian subgroup         C1      NOp   1
 Largest concise Abelian subgroup C1      NOp   1
                         Standard orientation:                         
 ---------------------------------------------------------------------
 Center     Atomic      Atomic             Coordinates (Angstroms)
 Number     Number       Type             X           Y           Z
 ---------------------------------------------------------------------
      1          6           0       -0.649074    0.027010   -0.330493
      2          6           0       -1.058456    1.363337    0.195861
      3          6           0       -1.286471   -1.102830    0.350421
      4          1           0        0.557619   -0.041527    0.021521
      5          1           0       -0.585310   -0.051556   -1.416168
      6          8           0       -0.351994    2.489412   -0.162580
      7          1           0       -2.069272    1.597213   -0.185838
      8          1           0       -1.153364    1.316070    1.299441
      9          8           0       -1.707593   -2.086005   -0.244984
     10          1           0       -1.015596   -1.277899    1.399783
     11          8           0        1.843754   -0.188059    0.215552
     12          8           0        2.994574   -0.623773   -0.109672
 ---------------------------------------------------------------------
 Rotational constants (GHZ):      2.2023937      1.6655670      0.9902613
 Standard basis: 6-311+G(2df,2p) (5D, 7F)
 There are   283 symmetry adapted basis functions of A   symmetry.
 Integral buffers will be    131072 words long.
 Raffenetti 2 integral format.
 Two-electron integral symmetry is turned on.
   283 basis functions,   419 primitive gaussians,   318 cartesian basis functions
    29 alpha electrons       26 beta electrons
       nuclear repulsion energy       276.5754836283 Hartrees.
 NAtoms=   12 NActive=   12 NUniq=   12 SFac= 1.00D+00 NAtFMM=   50 NAOKFM=F Big=F
 One-electron integrals computed using PRISM.
 NBasis=   283 RedAO= T  NBF=   283
 NBsUse=   283 1.00D-06 NBFU=   283
 Initial guess read from the read-write file.
 B after Tr=     0.000000    0.000000    0.000000
         Rot=    1.000000    0.000000    0.000000    0.000000 Ang=   0.00 deg.
 Initial guess orbital symmetries:
 Alpha Orbitals:
       Occupied  (A) (A) (A) (A) (A) (A) (A) (A) (A) (A) (A) (A)
                 (A) (A) (A) (A) (A) (A) (A) (A) (A) (A) (A) (A)
                 (A) (A) (A) (A) (A)
       Virtual   (A) (A) (A) (A) (A) (A) (A) (A) (A) (A) (A) (A)
                 (A) (A) (A) (A) (A) (A) (A) (A) (A) (A) (A) (A)
                 (A) (A) (A) (A) (A) (A) (A) (A) (A) (A) (A) (A)
                 (A) (A) (A) (A) (A) (A) (A) (A) (A) (A) (A) (A)
                 (A) (A) (A) (A) (A) (A) (A) (A) (A) (A) (A) (A)
                 (A) (A) (A) (A) (A) (A) (A) (A) (A) (A) (A) (A)
                 (A) (A) (A) (A) (A) (A) (A) (A) (A) (A) (A) (A)
                 (A) (A) (A) (A) (A) (A) (A) (A) (A) (A) (A) (A)
                 (A) (A) (A) (A) (A) (A) (A) (A) (A) (A) (A) (A)
                 (A) (A) (A) (A) (A) (A) (A) (A) (A) (A) (A) (A)
                 (A) (A) (A) (A) (A) (A) (A) (A) (A) (A) (A) (A)
                 (A) (A) (A) (A) (A) (A) (A) (A) (A) (A) (A) (A)
                 (A) (A) (A) (A) (A) (A) (A) (A) (A) (A) (A) (A)
                 (A) (A) (A) (A) (A) (A) (A) (A) (A) (A) (A) (A)
                 (A) (A) (A) (A) (A) (A) (A) (A) (A) (A) (A) (A)
                 (A) (A) (A) (A) (A) (A) (A) (A) (A) (A) (A) (A)
                 (A) (A) (A) (A) (A) (A) (A) (A) (A) (A) (A) (A)
                 (A) (A) (A) (A) (A) (A) (A) (A) (A) (A) (A) (A)
                 (A) (A) (A) (A) (A) (A) (A) (A) (A) (A) (A) (A)
                 (A) (A) (A) (A) (A) (A) (A) (A) (A) (A) (A) (A)
                 (A) (A) (A) (A) (A) (A) (A) (A) (A) (A) (A) (A)
                 (A) (A)
 Beta  Orbitals:
       Occupied  (A) (A) (A) (A) (A) (A) (A) (A) (A) (A) (A) (A)
                 (A) (A) (A) (A) (A) (A) (A) (A) (A) (A) (A) (A)
                 (A) (A)
       Virtual   (A) (A) (A) (A) (A) (A) (A) (A) (A) (A) (A) (A)
                 (A) (A) (A) (A) (A) (A) (A) (A) (A) (A) (A) (A)
                 (A) (A) (A) (A) (A) (A) (A) (A) (A) (A) (A) (A)
                 (A) (A) (A) (A) (A) (A) (A) (A) (A) (A) (A) (A)
                 (A) (A) (A) (A) (A) (A) (A) (A) (A) (A) (A) (A)
                 (A) (A) (A) (A) (A) (A) (A) (A) (A) (A) (A) (A)
                 (A) (A) (A) (A) (A) (A) (A) (A) (A) (A) (A) (A)
                 (A) (A) (A) (A) (A) (A) (A) (A) (A) (A) (A) (A)
                 (A) (A) (A) (A) (A) (A) (A) (A) (A) (A) (A) (A)
                 (A) (A) (A) (A) (A) (A) (A) (A) (A) (A) (A) (A)
                 (A) (A) (A) (A) (A) (A) (A) (A) (A) (A) (A) (A)
                 (A) (A) (A) (A) (A) (A) (A) (A) (A) (A) (A) (A)
                 (A) (A) (A) (A) (A) (A) (A) (A) (A) (A) (A) (A)
                 (A) (A) (A) (A) (A) (A) (A) (A) (A) (A) (A) (A)
                 (A) (A) (A) (A) (A) (A) (A) (A) (A) (A) (A) (A)
                 (A) (A) (A) (A) (A) (A) (A) (A) (A) (A) (A) (A)
                 (A) (A) (A) (A) (A) (A) (A) (A) (A) (A) (A) (A)
                 (A) (A) (A) (A) (A) (A) (A) (A) (A) (A) (A) (A)
                 (A) (A) (A) (A) (A) (A) (A) (A) (A) (A) (A) (A)
                 (A) (A) (A) (A) (A) (A) (A) (A) (A) (A) (A) (A)
                 (A) (A) (A) (A) (A) (A) (A) (A) (A) (A) (A) (A)
                 (A) (A) (A) (A) (A)
 Initial guess <Sx>= 0.0000 <Sy>= 0.0000 <Sz>= 1.5000 <S**2>= 3.7706 S= 1.5051
 Harris functional with IExCor= 1009 diagonalized for initial guess.
 ExpMin= 4.38D-02 ExpMax= 8.59D+03 ExpMxC= 1.30D+03 IAcc=2 IRadAn=         0 AccDes= 0.00D+00
 HarFok:  IExCor= 1009 AccDes= 0.00D+00 IRadAn=         0 IDoV= 1
 ScaDFX=  1.000000  1.000000  1.000000  1.000000
 FoFCou: FMM=F IPFlag=           0 FMFlag=      100000 FMFlg1=           0
         NFxFlg=           0 DoJE=T BraDBF=F KetDBF=T FulRan=T
         Omega=  0.000000  0.000000  1.000000  0.000000  0.000000 ICntrl=     500 IOpCl=  0
         NMat0=    1 NMatS0=    1 NMatT0=    0 NMatD0=    1 NMtDS0=    0 NMtDT0=    0
         I1Cent=           4 NGrid=           0.
 Petite list used in FoFCou.
 Requested convergence on RMS density matrix=1.00D-08 within 128 cycles.
 Requested convergence on MAX density matrix=1.00D-06.
 Requested convergence on             energy=1.00D-06.
 No special actions if energy rises.
 Rare condition: small coef for last iteration:  0.000D+00
 Restarting incremental Fock formation.
 SCF Done:  E(UM062X) =  -417.897792666     A.U. after   25 cycles
             Convg  =    0.5222D-08             -V/T =  2.0033
 <Sx>= 0.0000 <Sy>= 0.0000 <Sz>= 1.5000 <S**2>= 3.7691 S= 1.5048
 <L.S>= 0.000000000000E+00
 Annihilation of the first spin contaminant:
 S**2 before annihilation     3.7691,   after     3.7502
 Calling FoFJK, ICntrl=      2127 FMM=F ISym2X=0 I1Cent= 0 IOpClX= 1 NMat=1 NMatS=1 NMatT=0.
 ***** Axes restored to original set *****
 -------------------------------------------------------------------
 Center     Atomic                   Forces (Hartrees/Bohr)
 Number     Number              X              Y              Z
 -------------------------------------------------------------------
      1        6           0.059352395    0.010879889    0.007116198
      2        6          -0.012636928    0.020387531    0.007434358
      3        6           0.017822046   -0.059229714   -0.025426031
      4        1          -0.107257697    0.002731082   -0.029559764
      5        1          -0.010788615   -0.000733834    0.001232248
      6        8           0.000995077   -0.014045738   -0.000313734
      7        1          -0.003047349    0.002992843    0.003743508
      8        1          -0.001968457    0.003163430   -0.004802736
      9        8          -0.003443667    0.026215382    0.011356786
     10        1          -0.010912877    0.013921194    0.011476709
     11        8           0.159395200   -0.039651486   -0.001679480
     12        8          -0.087509129    0.033369422    0.019421937
 -------------------------------------------------------------------
 Cartesian Forces:  Max     0.159395200 RMS     0.040472637

 GradGradGradGradGradGradGradGradGradGradGradGradGradGradGradGradGradGrad
 Berny optimization.
 Internal  Forces:  Max     0.095474134 RMS     0.020002347
 Search for a saddle point.
 Step number   2 out of a maximum of   57
 All quantities printed in internal units (Hartrees-Bohrs-Radians)
 Swaping is turned off.
 Update second derivatives using D2CorX and points    1    2
 ITU=  0  0
     Eigenvalues ---   -0.05757  -0.00545   0.00030   0.00180   0.00253
     Eigenvalues ---    0.02052   0.02668   0.03762   0.04010   0.04461
     Eigenvalues ---    0.05126   0.05522   0.06016   0.08298   0.08850
     Eigenvalues ---    0.11561   0.14495   0.15575   0.16952   0.18031
     Eigenvalues ---    0.23144   0.29895   0.31365   0.32052   0.32512
     Eigenvalues ---    0.33774   0.34442   0.35137   0.38151   0.76884
 Eigenvectors required to have negative eigenvalues:
                          A17       R10       R3        A16       A7
   1                    0.93169   0.25821  -0.19437  -0.05717   0.05480
                          A10       D11       D16       R11       D10
   1                   -0.05074  -0.04552   0.04206  -0.04115  -0.03884
 RFO step:  Lambda0=4.418997030D-03 Lambda=-9.29967676D-02.
 Linear search not attempted -- option 19 set.
 Maximum step size (   0.300) exceeded in Quadratic search.
    -- Step size scaled by   0.358
 Iteration  1 RMS(Cart)=  0.04439484 RMS(Int)=  0.00571520
 Iteration  2 RMS(Cart)=  0.00783367 RMS(Int)=  0.00029733
 Iteration  3 RMS(Cart)=  0.00012150 RMS(Int)=  0.00025339
 Iteration  4 RMS(Cart)=  0.00000003 RMS(Int)=  0.00025339
 Variable       Old X    -DE/DX   Delta X   Delta X   Delta X     New X
                                 (Linear)    (Quad)   (Total)
    R1        2.82222   0.01748   0.00000   0.02741   0.02741   2.84963
    R2        2.76860   0.01162   0.00000   0.01552   0.01552   2.78412
    R3        2.37889  -0.03681   0.00000  -0.11004  -0.11004   2.26886
    R4        2.06052  -0.00184   0.00000  -0.00197  -0.00197   2.05855
    R5        2.60180  -0.01060   0.00000  -0.00922  -0.00922   2.59258
    R6        2.08910   0.00218   0.00000  -0.00539  -0.00539   2.08371
    R7        2.09507  -0.00472   0.00000  -0.00636  -0.00636   2.08870
    R8        2.31326  -0.02496   0.00000  -0.01827  -0.01827   2.29499
    R9        2.07456   0.00604   0.00000   0.00527   0.00527   2.07983
   R10        2.47349   0.07387   0.00000   0.16588   0.16588   2.63938
   R11        2.40523  -0.09547   0.00000  -0.11453  -0.11453   2.29070
    A1        1.98995   0.00371   0.00000  -0.00642  -0.00639   1.98356
    A2        1.78536   0.00398   0.00000   0.02658   0.02656   1.81193
    A3        2.01686  -0.00254   0.00000  -0.00560  -0.00577   2.01109
    A4        1.81840  -0.00341   0.00000  -0.01706  -0.01699   1.80141
    A5        2.01821  -0.00373   0.00000  -0.00137  -0.00143   2.01678
    A6        1.79102   0.00296   0.00000   0.00897   0.00893   1.79994
    A7        2.09373  -0.01847   0.00000  -0.08393  -0.08463   2.00910
    A8        1.89468   0.00900   0.00000  -0.00700  -0.00706   1.88762
    A9        1.91361   0.00744   0.00000  -0.00253  -0.00319   1.91043
   A10        1.77854   0.00442   0.00000   0.05753   0.05738   1.83592
   A11        1.91553   0.00417   0.00000   0.03617   0.03509   1.95062
   A12        1.84880  -0.00574   0.00000   0.01315   0.01320   1.86200
   A13        2.14480   0.00573   0.00000   0.00652   0.00616   2.15096
   A14        2.04866  -0.00267   0.00000  -0.01116  -0.01152   2.03715
   A15        2.00615   0.00455   0.00000   0.02484   0.02446   2.03061
   A16        2.99604   0.00556   0.00000   0.03664   0.03664   3.03268
   A17        2.66568  -0.01375   0.00000  -0.13922  -0.13922   2.52647
    D1        2.91828  -0.00021   0.00000  -0.00044  -0.00025   2.91803
    D2       -1.33333   0.00076   0.00000   0.01494   0.01496  -1.31838
    D3        0.67884   0.00292   0.00000   0.02537   0.02505   0.70389
    D4        0.96664  -0.00001   0.00000   0.00709   0.00733   0.97397
    D5        2.99821   0.00096   0.00000   0.02247   0.02254   3.02075
    D6       -1.27280   0.00312   0.00000   0.03290   0.03263  -1.24016
    D7       -0.96390  -0.00483   0.00000  -0.01697  -0.01672  -0.98062
    D8        1.06768  -0.00386   0.00000  -0.00159  -0.00151   1.06616
    D9        3.07985  -0.00170   0.00000   0.00884   0.00858   3.08843
   D10        2.41790  -0.01153   0.00000   0.00054   0.00048   2.41837
   D11       -1.17365   0.00886   0.00000   0.05791   0.05793  -1.11573
   D12       -1.93365  -0.00716   0.00000   0.01933   0.01929  -1.91436
   D13        0.75799   0.01324   0.00000   0.07669   0.07674   0.83472
   D14        0.01747  -0.00744   0.00000   0.01894   0.01892   0.03639
   D15        2.70911   0.01296   0.00000   0.07631   0.07637   2.78548
   D16       -2.42224   0.00155   0.00000  -0.13813  -0.13832  -2.56055
   D17        1.78410  -0.00285   0.00000  -0.13531  -0.13527   1.64883
   D18       -0.32639   0.00143   0.00000  -0.13060  -0.13045  -0.45684
   D19       -0.16110  -0.00019   0.00000   0.21534   0.21534   0.05424
         Item               Value     Threshold  Converged?
 Maximum Force            0.095474     0.000450     NO 
 RMS     Force            0.020002     0.000300     NO 
 Maximum Displacement     0.129981     0.001800     NO 
 RMS     Displacement     0.044038     0.001200     NO 
 Predicted change in Energy=-3.328970D-02
 GradGradGradGradGradGradGradGradGradGradGradGradGradGradGradGradGradGrad

                          Input orientation:                          
 ---------------------------------------------------------------------
 Center     Atomic      Atomic             Coordinates (Angstroms)
 Number     Number       Type             X           Y           Z
 ---------------------------------------------------------------------
      1          6           0       -0.632627    0.059836   -0.331412
      2          6           0       -1.032240    1.409123    0.210510
      3          6           0       -1.308024   -1.067901    0.333894
      4          1           0        0.510346   -0.061449    0.015593
      5          1           0       -0.569774   -0.004409   -1.417033
      6          8           0       -0.235549    2.454141   -0.183724
      7          1           0       -2.036819    1.650305   -0.174842
      8          1           0       -1.119548    1.352824    1.310912
      9          8           0       -1.738433   -2.032967   -0.264688
     10          1           0       -1.091941   -1.212922    1.403284
     11          8           0        1.862325   -0.279555    0.290086
     12          8           0        2.895423   -0.750196   -0.134890
 ---------------------------------------------------------------------
                    Distance matrix (angstroms):
                    1          2          3          4          5
     1  C    0.000000
     2  C    1.507961   0.000000
     3  C    1.473290   2.495382   0.000000
     4  H    1.200628   2.140128   2.102553   0.000000
     5  H    1.089336   2.204733   2.177562   1.795085   0.000000
     6  O    2.431497   1.371932   3.717917   2.631402   2.770781
     7  H    2.127407   1.102653   2.859825   3.074803   2.536403
     8  H    2.146191   1.105295   2.617249   2.516858   3.096129
     9  O    2.367928   3.545773   1.214457   3.003739   2.609351
    10  H    2.200012   2.881215   1.100599   2.412240   3.112452
    11  O    2.593498   3.352085   3.267189   1.396698   2.984136
    12  O    3.625177   4.495387   4.241422   2.487089   3.769308
                    6          7          8          9         10
     6  O    0.000000
     7  H    1.972512   0.000000
     8  H    2.056280   1.771256   0.000000
     9  O    4.732795   3.696430   3.785381   0.000000
    10  H    4.086484   3.403138   2.567557   1.967882   0.000000
    11  O    3.478314   4.375368   3.549411   4.043227   3.292123
    12  O    4.480307   5.485528   4.757419   4.809883   4.298740
                   11         12
    11  O    0.000000
    12  O    1.212188   0.000000
 Stoichiometry    C3H5O4(4)
 Framework group  C1[X(C3H5O4)]
 Deg. of freedom    30
 Full point group                 C1      NOp   1
 Largest Abelian subgroup         C1      NOp   1
 Largest concise Abelian subgroup C1      NOp   1
                         Standard orientation:                         
 ---------------------------------------------------------------------
 Center     Atomic      Atomic             Coordinates (Angstroms)
 Number     Number       Type             X           Y           Z
 ---------------------------------------------------------------------
      1          6           0       -0.639852    0.035024   -0.329405
      2          6           0       -1.115439    1.359541    0.212276
      3          6           0       -1.244110   -1.129168    0.341500
      4          1           0        0.510088   -0.017981    0.011676
      5          1           0       -0.579025   -0.027657   -1.415233
      6          8           0       -0.383801    2.448867   -0.188066
      7          1           0       -2.134495    1.540310   -0.168105
      8          1           0       -1.193497    1.300478    1.313228
      9          8           0       -1.620033   -2.119158   -0.253064
     10          1           0       -1.014242   -1.258986    1.409969
     11          8           0        1.873994   -0.155475    0.279296
     12          8           0        2.930787   -0.565304   -0.150387
 ---------------------------------------------------------------------
 Rotational constants (GHZ):      2.2123875      1.7061857      1.0103040
 Standard basis: 6-311+G(2df,2p) (5D, 7F)
 There are   283 symmetry adapted basis functions of A   symmetry.
 Integral buffers will be    131072 words long.
 Raffenetti 2 integral format.
 Two-electron integral symmetry is turned on.
   283 basis functions,   419 primitive gaussians,   318 cartesian basis functions
    29 alpha electrons       26 beta electrons
       nuclear repulsion energy       278.6228713046 Hartrees.
 NAtoms=   12 NActive=   12 NUniq=   12 SFac= 1.00D+00 NAtFMM=   50 NAOKFM=F Big=F
 One-electron integrals computed using PRISM.
 NBasis=   283 RedAO= T  NBF=   283
 NBsUse=   283 1.00D-06 NBFU=   283
 Initial guess read from the read-write file.
 B after Tr=     0.000000    0.000000    0.000000
         Rot=    1.000000    0.000000    0.000000    0.000000 Ang=   0.00 deg.
 Initial guess orbital symmetries:
 Alpha Orbitals:
       Occupied  (A) (A) (A) (A) (A) (A) (A) (A) (A) (A) (A) (A)
                 (A) (A) (A) (A) (A) (A) (A) (A) (A) (A) (A) (A)
                 (A) (A) (A) (A) (A)
       Virtual   (A) (A) (A) (A) (A) (A) (A) (A) (A) (A) (A) (A)
                 (A) (A) (A) (A) (A) (A) (A) (A) (A) (A) (A) (A)
                 (A) (A) (A) (A) (A) (A) (A) (A) (A) (A) (A) (A)
                 (A) (A) (A) (A) (A) (A) (A) (A) (A) (A) (A) (A)
                 (A) (A) (A) (A) (A) (A) (A) (A) (A) (A) (A) (A)
                 (A) (A) (A) (A) (A) (A) (A) (A) (A) (A) (A) (A)
                 (A) (A) (A) (A) (A) (A) (A) (A) (A) (A) (A) (A)
                 (A) (A) (A) (A) (A) (A) (A) (A) (A) (A) (A) (A)
                 (A) (A) (A) (A) (A) (A) (A) (A) (A) (A) (A) (A)
                 (A) (A) (A) (A) (A) (A) (A) (A) (A) (A) (A) (A)
                 (A) (A) (A) (A) (A) (A) (A) (A) (A) (A) (A) (A)
                 (A) (A) (A) (A) (A) (A) (A) (A) (A) (A) (A) (A)
                 (A) (A) (A) (A) (A) (A) (A) (A) (A) (A) (A) (A)
                 (A) (A) (A) (A) (A) (A) (A) (A) (A) (A) (A) (A)
                 (A) (A) (A) (A) (A) (A) (A) (A) (A) (A) (A) (A)
                 (A) (A) (A) (A) (A) (A) (A) (A) (A) (A) (A) (A)
                 (A) (A) (A) (A) (A) (A) (A) (A) (A) (A) (A) (A)
                 (A) (A) (A) (A) (A) (A) (A) (A) (A) (A) (A) (A)
                 (A) (A) (A) (A) (A) (A) (A) (A) (A) (A) (A) (A)
                 (A) (A) (A) (A) (A) (A) (A) (A) (A) (A) (A) (A)
                 (A) (A) (A) (A) (A) (A) (A) (A) (A) (A) (A) (A)
                 (A) (A)
 Beta  Orbitals:
       Occupied  (A) (A) (A) (A) (A) (A) (A) (A) (A) (A) (A) (A)
                 (A) (A) (A) (A) (A) (A) (A) (A) (A) (A) (A) (A)
                 (A) (A)
       Virtual   (A) (A) (A) (A) (A) (A) (A) (A) (A) (A) (A) (A)
                 (A) (A) (A) (A) (A) (A) (A) (A) (A) (A) (A) (A)
                 (A) (A) (A) (A) (A) (A) (A) (A) (A) (A) (A) (A)
                 (A) (A) (A) (A) (A) (A) (A) (A) (A) (A) (A) (A)
                 (A) (A) (A) (A) (A) (A) (A) (A) (A) (A) (A) (A)
                 (A) (A) (A) (A) (A) (A) (A) (A) (A) (A) (A) (A)
                 (A) (A) (A) (A) (A) (A) (A) (A) (A) (A) (A) (A)
                 (A) (A) (A) (A) (A) (A) (A) (A) (A) (A) (A) (A)
                 (A) (A) (A) (A) (A) (A) (A) (A) (A) (A) (A) (A)
                 (A) (A) (A) (A) (A) (A) (A) (A) (A) (A) (A) (A)
                 (A) (A) (A) (A) (A) (A) (A) (A) (A) (A) (A) (A)
                 (A) (A) (A) (A) (A) (A) (A) (A) (A) (A) (A) (A)
                 (A) (A) (A) (A) (A) (A) (A) (A) (A) (A) (A) (A)
                 (A) (A) (A) (A) (A) (A) (A) (A) (A) (A) (A) (A)
                 (A) (A) (A) (A) (A) (A) (A) (A) (A) (A) (A) (A)
                 (A) (A) (A) (A) (A) (A) (A) (A) (A) (A) (A) (A)
                 (A) (A) (A) (A) (A) (A) (A) (A) (A) (A) (A) (A)
                 (A) (A) (A) (A) (A) (A) (A) (A) (A) (A) (A) (A)
                 (A) (A) (A) (A) (A) (A) (A) (A) (A) (A) (A) (A)
                 (A) (A) (A) (A) (A) (A) (A) (A) (A) (A) (A) (A)
                 (A) (A) (A) (A) (A) (A) (A) (A) (A) (A) (A) (A)
                 (A) (A) (A) (A) (A)
 Initial guess <Sx>= 0.0000 <Sy>= 0.0000 <Sz>= 1.5000 <S**2>= 3.7693 S= 1.5048
 Harris functional with IExCor= 1009 diagonalized for initial guess.
 ExpMin= 4.38D-02 ExpMax= 8.59D+03 ExpMxC= 1.30D+03 IAcc=2 IRadAn=         0 AccDes= 0.00D+00
 HarFok:  IExCor= 1009 AccDes= 0.00D+00 IRadAn=         0 IDoV= 1
 ScaDFX=  1.000000  1.000000  1.000000  1.000000
 FoFCou: FMM=F IPFlag=           0 FMFlag=      100000 FMFlg1=           0
         NFxFlg=           0 DoJE=T BraDBF=F KetDBF=T FulRan=T
         Omega=  0.000000  0.000000  1.000000  0.000000  0.000000 ICntrl=     500 IOpCl=  0
         NMat0=    1 NMatS0=    1 NMatT0=    0 NMatD0=    1 NMtDS0=    0 NMtDT0=    0
         I1Cent=           4 NGrid=           0.
 Petite list used in FoFCou.
 Requested convergence on RMS density matrix=1.00D-08 within 128 cycles.
 Requested convergence on MAX density matrix=1.00D-06.
 Requested convergence on             energy=1.00D-06.
 No special actions if energy rises.
[...]
 Alpha virt. eigenvalues --    2.62616   2.66423   2.76105   2.77542   2.82037
 Alpha virt. eigenvalues --    2.83813   2.85404   2.92295   2.98190   2.99468
 Alpha virt. eigenvalues --    3.04126   3.05937   3.07197   3.13083   3.13873
 Alpha virt. eigenvalues --    3.16684   3.18923   3.23112   3.27123   3.29224
 Alpha virt. eigenvalues --    3.33447   3.36648   3.38237   3.43150   3.47129
 Alpha virt. eigenvalues --    3.48460   3.51669   3.55488   3.58396   3.63098
 Alpha virt. eigenvalues --    3.63497   3.70292   3.72146   3.75999   3.80305
 Alpha virt. eigenvalues --    3.84612   3.87745   3.89403   3.93660   3.95485
 Alpha virt. eigenvalues --    3.98088   4.05804   4.13637   4.14540   4.17469
 Alpha virt. eigenvalues --    4.21838   4.24301   4.27859   4.35436   4.38199
 Alpha virt. eigenvalues --    4.41885   4.44079   4.47815   4.48644   4.49270
 Alpha virt. eigenvalues --    4.49530   4.51133   4.54588   4.57141   4.68498
 Alpha virt. eigenvalues --    4.78909   4.81898   4.82126   4.83397   4.92382
 Alpha virt. eigenvalues --    4.96024   5.00021   5.02932   5.03835   5.05905
 Alpha virt. eigenvalues --    5.07154   5.07751   5.08408   5.08781   5.09517
 Alpha virt. eigenvalues --    5.11305   5.13307   5.18361   5.21313   5.26852
 Alpha virt. eigenvalues --    5.27775   5.28510   5.31560   5.38440   5.39435
 Alpha virt. eigenvalues --    5.45345   5.47816   5.49844   5.51317   5.61704
 Alpha virt. eigenvalues --    5.68872   5.69098   5.80706   5.87392   5.93374
 Alpha virt. eigenvalues --    6.31265   6.55228   6.56270   6.60538   6.64842
 Alpha virt. eigenvalues --    6.69389   6.71767   6.74189   6.74558   6.75820
 Alpha virt. eigenvalues --    6.76973   6.78184   6.84420   6.88543   6.89106
 Alpha virt. eigenvalues --    6.91830   7.07651   7.16556   7.21415   7.23613
 Alpha virt. eigenvalues --    7.25359   7.26072   7.38509   7.50704   7.60631
 Alpha virt. eigenvalues --    7.98046   8.00650  24.32552  24.46160  24.65693
 Alpha virt. eigenvalues --   49.96362  50.04691  50.11502  50.25981
  Beta  occ. eigenvalues --  -19.76402 -19.76313 -19.67165 -19.64297 -10.64540
  Beta  occ. eigenvalues --  -10.62009 -10.56193  -1.39375  -1.19541  -1.11968
  Beta  occ. eigenvalues --   -0.89028  -0.85496  -0.73377  -0.68378  -0.59766
  Beta  occ. eigenvalues --   -0.59030  -0.55819  -0.54901  -0.54533  -0.54103
  Beta  occ. eigenvalues --   -0.52152  -0.49574  -0.47010  -0.44876  -0.37037
  Beta  occ. eigenvalues --   -0.34080
  Beta virt. eigenvalues --   -0.09895  -0.05409  -0.05286  -0.00627   0.01099
  Beta virt. eigenvalues --    0.02618   0.03035   0.03632   0.06669   0.06887
  Beta virt. eigenvalues --    0.07359   0.07870   0.08505   0.11014   0.11812
  Beta virt. eigenvalues --    0.13062   0.15313   0.16255   0.17660   0.19221
  Beta virt. eigenvalues --    0.20106   0.20225   0.21087   0.22406   0.23159
  Beta virt. eigenvalues --    0.23464   0.24818   0.25692   0.26508   0.27015
  Beta virt. eigenvalues --    0.27290   0.28239   0.28781   0.31341   0.32206
  Beta virt. eigenvalues --    0.32548   0.34015   0.36087   0.37896   0.39249
  Beta virt. eigenvalues --    0.40111   0.41782   0.43707   0.49447   0.49807
  Beta virt. eigenvalues --    0.51422   0.54758   0.55126   0.56109   0.58664
  Beta virt. eigenvalues --    0.59798   0.61061   0.63078   0.63741   0.65986
  Beta virt. eigenvalues --    0.66799   0.68146   0.74195   0.76280   0.77801
  Beta virt. eigenvalues --    0.82274   0.82913   0.84555   0.93916   0.94695
  Beta virt. eigenvalues --    0.97929   1.00504   1.00877   1.02104   1.03875
  Beta virt. eigenvalues --    1.05032   1.07266   1.07907   1.08807   1.09716
  Beta virt. eigenvalues --    1.10959   1.11553   1.13392   1.14711   1.15228
  Beta virt. eigenvalues --    1.16430   1.17918   1.18687   1.20238   1.23046
  Beta virt. eigenvalues --    1.24618   1.26530   1.29527   1.30145   1.33667
  Beta virt. eigenvalues --    1.35898   1.36806   1.37562   1.39243   1.40089
  Beta virt. eigenvalues --    1.41125   1.43874   1.45640   1.47424   1.48961
  Beta virt. eigenvalues --    1.49574   1.52066   1.53314   1.56262   1.59779
  Beta virt. eigenvalues --    1.64337   1.65941   1.69495   1.70801   1.73457
  Beta virt. eigenvalues --    1.74742   1.79544   1.83091   1.84150   1.95034
  Beta virt. eigenvalues --    2.05666   2.10046   2.13817   2.28168   2.31236
  Beta virt. eigenvalues --    2.31728   2.32650   2.35460   2.45636   2.49034
  Beta virt. eigenvalues --    2.53181   2.54973   2.59178   2.62869   2.66454
  Beta virt. eigenvalues --    2.76020   2.77463   2.82028   2.83710   2.85345
  Beta virt. eigenvalues --    2.92267   2.98100   2.99244   3.04039   3.05825
  Beta virt. eigenvalues --    3.07115   3.12975   3.13790   3.16511   3.18552
  Beta virt. eigenvalues --    3.22987   3.26906   3.28924   3.33289   3.36567
  Beta virt. eigenvalues --    3.38192   3.43210   3.46493   3.48245   3.51358
  Beta virt. eigenvalues --    3.55311   3.58344   3.62901   3.63361   3.70217
  Beta virt. eigenvalues --    3.72005   3.76175   3.79986   3.84404   3.87572
  Beta virt. eigenvalues --    3.89382   3.93513   3.95396   3.97839   4.05693
  Beta virt. eigenvalues --    4.13587   4.14290   4.17380   4.21434   4.24171
  Beta virt. eigenvalues --    4.27463   4.35350   4.37829   4.41743   4.44139
  Beta virt. eigenvalues --    4.48145   4.51138   4.51397   4.51844   4.53819
  Beta virt. eigenvalues --    4.54729   4.57254   4.68555   4.79182   4.84475
  Beta virt. eigenvalues --    4.84726   4.85784   4.97518   5.00059   5.01956
  Beta virt. eigenvalues --    5.06917   5.07206   5.08166   5.08694   5.09555
  Beta virt. eigenvalues --    5.11320   5.11468   5.13499   5.14804   5.15971
  Beta virt. eigenvalues --    5.19209   5.22440   5.28677   5.29923   5.30110
  Beta virt. eigenvalues --    5.32815   5.39249   5.39765   5.45432   5.48237
  Beta virt. eigenvalues --    5.50012   5.51481   5.61909   5.70560   5.70764
  Beta virt. eigenvalues --    5.80773   5.90946   5.93807   6.31281   6.61442
  Beta virt. eigenvalues --    6.64698   6.66996   6.68452   6.78698   6.78952
  Beta virt. eigenvalues --    6.81309   6.81507   6.83612   6.84998   6.86866
  Beta virt. eigenvalues --    6.90069   6.91116   6.93037   6.96272   7.07839
  Beta virt. eigenvalues --    7.21879   7.26008   7.26448   7.27189   7.29908
  Beta virt. eigenvalues --    7.38549   7.55332   7.60639   8.00831   8.01015
  Beta virt. eigenvalues --   24.32508  24.45982  24.65685  49.95004  50.04298
  Beta virt. eigenvalues --   50.10152  50.25976
          Condensed to atoms (all electrons):
              1          2          3          4          5          6
     1  C    5.697872  -0.094882   0.047667   0.447956   0.438817  -0.123202
     2  C   -0.094882   5.432872   0.004891  -0.042273  -0.025369   0.191797
     3  C    0.047667   0.004891   5.179157  -0.052572  -0.050182   0.032221
     4  H    0.447956  -0.042273  -0.052572   0.488799  -0.027939   0.005659
     5  H    0.438817  -0.025369  -0.050182  -0.027939   0.468314   0.001441
     6  O   -0.123202   0.191797   0.032221   0.005659   0.001441   8.128632
     7  H   -0.054230   0.436447  -0.000905   0.004751  -0.006219  -0.032588
     8  H   -0.030193   0.417347  -0.025855  -0.005171   0.004349  -0.028639
     9  O   -0.070665  -0.018884   0.341040  -0.000460   0.002659  -0.000895
    10  H    0.023835  -0.020169   0.347372  -0.003026   0.003377  -0.001378
    11  O    0.009844   0.010699  -0.009746  -0.000531  -0.000659  -0.000045
    12  O   -0.000681   0.004876   0.016202   0.000056   0.001155   0.000022
              7          8          9         10         11         12
     1  C   -0.054230  -0.030193  -0.070665   0.023835   0.009844  -0.000681
     2  C    0.436447   0.417347  -0.018884  -0.020169   0.010699   0.004876
     3  C   -0.000905  -0.025855   0.341040   0.347372  -0.009746   0.016202
     4  H    0.004751  -0.005171  -0.000460  -0.003026  -0.000531   0.000056
     5  H   -0.006219   0.004349   0.002659   0.003377  -0.000659   0.001155
     6  O   -0.032588  -0.028639  -0.000895  -0.001378  -0.000045   0.000022
     7  H    0.512655  -0.031690   0.000110  -0.000407  -0.000016   0.000011
     8  H   -0.031690   0.525328   0.001197   0.002942  -0.000025   0.000009
     9  O    0.000110   0.001197   8.089284  -0.042665  -0.003614  -0.000419
    10  H   -0.000407   0.002942  -0.042665   0.554797   0.000509  -0.000490
    11  O   -0.000016  -0.000025  -0.003614   0.000509   7.680579   0.318376
    12  O    0.000011   0.000009  -0.000419  -0.000490   0.318376   7.619812
 Mulliken atomic charges:
              1
     1  C   -0.292139
     2  C   -0.297351
     3  C    0.170711
     4  H    0.184750
     5  H    0.190257
     6  O   -0.173025
     7  H    0.172081
     8  H    0.170402
     9  O   -0.296689
    10  H    0.135303
    11  O   -0.005370
    12  O    0.041071
 Sum of Mulliken atomic charges =   0.00000
 Mulliken charges with hydrogens summed into heavy atoms:
              1
     1  C    0.082868
     2  C    0.045132
     3  C    0.306014
     6  O   -0.173025
     9  O   -0.296689
    11  O   -0.005370
    12  O    0.041071
 Sum of Mulliken charges with hydrogens summed into heavy atoms =   0.00000
          Atomic-Atomic Spin Densities.
              1          2          3          4          5          6
     1  C    0.002239   0.019848  -0.013739   0.000068  -0.005605  -0.015320
     2  C    0.019848  -0.089352   0.005186  -0.002068   0.001900  -0.006424
     3  C   -0.013739   0.005186   0.004634   0.001662   0.001688  -0.000159
     4  H    0.000068  -0.002068   0.001662   0.006414  -0.000602   0.000927
     5  H   -0.005605   0.001900   0.001688  -0.000602   0.006519   0.002174
     6  O   -0.015320  -0.006424  -0.000159   0.000927   0.002174   0.956405
     7  H    0.018418   0.000284  -0.000617   0.000879  -0.002337  -0.010364
     8  H   -0.012414   0.036502  -0.000303  -0.002413   0.001365  -0.029082
     9  O   -0.002840   0.000980   0.005301   0.000019  -0.000191  -0.000015
    10  H   -0.000201   0.000455   0.001027   0.000090  -0.000072   0.000022
    11  O    0.010322  -0.003469  -0.009721  -0.000562   0.000199  -0.000095
    12  O   -0.003486   0.000844   0.005424   0.000007   0.000131   0.000020
              7          8          9         10         11         12
     1  C    0.018418  -0.012414  -0.002840  -0.000201   0.010322  -0.003486
     2  C    0.000284   0.036502   0.000980   0.000455  -0.003469   0.000844
     3  C   -0.000617  -0.000303   0.005301   0.001027  -0.009721   0.005424
     4  H    0.000879  -0.002413   0.000019   0.000090  -0.000562   0.000007
     5  H   -0.002337   0.001365  -0.000191  -0.000072   0.000199   0.000131
     6  O   -0.010364  -0.029082  -0.000015   0.000022  -0.000095   0.000020
     7  H    0.061166  -0.021339  -0.000334   0.000085   0.000008   0.000003
     8  H   -0.021339   0.114195   0.000469  -0.000448  -0.000005  -0.000002
     9  O   -0.000334   0.000469  -0.001013  -0.000667   0.000598   0.000617
    10  H    0.000085  -0.000448  -0.000667  -0.001245   0.000012   0.000021
    11  O    0.000008  -0.000005   0.000598   0.000012   1.441879  -0.442106
    12  O    0.000003  -0.000002   0.000617   0.000021  -0.442106   1.437048
 Mulliken atomic spin densities:
              1
     1  C   -0.002711
     2  C   -0.035316
     3  C    0.000382
     4  H    0.004421
     5  H    0.005171
     6  O    0.898089
     7  H    0.045853
     8  H    0.086525
     9  O    0.002925
    10  H   -0.000920
    11  O    0.997059
    12  O    0.998523
 Sum of Mulliken atomic spin densities =   3.00000
 Electronic spatial extent (au):  <R**2>=           1174.1786
 Charge=              0.0000 electrons
 Dipole moment (field-independent basis, Debye):
    X=              0.9285    Y=              0.2266    Z=              1.3209  Tot=              1.6304
 Quadrupole moment (field-independent basis, Debye-Ang):
   XX=            -45.5489   YY=            -44.7997   ZZ=            -38.3584
   XY=              8.3529   XZ=             -0.2259   YZ=              2.1133
 Traceless Quadrupole moment (field-independent basis, Debye-Ang):
   XX=             -2.6466   YY=             -1.8974   ZZ=              4.5440
   XY=              8.3529   XZ=             -0.2259   YZ=              2.1133
 Octapole moment (field-independent basis, Debye-Ang**2):
  XXX=            -34.8119  YYY=             -9.1961  ZZZ=             -0.4006  XYY=             -5.5616
  XXY=             12.4405  XXZ=              0.1588  XZZ=             -0.9443  YZZ=             -1.8123
  YYZ=              3.0400  XYZ=             -0.6921
 Hexadecapole moment (field-independent basis, Debye-Ang**3):
 XXXX=          -1097.0639 YYYY=           -292.6447 ZZZZ=            -73.1422 XXXY=             60.1044
 XXXZ=              9.1656 YYYX=             22.7476 YYYZ=              4.0048 ZZZX=             -0.8255
 ZZZY=              0.8460 XXYY=           -234.2422 XXZZ=           -173.1745 YYZZ=            -55.7020
 XXYZ=              0.7737 YYXZ=             -2.8607 ZZXY=              2.2316
 N-N= 2.735529010852D+02 E-N=-2.267791992092D+03  KE= 6.203010312350D+02
                          Isotropic Fermi Contact Couplings
        Atom                 a.u.       MegaHertz       Gauss      10(-4) cm-1
     1  C(13)             -0.00021      -0.08012      -0.02859      -0.02672
     2  C(13)             -0.03155     -11.82429      -4.21920      -3.94416
     3  C(13)             -0.00185      -0.69175      -0.24683      -0.23074
     4  H(1)               0.00019       0.27670       0.09873       0.09230
     5  H(1)               0.00042       0.62024       0.22132       0.20689
     6  O(17)              0.13376     -27.02785      -9.64421      -9.01552
     7  H(1)               0.02245      33.45068      11.93604      11.15795
     8  H(1)               0.04634      69.05086      24.63906      23.03289
     9  O(17)             -0.00032       0.06529       0.02330       0.02178
    10  H(1)               0.00031       0.46447       0.16573       0.15493
    11  O(17)              0.17909     -36.18868     -12.91302     -12.07124
    12  O(17)              0.18706     -37.79814     -13.48731     -12.60810
 --------------------------------------------------------
       Center         ----  Spin Dipole Couplings  ----
                      3XX-RR        3YY-RR        3ZZ-RR
 --------------------------------------------------------
     1   Atom        0.033409     -0.013810     -0.019599
     2   Atom       -0.016014      0.007171      0.008843
     3   Atom        0.009782     -0.001401     -0.008380
     4   Atom        0.026598     -0.015433     -0.011165
     5   Atom        0.026832     -0.014908     -0.011924
     6   Atom       -1.553596     -1.654138      3.207734
     7   Atom       -0.006508      0.014614     -0.008105
     8   Atom       -0.008100      0.012760     -0.004660
     9   Atom       -0.002385      0.010777     -0.008392
    10   Atom        0.004576      0.000309     -0.004885
    11   Atom       -0.251971      0.758622     -0.506651
    12   Atom       -0.239008      0.756875     -0.517867
 --------------------------------------------------------
                        XY            XZ            YZ
 --------------------------------------------------------
     1   Atom       -0.001316      0.000609      0.001781
     2   Atom       -0.033606      0.011621      0.007201
     3   Atom        0.006520      0.001682      0.003801
     4   Atom       -0.000170      0.001298      0.000573
     5   Atom        0.001346     -0.001967     -0.001338
     6   Atom        0.180644      1.021295      0.804868
     7   Atom       -0.001310     -0.000343     -0.016364
     8   Atom       -0.003563      0.002813      0.018974
     9   Atom        0.012534     -0.001084      0.006559
    10   Atom        0.001870      0.001236      0.004076
    11   Atom        0.897030      1.644603     -0.972085
    12   Atom        0.888866      1.660247     -0.974720
 --------------------------------------------------------


 ---------------------------------------------------------------------------------
              Anisotropic Spin Dipole Couplings in Principal Axis System
 ---------------------------------------------------------------------------------

       Atom             a.u.   MegaHertz   Gauss  10(-4) cm-1        Axes

              Baa    -0.0201    -2.700    -0.963    -0.901 -0.0177 -0.2751  0.9613
     1 C(13)  Bbb    -0.0133    -1.789    -0.638    -0.597  0.0235  0.9610  0.2754
              Bcc     0.0335     4.489     1.602     1.497  0.9996 -0.0274  0.0106
 
              Baa    -0.0435    -5.841    -2.084    -1.948  0.7897  0.5593 -0.2521
     2 C(13)  Bbb     0.0124     1.658     0.592     0.553  0.1788  0.1833  0.9667
              Bcc     0.0312     4.182     1.492     1.395 -0.5869  0.8085 -0.0447
 
              Baa    -0.0101    -1.359    -0.485    -0.453  0.0689 -0.4413  0.8947
     3 C(13)  Bbb    -0.0031    -0.418    -0.149    -0.139 -0.4523  0.7855  0.4223
              Bcc     0.0132     1.776     0.634     0.593  0.8892  0.4338  0.1455
 
              Baa    -0.0155    -8.276    -2.953    -2.761  0.0081  0.9911 -0.1332
     4 H(1)   Bbb    -0.0111    -5.939    -2.119    -1.981 -0.0335  0.1334  0.9905
              Bcc     0.0266    14.215     5.072     4.742  0.9994 -0.0036  0.0343
 
              Baa    -0.0154    -8.232    -2.937    -2.746 -0.0135  0.9366  0.3501
     5 H(1)   Bbb    -0.0116    -6.163    -2.199    -2.056  0.0602 -0.3487  0.9353
              Bcc     0.0270    14.395     5.136     4.802  0.9981  0.0337 -0.0516
 
              Baa    -1.7924   129.699    46.280    43.263 -0.4729  0.8799 -0.0450
     6 O(17)  Bbb    -1.7559   127.054    45.336    42.381  0.8583  0.4485 -0.2493
              Bcc     3.5483  -256.753   -91.616   -85.644  0.1992  0.1566  0.9674
 
              Baa    -0.0167    -8.936    -3.189    -2.981  0.0888  0.4637  0.8815
     7 H(1)   Bbb    -0.0065    -3.447    -1.230    -1.150  0.9955 -0.0114 -0.0943
              Bcc     0.0232    12.383     4.419     4.131 -0.0337  0.8859 -0.4626
 
              Baa    -0.0186    -9.919    -3.539    -3.309 -0.3801 -0.5101  0.7715
     8 H(1)   Bbb    -0.0064    -3.416    -1.219    -1.140  0.9238 -0.1685  0.3437
              Bcc     0.0250    13.336     4.759     4.448 -0.0453  0.8434  0.5353
 
              Baa    -0.0139     1.007     0.359     0.336  0.5738 -0.4696  0.6710
     9 O(17)  Bbb    -0.0054     0.390     0.139     0.130 -0.6599  0.2202  0.7184
              Bcc     0.0193    -1.396    -0.498    -0.466  0.4851  0.8550  0.1835
 
              Baa    -0.0071    -3.801    -1.356    -1.268 -0.0165 -0.4776  0.8784
    10 H(1)   Bbb     0.0011     0.591     0.211     0.197 -0.5410  0.7431  0.3938
              Bcc     0.0060     3.210     1.145     1.071  0.8409  0.4687  0.2706
 
              Baa    -2.5566   184.993    66.010    61.707 -0.6308  0.3706  0.6818
    11 O(17)  Bbb     1.2700   -91.897   -32.791   -30.653  0.7575  0.1036  0.6445
              Bcc     1.2866   -93.096   -33.219   -31.053  0.1682  0.9230 -0.3461
 
              Baa    -2.5679   185.812    66.302    61.980 -0.6288  0.3688  0.6846
    12 O(17)  Bbb     1.2777   -92.451   -32.989   -30.838  0.5565  0.8283  0.0649
              Bcc     1.2902   -93.361   -33.313   -31.142  0.5431 -0.4218  0.7261
 

 ---------------------------------------------------------------------------------



 THE MORE ACCURATE THE CALCULATIONS BECOME, THE MORE THE CONCEPTS
 TEND TO VANISH INTO THIN AIR.
     -- R.S. MULLIKEN, J.C.P. 43,S2(1965)
 Error termination request processed by link 9999.
 Error termination via Lnk1e in /shared/apps/gaussian/G09_LINUX_LINDA/g09/l9999.exe at Sat Aug 19 02:32:44 2017.
 Job cpu time:  1 days 22 hours 49 minutes 12.8 seconds.
 File lengths (MBytes):  RWF=   2480 Int=      0 D2E=      0 Chk=     32 Scr=     32
