 Entering Gaussian System, Link 0=/shared/apps/gaussian/G09_LINUX_LINDA/g09/g09
 Input=/gss_gpfs_scratch/harms.n/QMscratch/[O]CC1C=CC=CC=1+[O]O_OO+[O][CH]C1C=CC=CC=1RxnC.gjf
 Output=/gss_gpfs_scratch/harms.n/QMscratch/[O]CC1C=CC=CC=1+[O]O_OO+[O][CH]C1C=CC=CC=1RxnC.log
 Initial command:
 /shared/apps/gaussian/G09_LINUX_LINDA/g09/l1.exe /gss_gpfs_scratch/harms.n/comparerTST/Gau-18964.inp -scrdir=/gss_gpfs_scratch/harms.n/comparerTST/
 Entering Link 1 = /shared/apps/gaussian/G09_LINUX_LINDA/g09/l1.exe PID=     18965.
  
 Copyright (c) 1988,1990,1992,1993,1995,1998,2003,2009,2010,
            Gaussian, Inc.  All Rights Reserved.
  
 This is part of the Gaussian(R) 09 program.  It is based on
 the Gaussian(R) 03 system (copyright 2003, Gaussian, Inc.),
 the Gaussian(R) 98 system (copyright 1998, Gaussian, Inc.),
 the Gaussian(R) 94 system (copyright 1995, Gaussian, Inc.),
 the Gaussian 92(TM) system (copyright 1992, Gaussian, Inc.),
 the Gaussian 90(TM) system (copyright 1990, Gaussian, Inc.),
 the Gaussian 88(TM) system (copyright 1988, Gaussian, Inc.),
 the Gaussian 86(TM) system (copyright 1986, Carnegie Mellon
 University), and the Gaussian 82(TM) system (copyright 1983,
 Carnegie Mellon University). Gaussian is a federally registered
 trademark of Gaussian, Inc.
  
 This software contains proprietary and confidential information,
 including trade secrets, belonging to Gaussian, Inc.
  
 This software is provided under written license and may be
 used, copied, transmitted, or stored only in accord with that
 written license.
  
 The following legend is applicable only to US Government
 contracts under FAR:
  
                    RESTRICTED RIGHTS LEGEND
  
 Use, reproduction and disclosure by the US Government is
 subject to restrictions as set forth in subparagraphs (a)
 and (c) of the Commercial Computer Software - Restricted
 Rights clause in FAR 52.227-19.
  
 Gaussian, Inc.
 340 Quinnipiac St., Bldg. 40, Wallingford CT 06492
  
  
 ---------------------------------------------------------------
 Warning -- This program may not be used in any manner that
 competes with the business of Gaussian, Inc. or will provide
 assistance to any competitor of Gaussian, Inc.  The licensee
 of this program is prohibited from giving any competitor of
 Gaussian, Inc. access to this program.  By using this program,
 the user acknowledges that Gaussian, Inc. is engaged in the
 business of creating and licensing software in the field of
 computational chemistry and represents and warrants to the
 licensee that it is not a competitor of Gaussian, Inc. and that
 it will not use this program in any manner prohibited above.
 ---------------------------------------------------------------
  

 Cite this work as:
 Gaussian 09, Revision B.01,
 M. J. Frisch, G. W. Trucks, H. B. Schlegel, G. E. Scuseria, 
 M. A. Robb, J. R. Cheeseman, G. Scalmani, V. Barone, B. Mennucci, 
 G. A. Petersson, H. Nakatsuji, M. Caricato, X. Li, H. P. Hratchian, 
 A. F. Izmaylov, J. Bloino, G. Zheng, J. L. Sonnenberg, M. Hada, 
 M. Ehara, K. Toyota, R. Fukuda, J. Hasegawa, M. Ishida, T. Nakajima, 
 Y. Honda, O. Kitao, H. Nakai, T. Vreven, J. A. Montgomery, Jr., 
 J. E. Peralta, F. Ogliaro, M. Bearpark, J. J. Heyd, E. Brothers, 
 K. N. Kudin, V. N. Staroverov, T. Keith, R. Kobayashi, J. Normand, 
 K. Raghavachari, A. Rendell, J. C. Burant, S. S. Iyengar, J. Tomasi, 
 M. Cossi, N. Rega, J. M. Millam, M. Klene, J. E. Knox, J. B. Cross, 
 V. Bakken, C. Adamo, J. Jaramillo, R. Gomperts, R. E. Stratmann, 
 O. Yazyev, A. J. Austin, R. Cammi, C. Pomelli, J. W. Ochterski, 
 R. L. Martin, K. Morokuma, V. G. Zakrzewski, G. A. Voth, 
 P. Salvador, J. J. Dannenberg, S. Dapprich, A. D. Daniels, 
 O. Farkas, J. B. Foresman, J. V. Ortiz, J. Cioslowski, 
 and D. J. Fox, Gaussian, Inc., Wallingford CT, 2010.
 
 ******************************************
 Gaussian 09:  EM64L-G09RevB.01 12-Aug-2010
                29-Sep-2017 
 ******************************************
 %nprocshared=20
 Will use up to   20 processors via shared memory.
 %mem=5GB
 ---------------------------------------------------
 # m062x/6-311+g(2df,2p) opt=(ts,calcfc,noeigentest)
 ---------------------------------------------------
 1/5=1,10=4,11=1,14=-1,18=20,26=3,38=1/1,3;
 2/9=110,12=2,17=6,18=5,40=1/2;
 3/5=4,6=6,7=214,11=2,16=1,25=1,30=1,71=2,74=-55/1,2,3;
 4//1;
 5/5=2,38=5/2;
 8/6=4,10=90,11=11/1;
 11/6=1,8=1,9=11,15=111,16=1/1,2,10;
 10/6=1,7=6,13=1/2;
 6/7=2,8=2,9=2,10=2,28=1/1;
 7/10=1,18=20,25=1/1,2,3,16;
 1/5=1,10=4,11=1,14=-1,18=20/3(2);
 2/9=110/2;
 99//99;
 2/9=110/2;
 3/5=4,6=6,7=214,11=2,16=1,25=1,30=1,71=1,74=-55/1,2,3;
 4/5=5,16=3/1;
 5/5=2,38=5/2;
 7//1,2,3,16;
 1/5=1,11=1,14=-1,18=20/3(-5);
 2/9=110/2;
 6/7=2,8=2,9=2,10=2,19=2,28=1/1;
 99/9=1/99;
 ------------------------------------------
 [O]CC1C=CC=CC=1+[O]O_OO+[O][CH]C1C=CC=CC=1
 ------------------------------------------
 Symbolic Z-matrix:
 Charge =  0 Multiplicity = 3
 C                     1.35276  -0.96514   0.68282 
 C                    -0.07379  -0.59418   0.38485 
 C                    -0.85413   0.0758    1.33163 
 C                    -0.59901  -0.81029  -0.89387 
 C                    -2.12753   0.51631   1.00965 
 C                    -2.64202   0.30508  -0.26632 
 C                    -1.87618  -0.36073  -1.2134 
 O                     2.02108  -1.65246  -0.18347 
 H                     1.85701   0.23593   0.48513 
 H                     1.55384  -1.1236    1.7559 
 H                    -0.45439   0.24287   2.32462 
 H                    -2.72322   1.02969   1.75144 
 H                    -3.63412   0.65531  -0.51392 
 H                    -2.27599  -0.53887  -2.20206 
 H                     0.00613  -1.35251  -1.60869 
 O                     1.47449   1.6572   -0.86488 
 O                     2.23221   1.35709   0.13682 
 H                     0.76796   0.95544  -0.91238 
 

 GradGradGradGradGradGradGradGradGradGradGradGradGradGradGradGradGradGrad
 Berny optimization.
 Initialization pass.
                           ----------------------------
                           !    Initial Parameters    !
                           ! (Angstroms and Degrees)  !
 --------------------------                            --------------------------
 ! Name  Definition              Value          Derivative Info.                !
 --------------------------------------------------------------------------------
 ! R1    R(1,2)                  1.5038         calculate D2E/DX2 analytically  !
 ! R2    R(1,8)                  1.2921         calculate D2E/DX2 analytically  !
 ! R3    R(1,9)                  1.3175         calculate D2E/DX2 analytically  !
 ! R4    R(1,10)                 1.1032         calculate D2E/DX2 analytically  !
 ! R5    R(2,3)                  1.3979         calculate D2E/DX2 analytically  !
 ! R6    R(2,4)                  1.3992         calculate D2E/DX2 analytically  !
 ! R7    R(3,5)                  1.3854         calculate D2E/DX2 analytically  !
 ! R8    R(3,11)                 1.0834         calculate D2E/DX2 analytically  !
 ! R9    R(4,7)                  1.3912         calculate D2E/DX2 analytically  !
 ! R10   R(4,15)                 1.0822         calculate D2E/DX2 analytically  !
 ! R11   R(5,6)                  1.3919         calculate D2E/DX2 analytically  !
 ! R12   R(5,12)                 1.081          calculate D2E/DX2 analytically  !
 ! R13   R(6,7)                  1.3881         calculate D2E/DX2 analytically  !
 ! R14   R(6,13)                 1.0808         calculate D2E/DX2 analytically  !
 ! R15   R(7,14)                 1.0812         calculate D2E/DX2 analytically  !
 ! R16   R(9,17)                 1.2325         calculate D2E/DX2 analytically  !
 ! R17   R(16,17)                1.2914         calculate D2E/DX2 analytically  !
 ! R18   R(16,18)                0.9969         calculate D2E/DX2 analytically  !
 ! A1    A(2,1,8)              119.2771         calculate D2E/DX2 analytically  !
 ! A2    A(2,1,9)               96.226          calculate D2E/DX2 analytically  !
 ! A3    A(2,1,10)             113.6456         calculate D2E/DX2 analytically  !
 ! A4    A(8,1,9)              100.7405         calculate D2E/DX2 analytically  !
 ! A5    A(8,1,10)             118.781          calculate D2E/DX2 analytically  !
 ! A6    A(9,1,10)             101.9545         calculate D2E/DX2 analytically  !
 ! A7    A(1,2,3)              120.9013         calculate D2E/DX2 analytically  !
 ! A8    A(1,2,4)              119.9395         calculate D2E/DX2 analytically  !
 ! A9    A(3,2,4)              118.9109         calculate D2E/DX2 analytically  !
 ! A10   A(2,3,5)              120.5363         calculate D2E/DX2 analytically  !
 ! A11   A(2,3,11)             119.2555         calculate D2E/DX2 analytically  !
 ! A12   A(5,3,11)             120.2074         calculate D2E/DX2 analytically  !
 ! A13   A(2,4,7)              120.3063         calculate D2E/DX2 analytically  !
 ! A14   A(2,4,15)             118.1083         calculate D2E/DX2 analytically  !
 ! A15   A(7,4,15)             121.5705         calculate D2E/DX2 analytically  !
 ! A16   A(3,5,6)              120.3015         calculate D2E/DX2 analytically  !
 ! A17   A(3,5,12)             119.8695         calculate D2E/DX2 analytically  !
 ! A18   A(6,5,12)             119.8286         calculate D2E/DX2 analytically  !
 ! A19   A(5,6,7)              119.6247         calculate D2E/DX2 analytically  !
 ! A20   A(5,6,13)             120.0071         calculate D2E/DX2 analytically  !
 ! A21   A(7,6,13)             120.3677         calculate D2E/DX2 analytically  !
 ! A22   A(4,7,6)              120.3182         calculate D2E/DX2 analytically  !
 ! A23   A(4,7,14)             119.7527         calculate D2E/DX2 analytically  !
 ! A24   A(6,7,14)             119.9271         calculate D2E/DX2 analytically  !
 ! A25   A(1,9,17)             171.17           calculate D2E/DX2 analytically  !
 ! A26   A(17,16,18)           106.8099         calculate D2E/DX2 analytically  !
 ! A27   A(9,17,16)            104.5954         calculate D2E/DX2 analytically  !
 ! D1    D(8,1,2,3)            175.9725         calculate D2E/DX2 analytically  !
 ! D2    D(8,1,2,4)             -9.8147         calculate D2E/DX2 analytically  !
 ! D3    D(9,1,2,3)            -78.001          calculate D2E/DX2 analytically  !
 ! D4    D(9,1,2,4)             96.2118         calculate D2E/DX2 analytically  !
 ! D5    D(10,1,2,3)            27.9746         calculate D2E/DX2 analytically  !
 ! D6    D(10,1,2,4)          -157.8126         calculate D2E/DX2 analytically  !
 ! D7    D(2,1,9,17)           -49.6619         calculate D2E/DX2 analytically  !
 ! D8    D(8,1,9,17)            71.7643         calculate D2E/DX2 analytically  !
 ! D9    D(10,1,9,17)         -165.479          calculate D2E/DX2 analytically  !
 ! D10   D(1,2,3,5)            174.3887         calculate D2E/DX2 analytically  !
 ! D11   D(1,2,3,11)            -5.9565         calculate D2E/DX2 analytically  !
 ! D12   D(4,2,3,5)              0.1174         calculate D2E/DX2 analytically  !
 ! D13   D(4,2,3,11)           179.7721         calculate D2E/DX2 analytically  !
 ! D14   D(1,2,4,7)           -174.1714         calculate D2E/DX2 analytically  !
 ! D15   D(1,2,4,15)             7.2144         calculate D2E/DX2 analytically  !
 ! D16   D(3,2,4,7)              0.1563         calculate D2E/DX2 analytically  !
 ! D17   D(3,2,4,15)          -178.458          calculate D2E/DX2 analytically  !
 ! D18   D(2,3,5,6)             -0.4767         calculate D2E/DX2 analytically  !
 ! D19   D(2,3,5,12)           179.7475         calculate D2E/DX2 analytically  !
 ! D20   D(11,3,5,6)           179.8718         calculate D2E/DX2 analytically  !
 ! D21   D(11,3,5,12)            0.096          calculate D2E/DX2 analytically  !
 ! D22   D(2,4,7,6)             -0.0723         calculate D2E/DX2 analytically  !
 ! D23   D(2,4,7,14)          -179.5586         calculate D2E/DX2 analytically  !
 ! D24   D(15,4,7,6)           178.4931         calculate D2E/DX2 analytically  !
 ! D25   D(15,4,7,14)           -0.9933         calculate D2E/DX2 analytically  !
 ! D26   D(3,5,6,7)              0.5584         calculate D2E/DX2 analytically  !
 ! D27   D(3,5,6,13)          -179.6815         calculate D2E/DX2 analytically  !
 ! D28   D(12,5,6,7)          -179.6657         calculate D2E/DX2 analytically  !
 ! D29   D(12,5,6,13)            0.0943         calculate D2E/DX2 analytically  !
 ! D30   D(5,6,7,4)             -0.2844         calculate D2E/DX2 analytically  !
 ! D31   D(5,6,7,14)           179.2011         calculate D2E/DX2 analytically  !
 ! D32   D(13,6,7,4)           179.9564         calculate D2E/DX2 analytically  !
 ! D33   D(13,6,7,14)           -0.5581         calculate D2E/DX2 analytically  !
 ! D34   D(1,9,17,16)           11.9664         calculate D2E/DX2 analytically  !
 ! D35   D(18,16,17,9)           8.8033         calculate D2E/DX2 analytically  !
 --------------------------------------------------------------------------------
 Trust Radius=3.00D-01 FncErr=1.00D-07 GrdErr=1.00D-06
 Number of steps in this run=     90 maximum allowed number of steps=    108.
 Search for a saddle point of order  1.
 GradGradGradGradGradGradGradGradGradGradGradGradGradGradGradGradGradGrad

                          Input orientation:                          
 ---------------------------------------------------------------------
 Center     Atomic      Atomic             Coordinates (Angstroms)
 Number     Number       Type             X           Y           Z
 ---------------------------------------------------------------------
      1          6           0        1.352756   -0.965139    0.682819
      2          6           0       -0.073786   -0.594179    0.384845
      3          6           0       -0.854127    0.075802    1.331626
      4          6           0       -0.599012   -0.810288   -0.893868
      5          6           0       -2.127526    0.516312    1.009653
      6          6           0       -2.642022    0.305077   -0.266317
      7          6           0       -1.876178   -0.360734   -1.213400
      8          8           0        2.021076   -1.652460   -0.183473
      9          1           0        1.857006    0.235932    0.485125
     10          1           0        1.553837   -1.123604    1.755900
     11          1           0       -0.454388    0.242865    2.324623
     12          1           0       -2.723223    1.029689    1.751444
     13          1           0       -3.634116    0.655311   -0.513922
     14          1           0       -2.275988   -0.538874   -2.202059
     15          1           0        0.006126   -1.352510   -1.608685
     16          8           0        1.474487    1.657203   -0.864876
     17          8           0        2.232206    1.357088    0.136823
     18          1           0        0.767962    0.955441   -0.912375
 ---------------------------------------------------------------------
                    Distance matrix (angstroms):
                    1          2          3          4          5
     1  C    0.000000
     2  C    1.503802   0.000000
     3  C    2.524845   1.397927   0.000000
     4  C    2.513826   1.399168   2.408955   0.000000
     5  C    3.796562   2.416904   1.385374   2.778419   0.000000
     6  C    4.297972   2.797947   2.408850   2.410757   1.391914
     7  C    3.793016   2.420227   2.777104   1.391169   2.402988
     8  O    1.292100   2.414827   3.680925   2.842319   4.830944
     9  H    1.317544   2.104067   2.844723   3.004700   4.028677
    10  H    1.103199   2.192998   2.723394   3.428439   4.098615
    11  H    2.724071   2.146681   1.083395   3.389503   2.145533
    12  H    4.662071   3.394710   2.140016   3.859464   1.081048
    13  H    5.378377   3.878783   3.386771   3.391784   2.147188
    14  H    4.655320   3.397768   3.858296   2.144126   3.383866
    15  H    2.685975   2.134388   3.380169   1.082201   3.860137
    16  O    3.047434   3.004609   3.570419   3.223158   4.217818
    17  O    2.542495   3.030933   3.548901   3.711555   4.525041
    18  H    2.564226   2.189210   2.905250   2.233105   3.502981
                    6          7          8          9         10
     6  C    0.000000
     7  C    1.388088   0.000000
     8  O    5.057993   4.232953   0.000000
     9  H    4.561875   4.144594   2.009967   0.000000
    10  H    4.871932   4.600404   2.063775   1.885502   0.000000
    11  H    3.391546   3.860495   4.001340   2.954038   2.494725
    12  H    2.145464   3.382464   5.783269   4.817895   4.788521
    13  H    1.080843   2.147548   6.116878   5.596999   5.935612
    14  H    2.143206   1.081216   4.876425   4.990283   5.538493
    15  H    3.400329   2.164010   2.486206   3.214490   3.710558
    16  O    4.374033   3.926894   3.423001   1.997207   3.821996
    17  O    5.002734   4.653261   3.033899   1.232510   3.038985
    18  H    3.531056   2.968907   2.983746   1.912254   3.472711
                   11         12         13         14         15
    11  H    0.000000
    12  H    2.468854   0.000000
    13  H    4.282303   2.470176   0.000000
    14  H    4.941679   4.276751   2.473943   0.000000
    15  H    4.269450   4.941122   4.298978   2.494422   0.000000
    16  O    3.986705   4.985948   5.217737   4.547183   3.430409
    17  O    3.639471   5.222113   5.943879   5.421149   3.917161
    18  H    3.532713   4.392017   4.430252   3.627932   2.528217
                   16         17         18
    16  O    0.000000
    17  O    1.291359   0.000000
    18  H    0.996947   1.845575   0.000000
 Stoichiometry    C7H8O3(3)
 Framework group  C1[X(C7H8O3)]
 Deg. of freedom    48
 Full point group                 C1      NOp   1
 Largest Abelian subgroup         C1      NOp   1
 Largest concise Abelian subgroup C1      NOp   1
                         Standard orientation:                         
 ---------------------------------------------------------------------
 Center     Atomic      Atomic             Coordinates (Angstroms)
 Number     Number       Type             X           Y           Z
 ---------------------------------------------------------------------
      1          6           0        1.352756   -0.965139    0.682819
      2          6           0       -0.073786   -0.594179    0.384845
      3          6           0       -0.854127    0.075802    1.331626
      4          6           0       -0.599012   -0.810288   -0.893868
      5          6           0       -2.127526    0.516312    1.009653
      6          6           0       -2.642022    0.305077   -0.266317
      7          6           0       -1.876178   -0.360734   -1.213400
      8          8           0        2.021076   -1.652460   -0.183473
      9          1           0        1.857006    0.235932    0.485125
     10          1           0        1.553837   -1.123604    1.755900
     11          1           0       -0.454388    0.242865    2.324623
     12          1           0       -2.723223    1.029689    1.751444
     13          1           0       -3.634116    0.655311   -0.513922
     14          1           0       -2.275988   -0.538874   -2.202059
     15          1           0        0.006126   -1.352510   -1.608685
     16          8           0        1.474487    1.657203   -0.864876
     17          8           0        2.232206    1.357088    0.136823
     18          1           0        0.767962    0.955441   -0.912375
 ---------------------------------------------------------------------
 Rotational constants (GHZ):      1.9866415      0.9535901      0.8710598
 Standard basis: 6-311+G(2df,2p) (5D, 7F)
 There are   412 symmetry adapted basis functions of A   symmetry.
 Integral buffers will be    131072 words long.
 Raffenetti 2 integral format.
 Two-electron integral symmetry is turned on.
   412 basis functions,   608 primitive gaussians,   462 cartesian basis functions
    38 alpha electrons       36 beta electrons
       nuclear repulsion energy       511.6530083871 Hartrees.
 NAtoms=   18 NActive=   18 NUniq=   18 SFac= 1.00D+00 NAtFMM=   50 NAOKFM=F Big=F
 One-electron integrals computed using PRISM.
 NBasis=   412 RedAO= T  NBF=   412
 NBsUse=   412 1.00D-06 NBFU=   412
 Harris functional with IExCor= 1009 diagonalized for initial guess.
 ExpMin= 4.38D-02 ExpMax= 8.59D+03 ExpMxC= 1.30D+03 IAcc=2 IRadAn=         0 AccDes= 0.00D+00
 HarFok:  IExCor= 1009 AccDes= 0.00D+00 IRadAn=         0 IDoV= 1
 ScaDFX=  1.000000  1.000000  1.000000  1.000000
 FoFCou: FMM=F IPFlag=           0 FMFlag=      100000 FMFlg1=           0
         NFxFlg=           0 DoJE=T BraDBF=F KetDBF=T FulRan=T
         Omega=  0.000000  0.000000  1.000000  0.000000  0.000000 ICntrl=     500 IOpCl=  0
         NMat0=    1 NMatS0=    1 NMatT0=    0 NMatD0=    1 NMtDS0=    0 NMtDT0=    0
         I1Cent=           4 NGrid=           0.
 Petite list used in FoFCou.
 Initial guess orbital symmetries:
 Alpha Orbitals:
       Occupied  (A) (A) (A) (A) (A) (A) (A) (A) (A) (A) (A) (A)
                 (A) (A) (A) (A) (A) (A) (A) (A) (A) (A) (A) (A)
                 (A) (A) (A) (A) (A) (A) (A) (A) (A) (A) (A) (A)
                 (A) (A)
       Virtual   (A) (A) (A) (A) (A) (A) (A) (A) (A) (A) (A) (A)
                 (A) (A) (A) (A) (A) (A) (A) (A) (A) (A) (A) (A)
                 (A) (A) (A) (A) (A) (A) (A) (A) (A) (A) (A) (A)
                 (A) (A) (A) (A) (A) (A) (A) (A) (A) (A) (A) (A)
                 (A) (A) (A) (A) (A) (A) (A) (A) (A) (A) (A) (A)
                 (A) (A) (A) (A) (A) (A) (A) (A) (A) (A) (A) (A)
                 (A) (A) (A) (A) (A) (A) (A) (A) (A) (A) (A) (A)
                 (A) (A) (A) (A) (A) (A) (A) (A) (A) (A) (A) (A)
                 (A) (A) (A) (A) (A) (A) (A) (A) (A) (A) (A) (A)
                 (A) (A) (A) (A) (A) (A) (A) (A) (A) (A) (A) (A)
                 (A) (A) (A) (A) (A) (A) (A) (A) (A) (A) (A) (A)
                 (A) (A) (A) (A) (A) (A) (A) (A) (A) (A) (A) (A)
                 (A) (A) (A) (A) (A) (A) (A) (A) (A) (A) (A) (A)
                 (A) (A) (A) (A) (A) (A) (A) (A) (A) (A) (A) (A)
                 (A) (A) (A) (A) (A) (A) (A) (A) (A) (A) (A) (A)
                 (A) (A) (A) (A) (A) (A) (A) (A) (A) (A) (A) (A)
                 (A) (A) (A) (A) (A) (A) (A) (A) (A) (A) (A) (A)
                 (A) (A) (A) (A) (A) (A) (A) (A) (A) (A) (A) (A)
                 (A) (A) (A) (A) (A) (A) (A) (A) (A) (A) (A) (A)
                 (A) (A) (A) (A) (A) (A) (A) (A) (A) (A) (A) (A)
                 (A) (A) (A) (A) (A) (A) (A) (A) (A) (A) (A) (A)
                 (A) (A) (A) (A) (A) (A) (A) (A) (A) (A) (A) (A)
                 (A) (A) (A) (A) (A) (A) (A) (A) (A) (A) (A) (A)
                 (A) (A) (A) (A) (A) (A) (A) (A) (A) (A) (A) (A)
                 (A) (A) (A) (A) (A) (A) (A) (A) (A) (A) (A) (A)
                 (A) (A) (A) (A) (A) (A) (A) (A) (A) (A) (A) (A)
                 (A) (A) (A) (A) (A) (A) (A) (A) (A) (A) (A) (A)
                 (A) (A) (A) (A) (A) (A) (A) (A) (A) (A) (A) (A)
                 (A) (A) (A) (A) (A) (A) (A) (A) (A) (A) (A) (A)
                 (A) (A) (A) (A) (A) (A) (A) (A) (A) (A) (A) (A)
                 (A) (A) (A) (A) (A) (A) (A) (A) (A) (A) (A) (A)
                 (A) (A)
 Beta  Orbitals:
       Occupied  (A) (A) (A) (A) (A) (A) (A) (A) (A) (A) (A) (A)
                 (A) (A) (A) (A) (A) (A) (A) (A) (A) (A) (A) (A)
                 (A) (A) (A) (A) (A) (A) (A) (A) (A) (A) (A) (A)
       Virtual   (A) (A) (A) (A) (A) (A) (A) (A) (A) (A) (A) (A)
                 (A) (A) (A) (A) (A) (A) (A) (A) (A) (A) (A) (A)
                 (A) (A) (A) (A) (A) (A) (A) (A) (A) (A) (A) (A)
                 (A) (A) (A) (A) (A) (A) (A) (A) (A) (A) (A) (A)
                 (A) (A) (A) (A) (A) (A) (A) (A) (A) (A) (A) (A)
                 (A) (A) (A) (A) (A) (A) (A) (A) (A) (A) (A) (A)
                 (A) (A) (A) (A) (A) (A) (A) (A) (A) (A) (A) (A)
                 (A) (A) (A) (A) (A) (A) (A) (A) (A) (A) (A) (A)
                 (A) (A) (A) (A) (A) (A) (A) (A) (A) (A) (A) (A)
                 (A) (A) (A) (A) (A) (A) (A) (A) (A) (A) (A) (A)
                 (A) (A) (A) (A) (A) (A) (A) (A) (A) (A) (A) (A)
                 (A) (A) (A) (A) (A) (A) (A) (A) (A) (A) (A) (A)
                 (A) (A) (A) (A) (A) (A) (A) (A) (A) (A) (A) (A)
                 (A) (A) (A) (A) (A) (A) (A) (A) (A) (A) (A) (A)
                 (A) (A) (A) (A) (A) (A) (A) (A) (A) (A) (A) (A)
                 (A) (A) (A) (A) (A) (A) (A) (A) (A) (A) (A) (A)
                 (A) (A) (A) (A) (A) (A) (A) (A) (A) (A) (A) (A)
                 (A) (A) (A) (A) (A) (A) (A) (A) (A) (A) (A) (A)
                 (A) (A) (A) (A) (A) (A) (A) (A) (A) (A) (A) (A)
                 (A) (A) (A) (A) (A) (A) (A) (A) (A) (A) (A) (A)
                 (A) (A) (A) (A) (A) (A) (A) (A) (A) (A) (A) (A)
                 (A) (A) (A) (A) (A) (A) (A) (A) (A) (A) (A) (A)
                 (A) (A) (A) (A) (A) (A) (A) (A) (A) (A) (A) (A)
                 (A) (A) (A) (A) (A) (A) (A) (A) (A) (A) (A) (A)
                 (A) (A) (A) (A) (A) (A) (A) (A) (A) (A) (A) (A)
                 (A) (A) (A) (A) (A) (A) (A) (A) (A) (A) (A) (A)
                 (A) (A) (A) (A) (A) (A) (A) (A) (A) (A) (A) (A)
                 (A) (A) (A) (A) (A) (A) (A) (A) (A) (A) (A) (A)
                 (A) (A) (A) (A) (A) (A) (A) (A) (A) (A) (A) (A)
                 (A) (A) (A) (A) (A) (A) (A) (A) (A) (A) (A) (A)
                 (A) (A) (A) (A) (A) (A) (A) (A) (A) (A) (A) (A)
                 (A) (A) (A) (A)
 The electronic state of the initial guess is 3-A.
 Initial guess <Sx>= 0.0000 <Sy>= 0.0000 <Sz>= 1.0000 <S**2>= 2.0000 S= 1.0000
 Requested convergence on RMS density matrix=1.00D-08 within 128 cycles.
 Requested convergence on MAX density matrix=1.00D-06.
 Requested convergence on             energy=1.00D-06.
 No special actions if energy rises.
 Restarting incremental Fock formation.
 SCF Done:  E(UM062X) =  -496.943541867     A.U. after   26 cycles
             Convg  =    0.4065D-08             -V/T =  2.0032
 <Sx>= 0.0000 <Sy>= 0.0000 <Sz>= 1.0000 <S**2>= 2.0144 S= 1.0048
 <L.S>= 0.000000000000E+00
 Annihilation of the first spin contaminant:
 S**2 before annihilation     2.0144,   after     2.0001
 Range of M.O.s used for correlation:     1   412
 NBasis=   412 NAE=    38 NBE=    36 NFC=     0 NFV=     0
 NROrb=    412 NOA=    38 NOB=    36 NVA=   374 NVB=   376

 **** Warning!!: The largest alpha MO coefficient is  0.12761272D+03


 **** Warning!!: The largest beta MO coefficient is  0.14267663D+03

 Symmetrizing basis deriv contribution to polar:
 IMax=3 JMax=2 DiffMx= 0.00D+00
 G2DrvN: will do    19 centers at a time, making    1 passes doing MaxLOS=3.
 Calling FoFCou, ICntrl=  3107 FMM=F I1Cent=   0 AccDes= 0.00D+00.
 FoFDir/FoFCou used for L=0 through L=3.
 End of G2Drv Frequency-dependent properties file   721 does not exist.
 End of G2Drv Frequency-dependent properties file   722 does not exist.
          IDoAtm=111111111111111111
          Differentiating once with respect to nuclear coordinates.
          There are    57 degrees of freedom in the 1st order CPHF.  IDoFFX=5.
     51 vectors produced by pass  0 Test12= 4.87D-10 1.75D-07 XBig12= 3.71D-01 1.61D-01.
 AX will form    51 AO Fock derivatives at one time.
     51 vectors produced by pass  1 Test12= 4.87D-10 1.75D-07 XBig12= 3.76D-02 4.18D-02.
     51 vectors produced by pass  2 Test12= 4.87D-10 1.75D-07 XBig12= 1.67D-03 7.74D-03.
     51 vectors produced by pass  3 Test12= 4.87D-10 1.75D-07 XBig12= 2.90D-05 1.07D-03.
     51 vectors produced by pass  4 Test12= 4.87D-10 1.75D-07 XBig12= 5.13D-07 1.06D-04.
     47 vectors produced by pass  5 Test12= 4.87D-10 1.75D-07 XBig12= 7.60D-09 9.29D-06.
     11 vectors produced by pass  6 Test12= 4.87D-10 1.75D-07 XBig12= 7.90D-11 8.49D-07.
      1 vectors produced by pass  7 Test12= 4.87D-10 1.75D-07 XBig12= 2.01D-12 2.14D-07.
 Inverted reduced A of dimension   314 with in-core refinement.
 End of Minotr Frequency-dependent properties file   721 does not exist.
 End of Minotr Frequency-dependent properties file   722 does not exist.

 **********************************************************************

            Population analysis using the SCF density.

 **********************************************************************

 Orbital symmetries:
 Alpha Orbitals:
       Occupied  (A) (A) (A) (A) (A) (A) (A) (A) (A) (A) (A) (A)
                 (A) (A) (A) (A) (A) (A) (A) (A) (A) (A) (A) (A)
                 (A) (A) (A) (A) (A) (A) (A) (A) (A) (A) (A) (A)
                 (A) (A)
       Virtual   (A) (A) (A) (A) (A) (A) (A) (A) (A) (A) (A) (A)
                 (A) (A) (A) (A) (A) (A) (A) (A) (A) (A) (A) (A)
                 (A) (A) (A) (A) (A) (A) (A) (A) (A) (A) (A) (A)
                 (A) (A) (A) (A) (A) (A) (A) (A) (A) (A) (A) (A)
                 (A) (A) (A) (A) (A) (A) (A) (A) (A) (A) (A) (A)
                 (A) (A) (A) (A) (A) (A) (A) (A) (A) (A) (A) (A)
                 (A) (A) (A) (A) (A) (A) (A) (A) (A) (A) (A) (A)
                 (A) (A) (A) (A) (A) (A) (A) (A) (A) (A) (A) (A)
                 (A) (A) (A) (A) (A) (A) (A) (A) (A) (A) (A) (A)
                 (A) (A) (A) (A) (A) (A) (A) (A) (A) (A) (A) (A)
                 (A) (A) (A) (A) (A) (A) (A) (A) (A) (A) (A) (A)
                 (A) (A) (A) (A) (A) (A) (A) (A) (A) (A) (A) (A)
                 (A) (A) (A) (A) (A) (A) (A) (A) (A) (A) (A) (A)
                 (A) (A) (A) (A) (A) (A) (A) (A) (A) (A) (A) (A)
                 (A) (A) (A) (A) (A) (A) (A) (A) (A) (A) (A) (A)
                 (A) (A) (A) (A) (A) (A) (A) (A) (A) (A) (A) (A)
                 (A) (A) (A) (A) (A) (A) (A) (A) (A) (A) (A) (A)
                 (A) (A) (A) (A) (A) (A) (A) (A) (A) (A) (A) (A)
                 (A) (A) (A) (A) (A) (A) (A) (A) (A) (A) (A) (A)
                 (A) (A) (A) (A) (A) (A) (A) (A) (A) (A) (A) (A)
                 (A) (A) (A) (A) (A) (A) (A) (A) (A) (A) (A) (A)
                 (A) (A) (A) (A) (A) (A) (A) (A) (A) (A) (A) (A)
                 (A) (A) (A) (A) (A) (A) (A) (A) (A) (A) (A) (A)
                 (A) (A) (A) (A) (A) (A) (A) (A) (A) (A) (A) (A)
                 (A) (A) (A) (A) (A) (A) (A) (A) (A) (A) (A) (A)
                 (A) (A) (A) (A) (A) (A) (A) (A) (A) (A) (A) (A)
                 (A) (A) (A) (A) (A) (A) (A) (A) (A) (A) (A) (A)
                 (A) (A) (A) (A) (A) (A) (A) (A) (A) (A) (A) (A)
                 (A) (A) (A) (A) (A) (A) (A) (A) (A) (A) (A) (A)
                 (A) (A) (A) (A) (A) (A) (A) (A) (A) (A) (A) (A)
                 (A) (A) (A) (A) (A) (A) (A) (A) (A) (A) (A) (A)
                 (A) (A)
 Beta  Orbitals:
       Occupied  (A) (A) (A) (A) (A) (A) (A) (A) (A) (A) (A) (A)
                 (A) (A) (A) (A) (A) (A) (A) (A) (A) (A) (A) (A)
                 (A) (A) (A) (A) (A) (A) (A) (A) (A) (A) (A) (A)
       Virtual   (A) (A) (A) (A) (A) (A) (A) (A) (A) (A) (A) (A)
                 (A) (A) (A) (A) (A) (A) (A) (A) (A) (A) (A) (A)
                 (A) (A) (A) (A) (A) (A) (A) (A) (A) (A) (A) (A)
                 (A) (A) (A) (A) (A) (A) (A) (A) (A) (A) (A) (A)
                 (A) (A) (A) (A) (A) (A) (A) (A) (A) (A) (A) (A)
                 (A) (A) (A) (A) (A) (A) (A) (A) (A) (A) (A) (A)
                 (A) (A) (A) (A) (A) (A) (A) (A) (A) (A) (A) (A)
                 (A) (A) (A) (A) (A) (A) (A) (A) (A) (A) (A) (A)
                 (A) (A) (A) (A) (A) (A) (A) (A) (A) (A) (A) (A)
                 (A) (A) (A) (A) (A) (A) (A) (A) (A) (A) (A) (A)
                 (A) (A) (A) (A) (A) (A) (A) (A) (A) (A) (A) (A)
                 (A) (A) (A) (A) (A) (A) (A) (A) (A) (A) (A) (A)
                 (A) (A) (A) (A) (A) (A) (A) (A) (A) (A) (A) (A)
                 (A) (A) (A) (A) (A) (A) (A) (A) (A) (A) (A) (A)
                 (A) (A) (A) (A) (A) (A) (A) (A) (A) (A) (A) (A)
                 (A) (A) (A) (A) (A) (A) (A) (A) (A) (A) (A) (A)
                 (A) (A) (A) (A) (A) (A) (A) (A) (A) (A) (A) (A)
                 (A) (A) (A) (A) (A) (A) (A) (A) (A) (A) (A) (A)
                 (A) (A) (A) (A) (A) (A) (A) (A) (A) (A) (A) (A)
                 (A) (A) (A) (A) (A) (A) (A) (A) (A) (A) (A) (A)
                 (A) (A) (A) (A) (A) (A) (A) (A) (A) (A) (A) (A)
                 (A) (A) (A) (A) (A) (A) (A) (A) (A) (A) (A) (A)
                 (A) (A) (A) (A) (A) (A) (A) (A) (A) (A) (A) (A)
                 (A) (A) (A) (A) (A) (A) (A) (A) (A) (A) (A) (A)
                 (A) (A) (A) (A) (A) (A) (A) (A) (A) (A) (A) (A)
                 (A) (A) (A) (A) (A) (A) (A) (A) (A) (A) (A) (A)
                 (A) (A) (A) (A) (A) (A) (A) (A) (A) (A) (A) (A)
                 (A) (A) (A) (A) (A) (A) (A) (A) (A) (A) (A) (A)
                 (A) (A) (A) (A) (A) (A) (A) (A) (A) (A) (A) (A)
                 (A) (A) (A) (A) (A) (A) (A) (A) (A) (A) (A) (A)
                 (A) (A) (A) (A) (A) (A) (A) (A) (A) (A) (A) (A)
                 (A) (A) (A) (A)
 The electronic state is 3-A.
 Alpha  occ. eigenvalues --  -19.82064 -19.80098 -19.59915 -10.57509 -10.56495
 Alpha  occ. eigenvalues --  -10.55996 -10.55978 -10.55738 -10.55548 -10.55398
 Alpha  occ. eigenvalues --   -1.43737  -1.12725  -1.07304  -0.98144  -0.87672
 Alpha  occ. eigenvalues --   -0.86138  -0.78608  -0.73695  -0.70673  -0.68067
 Alpha  occ. eigenvalues --   -0.66437  -0.65354  -0.60562  -0.55264  -0.54862
 Alpha  occ. eigenvalues --   -0.53554  -0.50842  -0.50306  -0.49295  -0.47709
 Alpha  occ. eigenvalues --   -0.46056  -0.44605  -0.42882  -0.41481  -0.34571
 Alpha  occ. eigenvalues --   -0.33127  -0.32557  -0.25376
 Alpha virt. eigenvalues --   -0.00637   0.00300   0.00718   0.01722   0.02788
 Alpha virt. eigenvalues --    0.03538   0.04437   0.04926   0.05386   0.06998
 Alpha virt. eigenvalues --    0.07328   0.07647   0.08132   0.10151   0.10442
 Alpha virt. eigenvalues --    0.12415   0.12802   0.13100   0.13237   0.13627
 Alpha virt. eigenvalues --    0.13985   0.15512   0.15793   0.16939   0.17423
 Alpha virt. eigenvalues --    0.18206   0.18725   0.19323   0.19623   0.20019
 Alpha virt. eigenvalues --    0.20615   0.21374   0.21732   0.22123   0.22617
 Alpha virt. eigenvalues --    0.22888   0.23453   0.24138   0.24764   0.24953
 Alpha virt. eigenvalues --    0.25433   0.26506   0.27412   0.28098   0.28770
 Alpha virt. eigenvalues --    0.30425   0.31746   0.32313   0.33666   0.34049
 Alpha virt. eigenvalues --    0.34777   0.35923   0.36556   0.37319   0.38586
 Alpha virt. eigenvalues --    0.39425   0.40343   0.44269   0.46581   0.48256
 Alpha virt. eigenvalues --    0.48597   0.50917   0.51616   0.53566   0.53714
 Alpha virt. eigenvalues --    0.54408   0.54959   0.56010   0.56665   0.57756
 Alpha virt. eigenvalues --    0.59020   0.61060   0.61653   0.63052   0.63998
 Alpha virt. eigenvalues --    0.65081   0.65714   0.66262   0.66495   0.67266
 Alpha virt. eigenvalues --    0.67370   0.68183   0.70091   0.70362   0.71252
 Alpha virt. eigenvalues --    0.71945   0.72559   0.73367   0.74451   0.75681
 Alpha virt. eigenvalues --    0.77720   0.79205   0.80795   0.80925   0.82377
 Alpha virt. eigenvalues --    0.83946   0.84639   0.85952   0.86515   0.88002
 Alpha virt. eigenvalues --    0.90964   0.92666   0.96067   0.97729   0.98308
 Alpha virt. eigenvalues --    0.98933   1.00987   1.02429   1.04121   1.05029
 Alpha virt. eigenvalues --    1.06710   1.07528   1.08906   1.09247   1.10364
 Alpha virt. eigenvalues --    1.10597   1.13217   1.14391   1.15493   1.16273
 Alpha virt. eigenvalues --    1.16651   1.17138   1.18342   1.19611   1.21451
 Alpha virt. eigenvalues --    1.22410   1.23738   1.25736   1.27477   1.30449
 Alpha virt. eigenvalues --    1.31035   1.31249   1.32306   1.33327   1.34397
 Alpha virt. eigenvalues --    1.36089   1.36844   1.37353   1.38658   1.39348
 Alpha virt. eigenvalues --    1.40797   1.41182   1.42750   1.45057   1.46504
 Alpha virt. eigenvalues --    1.47643   1.48616   1.51574   1.52803   1.56386
 Alpha virt. eigenvalues --    1.59158   1.60182   1.61776   1.64296   1.67061
 Alpha virt. eigenvalues --    1.69872   1.71973   1.72683   1.73145   1.74802
 Alpha virt. eigenvalues --    1.78579   1.79527   1.82452   1.84782   1.86796
 Alpha virt. eigenvalues --    1.87771   1.91924   1.97016   1.97795   2.01413
 Alpha virt. eigenvalues --    2.02948   2.05262   2.06363   2.16128   2.17806
 Alpha virt. eigenvalues --    2.20529   2.26079   2.30286   2.40890   2.45622
 Alpha virt. eigenvalues --    2.49454   2.52363   2.54446   2.56098   2.56554
 Alpha virt. eigenvalues --    2.59408   2.61979   2.65515   2.67590   2.71762
 Alpha virt. eigenvalues --    2.72530   2.74763   2.75613   2.77952   2.78025
 Alpha virt. eigenvalues --    2.78218   2.80140   2.80916   2.81086   2.83256
 Alpha virt. eigenvalues --    2.84821   2.86488   2.87104   2.87904   2.89655
 Alpha virt. eigenvalues --    2.90625   2.92910   2.94947   2.95926   2.98203
 Alpha virt. eigenvalues --    3.00466   3.01243   3.05758   3.07654   3.09821
 Alpha virt. eigenvalues --    3.11533   3.12931   3.15113   3.16787   3.18190
 Alpha virt. eigenvalues --    3.18388   3.19964   3.21085   3.22262   3.23574
 Alpha virt. eigenvalues --    3.25766   3.27839   3.28320   3.30260   3.32830
 Alpha virt. eigenvalues --    3.34158   3.35731   3.37962   3.39149   3.40788
 Alpha virt. eigenvalues --    3.42705   3.42848   3.44756   3.45845   3.47457
 Alpha virt. eigenvalues --    3.49919   3.51760   3.53734   3.55718   3.56491
 Alpha virt. eigenvalues --    3.57798   3.59703   3.61888   3.62523   3.66136
 Alpha virt. eigenvalues --    3.68848   3.70048   3.72662   3.72820   3.73344
 Alpha virt. eigenvalues --    3.76060   3.77273   3.78380   3.80354   3.81374
 Alpha virt. eigenvalues --    3.82659   3.85841   3.88015   3.89706   3.91410
 Alpha virt. eigenvalues --    3.94049   3.95994   4.00890   4.02376   4.02486
 Alpha virt. eigenvalues --    4.04825   4.06869   4.07532   4.08504   4.11528
 Alpha virt. eigenvalues --    4.12329   4.13652   4.16894   4.21857   4.24206
 Alpha virt. eigenvalues --    4.26387   4.29300   4.31348   4.33792   4.36191
 Alpha virt. eigenvalues --    4.37583   4.38444   4.39842   4.41408   4.42003
 Alpha virt. eigenvalues --    4.45036   4.45446   4.47334   4.48688   4.50127
 Alpha virt. eigenvalues --    4.52663   4.55849   4.57542   4.59913   4.63440
 Alpha virt. eigenvalues --    4.66694   4.67606   4.69755   4.70423   4.71001
 Alpha virt. eigenvalues --    4.77452   4.85309   4.88992   4.93698   4.93847
 Alpha virt. eigenvalues --    5.02487   5.03030   5.04689   5.05792   5.06002
 Alpha virt. eigenvalues --    5.08563   5.09245   5.10549   5.11831   5.15260
 Alpha virt. eigenvalues --    5.16041   5.20714   5.25444   5.25951   5.26807
 Alpha virt. eigenvalues --    5.29256   5.31874   5.35894   5.40683   5.46119
 Alpha virt. eigenvalues --    5.48798   5.50367   5.57738   5.64630   5.67122
 Alpha virt. eigenvalues --    5.69398   5.74099   5.77075   5.78370   5.99411
 Alpha virt. eigenvalues --    6.15767   6.16687   6.32853   6.32917   6.40555
 Alpha virt. eigenvalues --    6.52289   6.68734   6.79327   6.84271   6.86882
 Alpha virt. eigenvalues --    6.88044   6.90260   6.91790   6.93624   6.96450
 Alpha virt. eigenvalues --    7.17566   7.26861   7.29590   7.30171   7.39292
 Alpha virt. eigenvalues --    7.61435   7.66128   7.83716   7.85741  23.92541
 Alpha virt. eigenvalues --   24.48994  24.49715  24.67641  24.72774  24.75425
 Alpha virt. eigenvalues --   25.19170  49.92233  49.98709  50.23325
  Beta  occ. eigenvalues --  -19.81083 -19.78429 -19.58812 -10.57412 -10.56494
  Beta  occ. eigenvalues --  -10.56011 -10.55992 -10.55709 -10.55516 -10.55369
  Beta  occ. eigenvalues --   -1.39841  -1.09517  -1.02004  -0.97976  -0.87222
  Beta  occ. eigenvalues --   -0.86069  -0.76244  -0.72335  -0.70554  -0.65697
  Beta  occ. eigenvalues --   -0.62653  -0.60127  -0.56781  -0.54903  -0.53295
  Beta  occ. eigenvalues --   -0.51356  -0.50457  -0.50058  -0.47110  -0.46512
  Beta  occ. eigenvalues --   -0.42483  -0.41377  -0.39254  -0.32879  -0.31435
  Beta  occ. eigenvalues --   -0.30524
  Beta virt. eigenvalues --   -0.14290  -0.05354  -0.00463   0.00433   0.01641
  Beta virt. eigenvalues --    0.01985   0.02887   0.03679   0.04484   0.04980
  Beta virt. eigenvalues --    0.05508   0.07134   0.07402   0.07745   0.08155
  Beta virt. eigenvalues --    0.10368   0.10546   0.12536   0.12859   0.13219
  Beta virt. eigenvalues --    0.13404   0.13683   0.14057   0.15853   0.16154
  Beta virt. eigenvalues --    0.17000   0.17576   0.18136   0.18872   0.19732
  Beta virt. eigenvalues --    0.19903   0.20194   0.20846   0.21482   0.21849
  Beta virt. eigenvalues --    0.22187   0.22543   0.23032   0.23599   0.24232
  Beta virt. eigenvalues --    0.24822   0.24950   0.25437   0.26556   0.27494
  Beta virt. eigenvalues --    0.28390   0.29029   0.30655   0.32015   0.32657
  Beta virt. eigenvalues --    0.33939   0.34171   0.35172   0.36094   0.36921
  Beta virt. eigenvalues --    0.37326   0.38552   0.39797   0.40496   0.44329
  Beta virt. eigenvalues --    0.46659   0.48434   0.48657   0.51067   0.51879
  Beta virt. eigenvalues --    0.53689   0.53862   0.54556   0.55093   0.56154
  Beta virt. eigenvalues --    0.56777   0.58050   0.59232   0.61320   0.61840
  Beta virt. eigenvalues --    0.63204   0.64138   0.65200   0.65823   0.66339
  Beta virt. eigenvalues --    0.66630   0.67399   0.67530   0.68423   0.70291
  Beta virt. eigenvalues --    0.70664   0.71355   0.72195   0.72611   0.73402
  Beta virt. eigenvalues --    0.74573   0.75750   0.77748   0.79385   0.80919
  Beta virt. eigenvalues --    0.81045   0.82438   0.83992   0.84764   0.85988
  Beta virt. eigenvalues --    0.86823   0.88299   0.91139   0.92870   0.96326
  Beta virt. eigenvalues --    0.98098   0.98644   0.99096   1.01462   1.04270
  Beta virt. eigenvalues --    1.04902   1.05556   1.06900   1.08506   1.09130
  Beta virt. eigenvalues --    1.09559   1.10526   1.11171   1.14276   1.14545
  Beta virt. eigenvalues --    1.15789   1.16797   1.17033   1.17365   1.19279
  Beta virt. eigenvalues --    1.19903   1.21709   1.22853   1.24374   1.26324
  Beta virt. eigenvalues --    1.27744   1.30601   1.31608   1.32100   1.33011
  Beta virt. eigenvalues --    1.33518   1.34724   1.36409   1.37257   1.37490
  Beta virt. eigenvalues --    1.38889   1.39773   1.40921   1.41445   1.42925
  Beta virt. eigenvalues --    1.45539   1.46774   1.47848   1.48993   1.51917
  Beta virt. eigenvalues --    1.53248   1.57975   1.59514   1.60669   1.62477
  Beta virt. eigenvalues --    1.64602   1.67695   1.70084   1.72319   1.72753
  Beta virt. eigenvalues --    1.73853   1.75397   1.79201   1.80445   1.83518
  Beta virt. eigenvalues --    1.86297   1.87348   1.88209   1.92664   1.97523
  Beta virt. eigenvalues --    1.99286   2.01522   2.03204   2.06161   2.07198
  Beta virt. eigenvalues --    2.17812   2.18360   2.20895   2.26756   2.31113
  Beta virt. eigenvalues --    2.41365   2.46462   2.49889   2.52785   2.54812
  Beta virt. eigenvalues --    2.56523   2.56994   2.59579   2.62390   2.65791
  Beta virt. eigenvalues --    2.67986   2.72159   2.72833   2.75037   2.75934
  Beta virt. eigenvalues --    2.78130   2.78250   2.78591   2.80407   2.81065
  Beta virt. eigenvalues --    2.81544   2.83426   2.85049   2.86743   2.87341
  Beta virt. eigenvalues --    2.88161   2.89847   2.91052   2.93017   2.95273
  Beta virt. eigenvalues --    2.96489   2.98250   3.00745   3.01646   3.06156
  Beta virt. eigenvalues --    3.07916   3.10037   3.11797   3.13150   3.15562
  Beta virt. eigenvalues --    3.17046   3.18455   3.18845   3.20225   3.21259
  Beta virt. eigenvalues --    3.22611   3.23845   3.26006   3.28187   3.28622
  Beta virt. eigenvalues --    3.30577   3.32998   3.34382   3.35854   3.38204
  Beta virt. eigenvalues --    3.39486   3.41125   3.43048   3.43263   3.44964
  Beta virt. eigenvalues --    3.46028   3.47709   3.50560   3.52273   3.54477
  Beta virt. eigenvalues --    3.56094   3.57578   3.58250   3.60195   3.62677
  Beta virt. eigenvalues --    3.63127   3.66307   3.69142   3.70412   3.72989
  Beta virt. eigenvalues --    3.73270   3.74112   3.76426   3.77794   3.78750
  Beta virt. eigenvalues --    3.80485   3.81818   3.83024   3.86042   3.88246
  Beta virt. eigenvalues --    3.89937   3.91614   3.94422   3.96368   4.01234
  Beta virt. eigenvalues --    4.02492   4.02800   4.05057   4.07024   4.07676
  Beta virt. eigenvalues --    4.08693   4.11746   4.12515   4.14202   4.17092
  Beta virt. eigenvalues --    4.22227   4.24537   4.26537   4.29481   4.31596
  Beta virt. eigenvalues --    4.34108   4.37124   4.38177   4.38757   4.40181
  Beta virt. eigenvalues --    4.41751   4.43964   4.45442   4.45814   4.47630
  Beta virt. eigenvalues --    4.49072   4.50444   4.53019   4.56321   4.58585
  Beta virt. eigenvalues --    4.60408   4.63853   4.67258   4.68308   4.70027
  Beta virt. eigenvalues --    4.70681   4.71209   4.77679   4.85938   4.89609
  Beta virt. eigenvalues --    4.94081   4.98301   5.03633   5.05317   5.06070
  Beta virt. eigenvalues --    5.07410   5.08069   5.09819   5.10455   5.12272
  Beta virt. eigenvalues --    5.13631   5.16560   5.17567   5.21751   5.26462
  Beta virt. eigenvalues --    5.28121   5.29470   5.30677   5.33925   5.37117
  Beta virt. eigenvalues --    5.41602   5.47081   5.50448   5.52010   5.58664
  Beta virt. eigenvalues --    5.65203   5.67830   5.69643   5.74420   5.77291
  Beta virt. eigenvalues --    5.78625   6.01322   6.16411   6.18357   6.33432
  Beta virt. eigenvalues --    6.35967   6.41479   6.52574   6.74537   6.84947
  Beta virt. eigenvalues --    6.88208   6.91898   6.93970   6.96404   6.97356
  Beta virt. eigenvalues --    6.97976   7.01983   7.21991   7.29998   7.33400
  Beta virt. eigenvalues --    7.38391   7.41195   7.61743   7.69111   7.83601
  Beta virt. eigenvalues --    7.87124  23.92565  24.49025  24.49754  24.67709
  Beta virt. eigenvalues --   24.72824  24.75494  25.19237  49.91526  49.98004
  Beta virt. eigenvalues --   50.22519
          Condensed to atoms (all electrons):
              1          2          3          4          5          6
     1  C    6.575509  -1.552155   0.238868   0.200980  -0.133465   0.082017
     2  C   -1.552155  11.944193  -2.473942  -2.655777   0.759639  -1.218989
     3  C    0.238868  -2.473942   9.785589  -0.954184  -0.989477   0.807140
     4  C    0.200980  -2.655777  -0.954184  11.819280  -0.730799   0.734485
     5  C   -0.133465   0.759639  -0.989477  -0.730799   6.220444  -0.110887
     6  C    0.082017  -1.218989   0.807140   0.734485  -0.110887   5.625315
     7  C   -0.078956   0.902611  -0.411967  -2.120778   0.655135  -0.076804
     8  O    0.294592  -0.118700   0.051484  -0.152555   0.022891  -0.008023
     9  H    0.442431  -0.002305   0.027483  -0.148634  -0.004206  -0.003643
    10  H    0.452511  -0.182659   0.073599  -0.013581   0.036709   0.001382
    11  H    0.030785   0.021329   0.307161  -0.020611   0.045291  -0.015672
    12  H    0.005130  -0.001507   0.030428  -0.007151   0.319976   0.042778
    13  H    0.001517   0.019486  -0.022468  -0.022339   0.036913   0.336859
    14  H    0.006371  -0.006895  -0.003682   0.008729  -0.006753   0.039579
    15  H    0.016299   0.043925   0.015396   0.323235  -0.004004  -0.010718
    16  O    0.050419  -0.144361   0.064238   0.052507  -0.011849   0.013140
    17  O   -0.124314   0.132208  -0.081821   0.089474  -0.020590  -0.002251
    18  H    0.032173  -0.050846  -0.016849   0.056937   0.010504  -0.002476
              7          8          9         10         11         12
     1  C   -0.078956   0.294592   0.442431   0.452511   0.030785   0.005130
     2  C    0.902611  -0.118700  -0.002305  -0.182659   0.021329  -0.001507
     3  C   -0.411967   0.051484   0.027483   0.073599   0.307161   0.030428
     4  C   -2.120778  -0.152555  -0.148634  -0.013581  -0.020611  -0.007151
     5  C    0.655135   0.022891  -0.004206   0.036709   0.045291   0.319976
     6  C   -0.076804  -0.008023  -0.003643   0.001382  -0.015672   0.042778
     7  C    6.784589   0.079313   0.012549   0.003492   0.005551  -0.008603
     8  O    0.079313   8.278228  -0.053967  -0.033663   0.000240  -0.000006
     9  H    0.012549  -0.053967   0.596778  -0.044670  -0.000457   0.000034
    10  H    0.003492  -0.033663  -0.044670   0.532110   0.000889  -0.000003
    11  H    0.005551   0.000240  -0.000457   0.000889   0.467943  -0.006847
    12  H   -0.008603  -0.000006   0.000034  -0.000003  -0.006847   0.480317
    13  H    0.033030   0.000000  -0.000003  -0.000001  -0.000065  -0.006817
    14  H    0.341595   0.000072  -0.000003   0.000008   0.000044  -0.000053
    15  H   -0.006269   0.001716   0.002160  -0.000297  -0.000048   0.000036
    16  O   -0.022886   0.005723  -0.004651   0.001566  -0.000096   0.000054
    17  O   -0.006965   0.032448  -0.159680   0.007772   0.000009  -0.000070
    18  H   -0.007290   0.001275   0.007673   0.000668   0.000271  -0.000077
             13         14         15         16         17         18
     1  C    0.001517   0.006371   0.016299   0.050419  -0.124314   0.032173
     2  C    0.019486  -0.006895   0.043925  -0.144361   0.132208  -0.050846
     3  C   -0.022468  -0.003682   0.015396   0.064238  -0.081821  -0.016849
     4  C   -0.022339   0.008729   0.323235   0.052507   0.089474   0.056937
     5  C    0.036913  -0.006753  -0.004004  -0.011849  -0.020590   0.010504
     6  C    0.336859   0.039579  -0.010718   0.013140  -0.002251  -0.002476
     7  C    0.033030   0.341595  -0.006269  -0.022886  -0.006965  -0.007290
     8  O    0.000000   0.000072   0.001716   0.005723   0.032448   0.001275
     9  H   -0.000003  -0.000003   0.002160  -0.004651  -0.159680   0.007673
    10  H   -0.000001   0.000008  -0.000297   0.001566   0.007772   0.000668
    11  H   -0.000065   0.000044  -0.000048  -0.000096   0.000009   0.000271
    12  H   -0.006817  -0.000053   0.000036   0.000054  -0.000070  -0.000077
    13  H    0.479475  -0.006916  -0.000034   0.000001  -0.000005   0.000002
    14  H   -0.006916   0.475449  -0.005618  -0.000191   0.000052   0.000215
    15  H   -0.000034  -0.005618   0.405468   0.000162  -0.001821   0.000064
    16  O    0.000001  -0.000191   0.000162   7.545893   0.231531   0.251197
    17  O   -0.000005   0.000052  -0.001821   0.231531   8.002934  -0.073153
    18  H    0.000002   0.000215   0.000064   0.251197  -0.073153   0.405915
 Mulliken atomic charges:
              1
     1  C   -0.540711
     2  C    0.584744
     3  C   -0.446997
     4  C   -0.459218
     5  C   -0.095471
     6  C   -0.233233
     7  C   -0.077346
     8  O   -0.401066
     9  H    0.333112
    10  H    0.164168
    11  H    0.164284
    12  H    0.152381
    13  H    0.151366
    14  H    0.157996
    15  H    0.220349
    16  O   -0.032395
    17  O   -0.025759
    18  H    0.383798
 Sum of Mulliken atomic charges =   0.00000
 Mulliken charges with hydrogens summed into heavy atoms:
              1
     1  C   -0.376544
     2  C    0.584744
     3  C   -0.282713
     4  C   -0.238869
     5  C    0.056910
     6  C   -0.081867
     7  C    0.080650
     8  O   -0.401066
    16  O    0.351402
    17  O    0.307353
 Sum of Mulliken charges with hydrogens summed into heavy atoms =   0.00000
          Atomic-Atomic Spin Densities.
              1          2          3          4          5          6
     1  C    0.292078   0.104900   0.107670  -0.290929  -0.056668  -0.008167
     2  C    0.104900   0.290061  -0.207334  -0.382991   0.172271  -0.172566
     3  C    0.107670  -0.207334   0.462723  -0.253660  -0.110451   0.023670
     4  C   -0.290929  -0.382991  -0.253660   1.068882  -0.070292   0.186995
     5  C   -0.056668   0.172271  -0.110451  -0.070292   0.052715  -0.045929
     6  C   -0.008167  -0.172566   0.023670   0.186995  -0.045929   0.172844
     7  C    0.020948   0.127404   0.023352  -0.148533   0.029395  -0.090462
     8  O   -0.132709   0.010414  -0.002098   0.025370   0.003020  -0.000870
     9  H    0.309584  -0.093410   0.078058  -0.154295  -0.016085  -0.000336
    10  H   -0.072946   0.062847  -0.025219   0.030965   0.004967   0.000626
    11  H    0.005975  -0.004267   0.006101  -0.012423   0.003695  -0.001410
    12  H    0.000276  -0.001115   0.001294   0.000233  -0.001192   0.000401
    13  H   -0.000155   0.001316  -0.001876  -0.000955   0.001891  -0.001882
    14  H    0.000508  -0.000294   0.001220  -0.000700  -0.000898   0.000831
    15  H    0.007501   0.015854  -0.000112  -0.026976   0.001080  -0.004302
    16  O   -0.002869   0.021352  -0.010816  -0.013850   0.010173  -0.006458
    17  O   -0.147274  -0.008009  -0.025360   0.127291   0.003598   0.004989
    18  H    0.010188   0.020981   0.005757  -0.039408  -0.003043  -0.000979
              7          8          9         10         11         12
     1  C    0.020948  -0.132709   0.309584  -0.072946   0.005975   0.000276
     2  C    0.127404   0.010414  -0.093410   0.062847  -0.004267  -0.001115
     3  C    0.023352  -0.002098   0.078058  -0.025219   0.006101   0.001294
     4  C   -0.148533   0.025370  -0.154295   0.030965  -0.012423   0.000233
     5  C    0.029395   0.003020  -0.016085   0.004967   0.003695  -0.001192
     6  C   -0.090462  -0.000870  -0.000336   0.000626  -0.001410   0.000401
     7  C    0.011911  -0.011643   0.009568  -0.001692   0.001701  -0.000243
     8  O   -0.011643   0.720482  -0.087690   0.004696  -0.000142  -0.000001
     9  H    0.009568  -0.087690   0.330720  -0.038477   0.001288   0.000013
    10  H   -0.001692   0.004696  -0.038477   0.030196  -0.000890  -0.000005
    11  H    0.001701  -0.000142   0.001288  -0.000890  -0.001370  -0.000016
    12  H   -0.000243  -0.000001   0.000013  -0.000005  -0.000016   0.001684
    13  H    0.001628   0.000000  -0.000003   0.000001   0.000004  -0.000008
    14  H   -0.001052  -0.000013   0.000024  -0.000003   0.000000   0.000001
    15  H    0.005023  -0.000490   0.001442  -0.000198   0.000033  -0.000001
    16  O    0.008464  -0.004754   0.017646  -0.001070   0.000318  -0.000010
    17  O   -0.015177   0.052262  -0.233778   0.016541  -0.001426  -0.000003
    18  H    0.005561  -0.004914   0.016948  -0.000799   0.000122   0.000003
             13         14         15         16         17         18
     1  C   -0.000155   0.000508   0.007501  -0.002869  -0.147274   0.010188
     2  C    0.001316  -0.000294   0.015854   0.021352  -0.008009   0.020981
     3  C   -0.001876   0.001220  -0.000112  -0.010816  -0.025360   0.005757
     4  C   -0.000955  -0.000700  -0.026976  -0.013850   0.127291  -0.039408
     5  C    0.001891  -0.000898   0.001080   0.010173   0.003598  -0.003043
     6  C   -0.001882   0.000831  -0.004302  -0.006458   0.004989  -0.000979
     7  C    0.001628  -0.001052   0.005023   0.008464  -0.015177   0.005561
     8  O    0.000000  -0.000013  -0.000490  -0.004754   0.052262  -0.004914
     9  H   -0.000003   0.000024   0.001442   0.017646  -0.233778   0.016948
    10  H    0.000001  -0.000003  -0.000198  -0.001070   0.016541  -0.000799
    11  H    0.000004   0.000000   0.000033   0.000318  -0.001426   0.000122
    12  H   -0.000008   0.000001  -0.000001  -0.000010  -0.000003   0.000003
    13  H   -0.004546  -0.000034   0.000005   0.000004   0.000002  -0.000003
    14  H   -0.000034   0.001651   0.000072   0.000010  -0.000026   0.000033
    15  H    0.000005   0.000072  -0.002789  -0.000188  -0.000921   0.000584
    16  O    0.000004   0.000010  -0.000188   0.548401  -0.184553  -0.002399
    17  O    0.000002  -0.000026  -0.000921  -0.184553   1.111584  -0.011750
    18  H   -0.000003   0.000033   0.000584  -0.002399  -0.011750  -0.011251
 Mulliken atomic spin densities:
              1
     1  C    0.147912
     2  C   -0.042587
     3  C    0.072919
     4  C    0.044722
     5  C   -0.021754
     6  C    0.056995
     7  C   -0.023847
     8  O    0.570922
     9  H    0.141215
    10  H    0.009540
    11  H   -0.002707
    12  H    0.001312
    13  H   -0.004610
    14  H    0.001331
    15  H   -0.004383
    16  O    0.379400
    17  O    0.687989
    18  H   -0.014370
 Sum of Mulliken atomic spin densities =   2.00000
 APT atomic charges:
              1
     1  C   -1.025050
     2  C    0.496098
     3  C   -0.876125
     4  C   -0.559590
     5  C   -0.553632
     6  C   -0.715978
     7  C   -0.584179
     8  O   -0.503353
     9  H    0.349901
    10  H    0.497347
    11  H    0.494140
    12  H    0.705431
    13  H    0.792415
    14  H    0.662517
    15  H    0.487954
    16  O   -0.020063
    17  O    0.033607
    18  H    0.318558
 Sum of APT charges=   0.00000
 APT Atomic charges with hydrogens summed into heavy atoms:
              1
     1  C   -0.527703
     2  C    0.496098
     3  C   -0.381985
     4  C   -0.071636
     5  C    0.151799
     6  C    0.076437
     7  C    0.078338
     8  O   -0.503353
     9  H    0.000000
    10  H    0.000000
    11  H    0.000000
    12  H    0.000000
    13  H    0.000000
    14  H    0.000000
    15  H    0.000000
    16  O    0.298495
    17  O    0.383509
    18  H    0.000000
 Sum of APT charges=   0.00000
 Electronic spatial extent (au):  <R**2>=           1457.7209
 Charge=              0.0000 electrons
 Dipole moment (field-independent basis, Debye):
    X=             -2.7049    Y=              3.0961    Z=              0.2891  Tot=              4.1214
 Quadrupole moment (field-independent basis, Debye-Ang):
   XX=            -62.0856   YY=            -65.9319   ZZ=            -53.6191
   XY=              4.0475   XZ=              2.5322   YZ=              0.3014
 Traceless Quadrupole moment (field-independent basis, Debye-Ang):
   XX=             -1.5401   YY=             -5.3864   ZZ=              6.9265
   XY=              4.0475   XZ=              2.5322   YZ=              0.3014
 Octapole moment (field-independent basis, Debye-Ang**2):
  XXX=             -6.7766  YYY=             16.5803  ZZZ=             -3.2173  XYY=             -3.1061
  XXY=             23.3734  XXZ=              0.1851  XZZ=              4.5641  YZZ=              2.6029
  YYZ=              0.2174  XYZ=             -6.2266
 Hexadecapole moment (field-independent basis, Debye-Ang**3):
 XXXX=          -1116.7818 YYYY=           -426.8182 ZZZZ=           -328.7495 XXXY=             17.8349
 XXXZ=             10.0641 YYYX=             30.9116 YYYZ=             -4.6024 ZZZX=              1.3362
 ZZZY=              5.5752 XXYY=           -293.2010 XXZZ=           -230.5844 YYZZ=           -124.4226
 XXYZ=              1.6807 YYXZ=              0.9610 ZZXY=              1.2167
 N-N= 5.116530083871D+02 E-N=-3.256692578199D+03  KE= 7.399814639978D+02
  Exact polarizability:   0.000   0.000   0.000   0.000   0.000   0.000
 Approx polarizability: 148.893 -18.666 108.927   8.285  12.374 134.993
                          Isotropic Fermi Contact Couplings
        Atom                 a.u.       MegaHertz       Gauss      10(-4) cm-1
     1  C(13)              0.00519       2.91833       1.04133       0.97345
     2  C(13)              0.00989       5.55806       1.98325       1.85397
     3  C(13)              0.00629       3.53558       1.26158       1.17934
     4  C(13)              0.00525       2.94928       1.05237       0.98377
     5  C(13)             -0.00477      -2.68389      -0.95768      -0.89525
     6  C(13)              0.00693       3.89620       1.39026       1.29963
     7  C(13)             -0.00502      -2.82223      -1.00704      -0.94139
     8  O(17)              0.10447     -31.66400     -11.29850     -10.56197
     9  H(1)               0.05909     132.05328      47.11989      44.04823
    10  H(1)               0.00817      18.26884       6.51878       6.09383
    11  H(1)              -0.00053      -1.17625      -0.41972      -0.39236
    12  H(1)               0.00026       0.58887       0.21012       0.19643
    13  H(1)              -0.00085      -1.89093      -0.67473      -0.63074
    14  H(1)               0.00029       0.64241       0.22923       0.21428
    15  H(1)              -0.00072      -1.60042      -0.57107      -0.53384
    16  O(17)              0.07996     -24.23566      -8.64788      -8.08415
    17  O(17)              0.23920     -72.49993     -25.86978     -24.18337
    18  H(1)              -0.00683     -15.25737      -5.44421      -5.08931
 --------------------------------------------------------
       Center         ----  Spin Dipole Couplings  ----
                      3XX-RR        3YY-RR        3ZZ-RR
 --------------------------------------------------------
     1   Atom       -0.064491      0.179183     -0.114692
     2   Atom        0.038731     -0.029789     -0.008942
     3   Atom       -0.011947      0.036483     -0.024536
     4   Atom       -0.010217      0.028714     -0.018497
     5   Atom        0.013462     -0.017324      0.003862
     6   Atom       -0.010739      0.035408     -0.024669
     7   Atom        0.010692     -0.014090      0.003398
     8   Atom       -0.431258      1.480433     -1.049175
     9   Atom       -0.046307      0.100167     -0.053860
    10   Atom       -0.017571     -0.006837      0.024409
    11   Atom        0.001117     -0.004657      0.003540
    12   Atom        0.003380     -0.002225     -0.001154
    13   Atom        0.006100     -0.001287     -0.004812
    14   Atom        0.002994     -0.001638     -0.001356
    15   Atom        0.002423     -0.002009     -0.000414
    16   Atom        0.017281     -0.099520      0.082239
    17   Atom        0.000051      0.001061     -0.001112
    18   Atom        0.029320      0.013887     -0.043207
 --------------------------------------------------------
                        XY            XZ            YZ
 --------------------------------------------------------
     1   Atom        0.137180     -0.048843     -0.046872
     2   Atom       -0.033932      0.015650      0.006913
     3   Atom        0.022183     -0.010921     -0.019916
     4   Atom        0.026406     -0.006828     -0.028110
     5   Atom       -0.008718      0.002160      0.008020
     6   Atom        0.028384     -0.008844     -0.022141
     7   Atom       -0.009151      0.005202      0.007726
     8   Atom        1.424061     -0.281522     -0.620136
     9   Atom        0.069622     -0.030450     -0.055752
    10   Atom        0.006752      0.004999     -0.007878
    11   Atom        0.001239     -0.005471      0.000839
    12   Atom       -0.000771     -0.000902      0.000002
    13   Atom       -0.001534      0.001498     -0.001669
    14   Atom        0.000104      0.001829      0.000765
    15   Atom        0.001635      0.006643      0.002996
    16   Atom       -0.907232     -1.064957      0.970631
    17   Atom       -1.071328     -1.674027      1.239091
    18   Atom        0.055776      0.012439      0.013157
 --------------------------------------------------------


 ---------------------------------------------------------------------------------
              Anisotropic Spin Dipole Couplings in Principal Axis System
 ---------------------------------------------------------------------------------

       Atom             a.u.   MegaHertz   Gauss  10(-4) cm-1        Axes

              Baa    -0.1508   -20.235    -7.220    -6.750  0.6952 -0.1905  0.6931
     1 C(13)  Bbb    -0.1008   -13.531    -4.828    -4.513 -0.5875  0.4051  0.7006
              Bcc     0.2516    33.766    12.048    11.263  0.4143  0.8942 -0.1697
 
              Baa    -0.0478    -6.416    -2.290    -2.140  0.3952  0.8637 -0.3127
     2 C(13)  Bbb    -0.0071    -0.956    -0.341    -0.319 -0.0511  0.3605  0.9313
              Bcc     0.0549     7.372     2.631     2.459  0.9172 -0.3521  0.1866
 
              Baa    -0.0319    -4.280    -1.527    -1.428  0.3256  0.1655  0.9309
     3 C(13)  Bbb    -0.0199    -2.666    -0.951    -0.889  0.8750 -0.4258 -0.2303
              Bcc     0.0518     6.946     2.479     2.317  0.3583  0.8895 -0.2835
 
              Baa    -0.0334    -4.483    -1.600    -1.495 -0.3398  0.5038  0.7942
     4 C(13)  Bbb    -0.0198    -2.657    -0.948    -0.886  0.8554 -0.1854  0.4837
              Bcc     0.0532     7.140     2.548     2.382  0.3909  0.8437 -0.3680
 
              Baa    -0.0223    -2.987    -1.066    -0.997  0.2432  0.9214 -0.3030
     5 C(13)  Bbb     0.0065     0.873     0.311     0.291  0.0727  0.2942  0.9530
              Bcc     0.0158     2.115     0.755     0.705  0.9673 -0.2538  0.0045
 
              Baa    -0.0320    -4.290    -1.531    -1.431 -0.0491  0.3304  0.9426
     6 C(13)  Bbb    -0.0240    -3.216    -1.148    -1.073  0.9120 -0.3699  0.1772
              Bcc     0.0559     7.507     2.679     2.504  0.4072  0.8683 -0.2832
 
              Baa    -0.0205    -2.750    -0.981    -0.917  0.3172  0.8800 -0.3536
     7 C(13)  Bbb     0.0060     0.810     0.289     0.270 -0.1709  0.4198  0.8914
              Bcc     0.0145     1.940     0.692     0.647  0.9328 -0.2223  0.2835
 
              Baa    -1.2299    88.998    31.757    29.687 -0.5856  0.4603  0.6672
     8 O(17)  Bbb    -1.1447    82.829    29.555    27.629  0.6679 -0.1924  0.7190
              Bcc     2.3746  -171.827   -61.312   -57.315  0.4594  0.8666 -0.1947
 
              Baa    -0.0811   -43.283   -15.444   -14.438  0.7432 -0.0812  0.6641
     9 H(1)   Bbb    -0.0666   -35.542   -12.682   -11.856 -0.5617  0.4636  0.6853
              Bcc     0.1477    78.825    28.127    26.293  0.3635  0.8823 -0.2989
 
              Baa    -0.0222   -11.853    -4.230    -3.954  0.8665 -0.4686 -0.1721
    10 H(1)   Bbb    -0.0043    -2.307    -0.823    -0.770  0.4931  0.8571  0.1492
              Bcc     0.0265    14.160     5.053     4.723  0.0776 -0.2141  0.9737
 
              Baa    -0.0056    -2.993    -1.068    -0.998 -0.4243  0.8429 -0.3309
    11 H(1)   Bbb    -0.0023    -1.239    -0.442    -0.413  0.6533  0.5380  0.5326
              Bcc     0.0079     4.233     1.510     1.412 -0.6270 -0.0098  0.7790
 
              Baa    -0.0023    -1.250    -0.446    -0.417  0.1501  0.9823  0.1124
    12 H(1)   Bbb    -0.0013    -0.698    -0.249    -0.233  0.1655 -0.1371  0.9766
              Bcc     0.0037     1.948     0.695     0.650  0.9747 -0.1280 -0.1831
 
              Baa    -0.0055    -2.956    -1.055    -0.986 -0.0757  0.3406  0.9372
    13 H(1)   Bbb    -0.0012    -0.614    -0.219    -0.205  0.2578  0.9146 -0.3115
              Bcc     0.0067     3.570     1.274     1.191  0.9632 -0.2180  0.1570
 
              Baa    -0.0025    -1.359    -0.485    -0.453 -0.2382 -0.6091  0.7565
    14 H(1)   Bbb    -0.0011    -0.607    -0.217    -0.202 -0.2647  0.7901  0.5528
              Bcc     0.0037     1.966     0.702     0.656  0.9344  0.0685  0.3495
 
              Baa    -0.0063    -3.343    -1.193    -1.115 -0.5289 -0.3433  0.7762
    15 H(1)   Bbb    -0.0025    -1.318    -0.470    -0.440 -0.4346  0.8951  0.0997
              Bcc     0.0087     4.661     1.663     1.555  0.7290  0.2846  0.6226
 
              Baa    -1.0219    73.947    26.386    24.666  0.5823 -0.2434  0.7756
    16 O(17)  Bbb    -0.9466    68.496    24.441    22.848  0.5670  0.8054 -0.1729
              Bcc     1.9685  -142.443   -50.827   -47.514 -0.5826  0.5405  0.6070
 
              Baa    -1.6903   122.309    43.643    40.798  0.6544 -0.1310  0.7447
    17 O(17)  Bbb    -0.9831    71.138    25.384    23.729  0.4690  0.8428 -0.2639
              Bcc     2.6734  -193.448   -69.027   -64.527 -0.5931  0.5220  0.6130
 
              Baa    -0.0461   -24.594    -8.776    -8.204 -0.0085 -0.2067  0.9784
    18 H(1)   Bbb    -0.0344   -18.376    -6.557    -6.130 -0.6674  0.7298  0.1484
              Bcc     0.0805    42.970    15.333    14.333  0.7447  0.6517  0.1441
 

 ---------------------------------------------------------------------------------

 Calling FoFJK, ICntrl=    100147 FMM=F ISym2X=0 I1Cent= 0 IOpClX= 1 NMat=1 NMatS=1 NMatT=0.
 ***** Axes restored to original set *****
 -------------------------------------------------------------------
 Center     Atomic                   Forces (Hartrees/Bohr)
 Number     Number              X              Y              Z
 -------------------------------------------------------------------
      1        6          -0.002759457   -0.001653452   -0.002433639
      2        6           0.000113647    0.000120015   -0.000101253
      3        6          -0.000200580   -0.000249081   -0.000770053
      4        6          -0.000807329    0.000640406    0.000415753
      5        6           0.000556242   -0.000212107   -0.000666033
      6        6           0.000378669    0.000169014    0.000393954
      7        6           0.000559485   -0.000039113    0.000682828
      8        8           0.000023989    0.000107799    0.000109425
      9        1          -0.008328899   -0.035139559    0.017405822
     10        1           0.000064051   -0.000004430   -0.000160755
     11        1           0.000213160    0.000039668    0.000476030
     12        1          -0.000215284    0.000142399    0.000473109
     13        1          -0.000146162   -0.000163337   -0.000276543
     14        1          -0.000219625   -0.000174089   -0.000520658
     15        1           0.000164922   -0.000308975   -0.000503844
     16        8          -0.000287036   -0.000146148    0.000044729
     17        8           0.011068758    0.036999458   -0.014645088
     18        1          -0.000178553   -0.000128466    0.000076217
 -------------------------------------------------------------------
 Cartesian Forces:  Max     0.036999458 RMS     0.007858531

 GradGradGradGradGradGradGradGradGradGradGradGradGradGradGradGradGradGrad
 Berny optimization.
 Internal  Forces:  Max     0.040731812 RMS     0.004684849
 Search for a saddle point.
 Step number   1 out of a maximum of   90
 All quantities printed in internal units (Hartrees-Bohrs-Radians)
 Swaping is turned off.
 Second derivative matrix not updated -- analytic derivatives used.
 ITU=  0
     Eigenvalues ---    0.00037   0.00295   0.00556   0.01218   0.01574
     Eigenvalues ---    0.01799   0.01840   0.02179   0.02430   0.02560
     Eigenvalues ---    0.02677   0.02878   0.02960   0.03252   0.04053
     Eigenvalues ---    0.05595   0.06367   0.08981   0.10077   0.10513
     Eigenvalues ---    0.10839   0.11364   0.12119   0.12415   0.16781
     Eigenvalues ---    0.17646   0.17938   0.18905   0.19226   0.19446
     Eigenvalues ---    0.25950   0.27557   0.29060   0.30992   0.34624
     Eigenvalues ---    0.35681   0.36010   0.36096   0.36168   0.36292
     Eigenvalues ---    0.41358   0.42206   0.43562   0.47132   0.47829
     Eigenvalues ---    0.52243   0.56170   0.60176
 Eigenvectors required to have negative eigenvalues:
                          D8        D9        D7        D34       R16
   1                   -0.51713  -0.51525  -0.50640   0.41226  -0.11551
                          R3        D1        D2        A4        A25
   1                    0.10272   0.07298   0.06972  -0.04719  -0.04290
 RFO step:  Lambda0=4.329656561D-03 Lambda=-2.56583227D-02.
 Linear search not attempted -- option 19 set.
 Maximum step size (   0.300) exceeded in Quadratic search.
    -- Step size scaled by   0.482
 Iteration  1 RMS(Cart)=  0.03002645 RMS(Int)=  0.03344644
 Iteration  2 RMS(Cart)=  0.03902187 RMS(Int)=  0.00084679
 Iteration  3 RMS(Cart)=  0.00173633 RMS(Int)=  0.00009728
 Iteration  4 RMS(Cart)=  0.00000288 RMS(Int)=  0.00009721
 Iteration  5 RMS(Cart)=  0.00000000 RMS(Int)=  0.00009721
 Variable       Old X    -DE/DX   Delta X   Delta X   Delta X     New X
                                 (Linear)    (Quad)   (Total)
    R1        2.84177  -0.00030   0.00000   0.01880   0.01880   2.86058
    R2        2.44172  -0.00012   0.00000   0.01164   0.01164   2.45335
    R3        2.48980   0.00187   0.00000  -0.13958  -0.13958   2.35022
    R4        2.08474  -0.00014   0.00000  -0.00094  -0.00094   2.08381
    R5        2.64170  -0.00051   0.00000  -0.00755  -0.00755   2.63415
    R6        2.64405   0.00003   0.00000  -0.00731  -0.00731   2.63673
    R7        2.61798  -0.00032   0.00000   0.00192   0.00192   2.61989
    R8        2.04732   0.00052   0.00000   0.00058   0.00058   2.04790
    R9        2.62893  -0.00063   0.00000  -0.00148  -0.00148   2.62745
   R10        2.04506   0.00058   0.00000   0.00090   0.00090   2.04596
   R11        2.63034  -0.00019   0.00000  -0.00296  -0.00296   2.62738
   R12        2.04288   0.00051   0.00000   0.00047   0.00047   2.04336
   R13        2.62311  -0.00021   0.00000  -0.00019  -0.00019   2.62292
   R14        2.04250   0.00015   0.00000   0.00039   0.00039   2.04289
   R15        2.04320   0.00059   0.00000   0.00053   0.00053   2.04373
   R16        2.32911   0.04073   0.00000   0.24786   0.24786   2.57696
   R17        2.44031   0.00010   0.00000   0.00214   0.00214   2.44246
   R18        1.88396   0.00021   0.00000  -0.01361  -0.01361   1.87035
    A1        2.08178  -0.00005   0.00000  -0.01264  -0.01315   2.06863
    A2        1.67946  -0.00051   0.00000   0.03698   0.03697   1.71643
    A3        1.98349   0.00029   0.00000  -0.00331  -0.00371   1.97978
    A4        1.75825   0.00011   0.00000   0.01173   0.01186   1.77011
    A5        2.07312  -0.00011   0.00000  -0.01124  -0.01160   2.06152
    A6        1.77944   0.00015   0.00000   0.00052   0.00049   1.77993
    A7        2.11012  -0.00031   0.00000  -0.00610  -0.00611   2.10402
    A8        2.09334   0.00034   0.00000   0.00196   0.00196   2.09530
    A9        2.07539  -0.00003   0.00000   0.00469   0.00469   2.08008
   A10        2.10375   0.00002   0.00000  -0.00144  -0.00143   2.10232
   A11        2.08140  -0.00005   0.00000   0.00163   0.00163   2.08303
   A12        2.09801   0.00002   0.00000  -0.00019  -0.00019   2.09783
   A13        2.09974   0.00004   0.00000  -0.00108  -0.00107   2.09867
   A14        2.06138   0.00018   0.00000   0.00423   0.00423   2.06560
   A15        2.12180  -0.00022   0.00000  -0.00320  -0.00320   2.11860
   A16        2.09966  -0.00001   0.00000  -0.00206  -0.00207   2.09759
   A17        2.09212  -0.00013   0.00000   0.00047   0.00047   2.09258
   A18        2.09140   0.00014   0.00000   0.00160   0.00160   2.09300
   A19        2.08784  -0.00002   0.00000   0.00148   0.00147   2.08932
   A20        2.09452   0.00032   0.00000   0.00036   0.00036   2.09488
   A21        2.10081  -0.00030   0.00000  -0.00184  -0.00183   2.09898
   A22        2.09995   0.00000   0.00000  -0.00160  -0.00160   2.09835
   A23        2.09008  -0.00003   0.00000   0.00100   0.00100   2.09108
   A24        2.09312   0.00003   0.00000   0.00060   0.00060   2.09372
   A25        2.98748  -0.00936   0.00000  -0.05418  -0.05418   2.93330
   A26        1.86418  -0.00010   0.00000   0.00438   0.00438   1.86856
   A27        1.82553  -0.00124   0.00000  -0.01500  -0.01500   1.81054
    D1        3.07130   0.00015   0.00000  -0.00765  -0.00747   3.06383
    D2       -0.17130   0.00013   0.00000  -0.00088  -0.00071  -0.17201
    D3       -1.36137  -0.00005   0.00000   0.02544   0.02536  -1.33601
    D4        1.67921  -0.00007   0.00000   0.03221   0.03212   1.71133
    D5        0.48825  -0.00006   0.00000   0.04322   0.04313   0.53138
    D6       -2.75435  -0.00008   0.00000   0.04999   0.04989  -2.70446
    D7       -0.86676   0.00036   0.00000  -0.29306  -0.29321  -1.15998
    D8        1.25252   0.00019   0.00000  -0.29275  -0.29250   0.96002
    D9       -2.88815   0.00017   0.00000  -0.30036  -0.30046   3.09457
   D10        3.04366  -0.00003   0.00000   0.00471   0.00471   3.04836
   D11       -0.10396  -0.00003   0.00000   0.00564   0.00563  -0.09833
   D12        0.00205  -0.00003   0.00000  -0.00184  -0.00184   0.00020
   D13        3.13762  -0.00003   0.00000  -0.00092  -0.00092   3.13670
   D14       -3.03986   0.00002   0.00000  -0.00405  -0.00407  -3.04393
   D15        0.12591   0.00007   0.00000  -0.00165  -0.00166   0.12425
   D16        0.00273  -0.00002   0.00000   0.00196   0.00197   0.00470
   D17       -3.11468   0.00003   0.00000   0.00436   0.00438  -3.11030
   D18       -0.00832   0.00005   0.00000   0.00045   0.00045  -0.00787
   D19        3.13719  -0.00005   0.00000   0.00035   0.00035   3.13754
   D20        3.13936   0.00005   0.00000  -0.00049  -0.00049   3.13886
   D21        0.00168  -0.00005   0.00000  -0.00059  -0.00059   0.00109
   D22       -0.00126   0.00005   0.00000  -0.00070  -0.00070  -0.00196
   D23       -3.13389   0.00007   0.00000   0.00000  -0.00001  -3.13389
   D24        3.11529   0.00000   0.00000  -0.00307  -0.00307   3.11222
   D25       -0.01734   0.00002   0.00000  -0.00238  -0.00238  -0.01971
   D26        0.00975  -0.00002   0.00000   0.00085   0.00085   0.01060
   D27       -3.13603  -0.00010   0.00000   0.00006   0.00007  -3.13597
   D28       -3.13576   0.00008   0.00000   0.00095   0.00095  -3.13481
   D29        0.00165  -0.00001   0.00000   0.00016   0.00016   0.00181
   D30       -0.00496  -0.00003   0.00000  -0.00073  -0.00073  -0.00569
   D31        3.12765  -0.00005   0.00000  -0.00142  -0.00142   3.12623
   D32        3.14083   0.00005   0.00000   0.00005   0.00005   3.14089
   D33       -0.00974   0.00003   0.00000  -0.00064  -0.00064  -0.01038
   D34        0.20885   0.00073   0.00000   0.22361   0.22361   0.43246
   D35        0.15365   0.00014   0.00000  -0.00031  -0.00031   0.15334
         Item               Value     Threshold  Converged?
 Maximum Force            0.040732     0.000450     NO 
 RMS     Force            0.004685     0.000300     NO 
 Maximum Displacement     0.267199     0.001800     NO 
 RMS     Displacement     0.059839     0.001200     NO 
 Predicted change in Energy=-9.191981D-03
 GradGradGradGradGradGradGradGradGradGradGradGradGradGradGradGradGradGrad

                          Input orientation:                          
 ---------------------------------------------------------------------
 Center     Atomic      Atomic             Coordinates (Angstroms)
 Number     Number       Type             X           Y           Z
 ---------------------------------------------------------------------
      1          6           0        1.344380   -0.933201    0.685050
      2          6           0       -0.095981   -0.577568    0.384504
      3          6           0       -0.878876    0.072579    1.337097
      4          6           0       -0.618554   -0.797344   -0.890438
      5          6           0       -2.161114    0.495772    1.022698
      6          6           0       -2.674692    0.282926   -0.251666
      7          6           0       -1.902644   -0.366685   -1.204796
      8          8           0        2.011201   -1.615451   -0.195495
      9          1           0        1.841998    0.198345    0.548220
     10          1           0        1.531944   -1.138271    1.752158
     11          1           0       -0.477423    0.240627    2.329569
     12          1           0       -2.761957    0.995886    1.769747
     13          1           0       -3.672924    0.618600   -0.495650
     14          1           0       -2.303364   -0.547063   -2.192986
     15          1           0       -0.010173   -1.329571   -1.610714
     16          8           0        1.615883    1.656146   -0.931932
     17          8           0        2.314584    1.405903    0.126242
     18          1           0        0.902802    0.971302   -0.977727
 ---------------------------------------------------------------------
                    Distance matrix (angstroms):
                    1          2          3          4          5
     1  C    0.000000
     2  C    1.513751   0.000000
     3  C    2.525792   1.393934   0.000000
     4  C    2.520661   1.395300   2.405504   0.000000
     5  C    3.800587   2.413322   1.386389   2.777000   0.000000
     6  C    4.302249   2.791937   2.406942   2.408882   1.390349
     7  C    3.799424   2.415445   2.775297   1.390386   2.402575
[...]
    15  H    0.026734   0.027594   0.026191   0.346943  -0.013525  -0.003923
    16  O   -0.009229  -0.005045  -0.000348   0.016799  -0.002415   0.003451
    17  O    0.018449  -0.019971   0.055443  -0.032707   0.002260   0.001101
    18  H   -0.031114   0.044375  -0.038840   0.020737  -0.001579  -0.001156
              7          8          9         10         11         12
     1  C   -0.390440   0.188915   0.339786   0.450657  -0.004373   0.006520
     2  C    0.902095  -0.059012  -0.000638   0.020868   0.069249  -0.003342
     3  C   -0.852153  -0.033266   0.030676  -0.071812   0.262704   0.045982
     4  C   -1.195511  -0.041141  -0.060945  -0.010524  -0.002866  -0.000744
     5  C    0.753322   0.009291   0.045022   0.006804   0.054288   0.299626
     6  C   -0.026863  -0.006843  -0.005838  -0.004883  -0.013559   0.046614
     7  C    6.553556   0.100508   0.022518  -0.003612   0.002397  -0.014884
     8  O    0.100508   7.978720  -0.040526  -0.052469   0.000395   0.000030
     9  H    0.022518  -0.040526   0.556350  -0.028927   0.002505  -0.000046
    10  H   -0.003612  -0.052469  -0.028927   0.513950   0.000491   0.000018
    11  H    0.002397   0.000395   0.002505   0.000491   0.484877  -0.006844
    12  H   -0.014884   0.000030  -0.000046   0.000018  -0.006844   0.489352
    13  H    0.020677  -0.000007  -0.000003  -0.000004  -0.000081  -0.006900
    14  H    0.337439   0.000161   0.000010   0.000027   0.000052  -0.000076
    15  H   -0.033336  -0.003249  -0.000174  -0.001145  -0.000134   0.000039
    16  O    0.005099  -0.016405  -0.006126   0.001042  -0.000359  -0.000011
    17  O   -0.001067   0.004598  -0.007865  -0.000145  -0.000338   0.000008
    18  H   -0.004814   0.289938  -0.009645   0.005766  -0.000008   0.000001
             13         14         15         16         17         18
     1  C    0.003444   0.005090   0.026734  -0.009229   0.018449  -0.031114
     2  C    0.011396   0.004746   0.027594  -0.005045  -0.019971   0.044375
     3  C   -0.006625  -0.010301   0.026191  -0.000348   0.055443  -0.038840
     4  C   -0.011825   0.011044   0.346943   0.016799  -0.032707   0.020737
     5  C    0.024076  -0.004016  -0.013525  -0.002415   0.002260  -0.001579
     6  C    0.338803   0.033989  -0.003923   0.003451   0.001101  -0.001156
     7  C    0.020677   0.337439  -0.033336   0.005099  -0.001067  -0.004814
     8  O   -0.000007   0.000161  -0.003249  -0.016405   0.004598   0.289938
     9  H   -0.000003   0.000010  -0.000174  -0.006126  -0.007865  -0.009645
    10  H   -0.000004   0.000027  -0.001145   0.001042  -0.000145   0.005766
    11  H   -0.000081   0.000052  -0.000134  -0.000359  -0.000338  -0.000008
    12  H   -0.006900  -0.000076   0.000039  -0.000011   0.000008   0.000001
    13  H    0.486647  -0.007053  -0.000051   0.000001  -0.000001  -0.000001
    14  H   -0.007053   0.491336  -0.006905  -0.000003   0.000001   0.000018
    15  H   -0.000051  -0.006905   0.453663  -0.000387   0.000110  -0.001745
    16  O    0.000001  -0.000003  -0.000387   7.608583   0.333222   0.004010
    17  O   -0.000001   0.000001   0.000110   0.333222   7.652134   0.000394
    18  H   -0.000001   0.000018  -0.001745   0.004010   0.000394   0.484475
 Mulliken atomic charges:
              1
     1  C   -0.386081
     2  C    0.680455
     3  C   -0.446494
     4  C   -0.262147
     5  C   -0.211294
     6  C   -0.290829
     7  C   -0.174931
     8  O   -0.319636
     9  H    0.163867
    10  H    0.173899
    11  H    0.151606
    12  H    0.144656
    13  H    0.147508
    14  H    0.144443
    15  H    0.183299
    16  O    0.068119
    17  O   -0.005626
    18  H    0.239188
 Sum of Mulliken atomic charges =   0.00000
 Mulliken charges with hydrogens summed into heavy atoms:
              1
     1  C   -0.048316
     2  C    0.680455
     3  C   -0.294888
     4  C   -0.078849
     5  C   -0.066638
     6  C   -0.143322
     7  C   -0.030488
     8  O   -0.080448
    16  O    0.068119
    17  O   -0.005626
 Sum of Mulliken charges with hydrogens summed into heavy atoms =   0.00000
          Atomic-Atomic Spin Densities.
              1          2          3          4          5          6
     1  C    0.092474  -0.089804   0.036005   0.003671   0.011313  -0.002276
     2  C   -0.089804  -0.000084   0.049861   0.001651  -0.039647   0.025898
     3  C    0.036005   0.049861   0.046607  -0.036217  -0.045035  -0.027671
     4  C    0.003671   0.001651  -0.036217   0.079201   0.002424  -0.015537
     5  C    0.011313  -0.039647  -0.045035   0.002424   0.059132   0.013590
     6  C   -0.002276   0.025898  -0.027671  -0.015537   0.013590   0.001579
     7  C   -0.028808   0.029484  -0.007340  -0.032712  -0.004065   0.008281
     8  O   -0.017924   0.014264  -0.006280   0.003146  -0.000312  -0.000032
     9  H    0.006543  -0.004011  -0.004443   0.002925   0.001787  -0.000143
    10  H   -0.003556   0.003128   0.001392  -0.001250  -0.000593   0.000117
    11  H    0.001623  -0.002803   0.006237   0.000754  -0.004827   0.000431
    12  H    0.000060   0.000196  -0.001152  -0.000133   0.001158  -0.000268
    13  H    0.000002   0.000026   0.000009   0.000264  -0.000130  -0.000393
    14  H    0.000040  -0.000320  -0.000316  -0.000451   0.000274   0.000417
    15  H    0.000896   0.000345   0.001003   0.000084  -0.000113  -0.000554
    16  O    0.007507   0.012501  -0.024700   0.010968   0.000174  -0.000439
    17  O    0.004444  -0.008113   0.007285  -0.005457   0.002007  -0.000138
    18  H   -0.001024  -0.006254   0.004884  -0.001484   0.000180   0.000161
              7          8          9         10         11         12
     1  C   -0.028808  -0.017924   0.006543  -0.003556   0.001623   0.000060
     2  C    0.029484   0.014264  -0.004011   0.003128  -0.002803   0.000196
     3  C   -0.007340  -0.006280  -0.004443   0.001392   0.006237  -0.001152
     4  C   -0.032712   0.003146   0.002925  -0.001250   0.000754  -0.000133
     5  C   -0.004065  -0.000312   0.001787  -0.000593  -0.004827   0.001158
     6  C    0.008281  -0.000032  -0.000143   0.000117   0.000431  -0.000268
     7  C    0.032620   0.001875  -0.000239   0.000351  -0.001033   0.000144
     8  O    0.001875   0.024711  -0.000666   0.000456  -0.000087   0.000001
     9  H   -0.000239  -0.000666  -0.006593   0.000185  -0.000220   0.000001
    10  H    0.000351   0.000456   0.000185   0.000777  -0.000021   0.000000
    11  H   -0.001033  -0.000087  -0.000220  -0.000021  -0.000886   0.000047
    12  H    0.000144   0.000001   0.000001   0.000000   0.000047   0.000013
    13  H    0.000207  -0.000001   0.000000   0.000000   0.000000   0.000006
    14  H    0.000345   0.000006   0.000000   0.000000   0.000000  -0.000001
    15  H   -0.001581  -0.000381  -0.000023   0.000004   0.000002   0.000000
    16  O    0.001924  -0.011833   0.008359  -0.000980  -0.000020  -0.000006
    17  O   -0.001063   0.004077  -0.009518   0.000735   0.000107   0.000001
    18  H    0.000959   0.009554   0.000661  -0.000092   0.000013   0.000000
             13         14         15         16         17         18
     1  C    0.000002   0.000040   0.000896   0.007507   0.004444  -0.001024
     2  C    0.000026  -0.000320   0.000345   0.012501  -0.008113  -0.006254
     3  C    0.000009  -0.000316   0.001003  -0.024700   0.007285   0.004884
     4  C    0.000264  -0.000451   0.000084   0.010968  -0.005457  -0.001484
     5  C   -0.000130   0.000274  -0.000113   0.000174   0.002007   0.000180
     6  C   -0.000393   0.000417  -0.000554  -0.000439  -0.000138   0.000161
     7  C    0.000207   0.000345  -0.001581   0.001924  -0.001063   0.000959
     8  O   -0.000001   0.000006  -0.000381  -0.011833   0.004077   0.009554
     9  H    0.000000   0.000000  -0.000023   0.008359  -0.009518   0.000661
    10  H    0.000000   0.000000   0.000004  -0.000980   0.000735  -0.000092
    11  H    0.000000   0.000000   0.000002  -0.000020   0.000107   0.000013
    12  H    0.000006  -0.000001   0.000000  -0.000006   0.000001   0.000000
    13  H   -0.000149  -0.000002   0.000001   0.000000   0.000000   0.000000
    14  H   -0.000002   0.000116  -0.000020   0.000003  -0.000001  -0.000002
    15  H    0.000001  -0.000020   0.000011  -0.000118   0.000033   0.000087
    16  O    0.000000   0.000003  -0.000118   1.376842  -0.429189   0.001069
    17  O    0.000000  -0.000001   0.000033  -0.429189   1.449130   0.003706
    18  H    0.000000  -0.000002   0.000087   0.001069   0.003706  -0.016514
 Mulliken atomic spin densities:
              1
     1  C    0.021184
     2  C   -0.013683
     3  C    0.000128
     4  C    0.011847
     5  C   -0.002684
     6  C    0.003024
     7  C   -0.000650
     8  O    0.020577
     9  H   -0.005396
    10  H    0.000652
    11  H   -0.000682
    12  H    0.000068
    13  H   -0.000159
    14  H    0.000089
    15  H   -0.000325
    16  O    0.952060
    17  O    1.018046
    18  H   -0.004096
 Sum of Mulliken atomic spin densities =   2.00000
 Electronic spatial extent (au):  <R**2>=           1684.4982
 Charge=              0.0000 electrons
 Dipole moment (field-independent basis, Debye):
    X=             -0.3358    Y=             -1.7110    Z=             -0.5671  Tot=              1.8336
 Quadrupole moment (field-independent basis, Debye-Ang):
   XX=            -54.5507   YY=            -58.9095   ZZ=            -58.3857
   XY=              2.6500   XZ=             -0.6007   YZ=             -2.6510
 Traceless Quadrupole moment (field-independent basis, Debye-Ang):
   XX=              2.7313   YY=             -1.6276   ZZ=             -1.1037
   XY=              2.6500   XZ=             -0.6007   YZ=             -2.6510
 Octapole moment (field-independent basis, Debye-Ang**2):
  XXX=            -31.4612  YYY=            -12.8523  ZZZ=             -3.7638  XYY=             -1.3288
  XXY=            -10.6472  XXZ=            -17.8434  XZZ=            -18.4783  YZZ=              2.6963
  YYZ=             -4.1894  XYZ=             -0.8186
 Hexadecapole moment (field-independent basis, Debye-Ang**3):
 XXXX=          -1414.5377 YYYY=           -435.4527 ZZZZ=           -220.1688 XXXY=             10.7202
 XXXZ=             -1.6245 YYYX=             21.6551 YYYZ=             -8.5907 ZZZX=             11.5792
 ZZZY=              8.4848 XXYY=           -320.6099 XXZZ=           -286.7464 YYZZ=           -106.0655
 XXYZ=            -11.8425 YYXZ=              6.1385 ZZXY=              8.9340
 N-N= 4.979074266133D+02 E-N=-3.216290974259D+03  KE= 7.396153048912D+02
                          Isotropic Fermi Contact Couplings
        Atom                 a.u.       MegaHertz       Gauss      10(-4) cm-1
     1  C(13)             -0.00030      -0.17041      -0.06081      -0.05684
     2  C(13)              0.00041       0.22976       0.08199       0.07664
     3  C(13)              0.00039       0.21651       0.07726       0.07222
     4  C(13)              0.00030       0.17132       0.06113       0.05715
     5  C(13)             -0.00023      -0.12956      -0.04623      -0.04322
     6  C(13)              0.00027       0.15223       0.05432       0.05078
     7  C(13)             -0.00019      -0.10691      -0.03815      -0.03566
     8  O(17)             -0.00213       0.64535       0.23028       0.21527
     9  H(1)               0.00025       0.54785       0.19548       0.18274
    10  H(1)               0.00046       1.03197       0.36823       0.34423
    11  H(1)              -0.00004      -0.07856      -0.02803      -0.02620
    12  H(1)               0.00001       0.02642       0.00943       0.00881
    13  H(1)              -0.00003      -0.06953      -0.02481      -0.02319
    14  H(1)               0.00002       0.04715       0.01683       0.01573
    15  H(1)              -0.00004      -0.08477      -0.03025      -0.02828
    16  O(17)              0.17549     -53.19138     -18.98001     -17.74273
    17  O(17)              0.18457     -55.94279     -19.96178     -18.66051
    18  H(1)              -0.00361      -8.06865      -2.87909      -2.69141
 --------------------------------------------------------
       Center         ----  Spin Dipole Couplings  ----
                      3XX-RR        3YY-RR        3ZZ-RR
 --------------------------------------------------------
     1   Atom        0.001320      0.001407     -0.002727
     2   Atom        0.010117     -0.005010     -0.005107
     3   Atom        0.007076     -0.005765     -0.001311
     4   Atom        0.003704     -0.002592     -0.001112
     5   Atom        0.004418     -0.001794     -0.002624
     6   Atom        0.002453     -0.002242     -0.000211
     7   Atom        0.003478     -0.001131     -0.002347
     8   Atom       -0.057536      0.048272      0.009265
     9   Atom        0.000721     -0.016289      0.015568
    10   Atom       -0.001946     -0.001963      0.003910
    11   Atom        0.006218     -0.004337     -0.001881
    12   Atom        0.002716     -0.001256     -0.001460
    13   Atom        0.002070     -0.001092     -0.000978
    14   Atom        0.001951     -0.000695     -0.001257
    15   Atom        0.002473      0.000852     -0.003325
    16   Atom        0.559105      0.201201     -0.760306
    17   Atom        0.578524      0.247061     -0.825585
    18   Atom       -0.033616      0.055049     -0.021433
 --------------------------------------------------------
                        XY            XZ            YZ
 --------------------------------------------------------
     1   Atom        0.017606      0.013184      0.009477
     2   Atom        0.004835      0.005805      0.001463
     3   Atom       -0.000894      0.005763     -0.000488
     4   Atom        0.004307      0.001690      0.001082
     5   Atom       -0.000819      0.000786     -0.000463
     6   Atom        0.000693      0.001236      0.000981
     7   Atom        0.001358     -0.000363     -0.000380
     8   Atom        0.043576      0.035819      0.095160
     9   Atom        0.014388      0.028673      0.011350
    10   Atom        0.003759      0.005409      0.005436
    11   Atom       -0.003518      0.006455     -0.002328
    12   Atom       -0.001230      0.000772     -0.000269
    13   Atom        0.000032     -0.000047      0.000055
    14   Atom        0.001285     -0.000294     -0.000109
    15   Atom        0.004871      0.000395      0.000371
    16   Atom       -0.876612      1.177096      1.408042
    17   Atom       -0.884119      1.250732      1.484854
    18   Atom        0.031200      0.014246      0.035917
 --------------------------------------------------------


 ---------------------------------------------------------------------------------
              Anisotropic Spin Dipole Couplings in Principal Axis System
 ---------------------------------------------------------------------------------

       Atom             a.u.   MegaHertz   Gauss  10(-4) cm-1        Axes

              Baa    -0.0172    -2.307    -0.823    -0.769  0.7636 -0.5528 -0.3338
     1 C(13)  Bbb    -0.0103    -1.384    -0.494    -0.462 -0.0580 -0.5735  0.8171
              Bcc     0.0275     3.691     1.317     1.231  0.6431  0.6046  0.4700
 
              Baa    -0.0071    -0.953    -0.340    -0.318 -0.3642  0.2065  0.9081
     2 C(13)  Bbb    -0.0064    -0.853    -0.304    -0.285 -0.1761  0.9422 -0.2849
              Bcc     0.0135     1.806     0.644     0.602  0.9145  0.2637  0.3068
 
              Baa    -0.0058    -0.782    -0.279    -0.261  0.0487  0.9978  0.0457
     3 C(13)  Bbb    -0.0042    -0.570    -0.203    -0.190 -0.4548 -0.0186  0.8904
              Bcc     0.0101     1.352     0.482     0.451  0.8893 -0.0641  0.4529
 
              Baa    -0.0048    -0.643    -0.229    -0.214 -0.4418  0.8951 -0.0603
     4 C(13)  Bbb    -0.0016    -0.219    -0.078    -0.073 -0.2560 -0.0614  0.9647
              Bcc     0.0064     0.862     0.307     0.287  0.8598  0.4417  0.2563
 
              Baa    -0.0029    -0.383    -0.137    -0.128 -0.0601  0.3602  0.9309
     5 C(13)  Bbb    -0.0018    -0.237    -0.085    -0.079  0.1662  0.9232 -0.3465
              Bcc     0.0046     0.620     0.221     0.207  0.9843 -0.1339  0.1154
 
              Baa    -0.0026    -0.355    -0.127    -0.118 -0.0407  0.9337 -0.3557
     6 C(13)  Bbb    -0.0005    -0.065    -0.023    -0.022 -0.4298  0.3050  0.8498
              Bcc     0.0031     0.420     0.150     0.140  0.9020  0.1874  0.3889
 
              Baa    -0.0025    -0.330    -0.118    -0.110 -0.0056  0.2809  0.9597
     7 C(13)  Bbb    -0.0014    -0.191    -0.068    -0.064 -0.2755  0.9222 -0.2715
              Bcc     0.0039     0.521     0.186     0.174  0.9613  0.2660 -0.0722
 
              Baa    -0.0735     5.319     1.898     1.774  0.9615 -0.1861 -0.2021
     8 O(17)  Bbb    -0.0684     4.947     1.765     1.650  0.0374 -0.6401  0.7674
              Bcc     0.1419   -10.265    -3.663    -3.424  0.2722  0.7454  0.6085
 
              Baa    -0.0258   -13.766    -4.912    -4.592 -0.6727  0.6857  0.2781
     9 H(1)   Bbb    -0.0173    -9.238    -3.296    -3.081  0.4307  0.6684 -0.6063
              Bcc     0.0431    23.003     8.208     7.673  0.6017  0.2881  0.7450
 
              Baa    -0.0057    -3.049    -1.088    -1.017 -0.6950  0.7188 -0.0154
    10 H(1)   Bbb    -0.0049    -2.606    -0.930    -0.869 -0.5489 -0.5167  0.6571
              Bcc     0.0106     5.654     2.018     1.886  0.4644  0.4651  0.7537
 
              Baa    -0.0058    -3.092    -1.103    -1.031 -0.1646  0.7046  0.6903
    11 H(1)   Bbb    -0.0052    -2.748    -0.981    -0.917  0.5153  0.6581 -0.5489
              Bcc     0.0109     5.840     2.084     1.948  0.8410 -0.2654  0.4714
 
              Baa    -0.0017    -0.881    -0.314    -0.294  0.0844  0.7272  0.6812
    12 H(1)   Bbb    -0.0016    -0.831    -0.297    -0.277 -0.3100 -0.6306  0.7115
              Bcc     0.0032     1.712     0.611     0.571  0.9470 -0.2712  0.1722
 
              Baa    -0.0011    -0.595    -0.212    -0.198 -0.0150  0.9255 -0.3785
    13 H(1)   Bbb    -0.0010    -0.510    -0.182    -0.170  0.0104  0.3787  0.9255
              Bcc     0.0021     1.105     0.394     0.369  0.9998  0.0099 -0.0153
 
              Baa    -0.0013    -0.685    -0.245    -0.229  0.1296 -0.1004  0.9865
    14 H(1)   Bbb    -0.0012    -0.648    -0.231    -0.216 -0.3611  0.9218  0.1412
              Bcc     0.0025     1.333     0.476     0.445  0.9235  0.3745 -0.0832
 
              Baa    -0.0034    -1.794    -0.640    -0.599  0.1505 -0.2578  0.9544
    15 H(1)   Bbb    -0.0033    -1.743    -0.622    -0.581 -0.6302  0.7188  0.2935
              Bcc     0.0066     3.537     1.262     1.180  0.7617  0.6456  0.0543
 
              Baa    -2.4767   179.214    63.948    59.779 -0.4352 -0.5265  0.7304
    16 O(17)  Bbb     1.1990   -86.761   -30.959   -28.940  0.3084  0.6750  0.6703
              Bcc     1.2777   -92.453   -32.989   -30.839  0.8459 -0.5169  0.1314
 
              Baa    -2.6049   188.491    67.258    62.874 -0.4336 -0.5182  0.7372
    17 O(17)  Bbb     1.2887   -93.252   -33.275   -31.106  0.1485  0.7658  0.6257
              Bcc     1.3162   -95.239   -33.984   -31.768  0.8888 -0.3807  0.2551
 
              Baa    -0.0443   -23.638    -8.435    -7.885  0.9398 -0.1932 -0.2820
    18 H(1)   Bbb    -0.0353   -18.850    -6.726    -6.288  0.1817 -0.4167  0.8907
              Bcc     0.0796    42.489    15.161    14.173  0.2896  0.8883  0.3565
 

 ---------------------------------------------------------------------------------



 NOTHING RESEMBLES A NEW PHENOMENON AS MUCH AS A MISTAKE.

                               -- ENRICO FERMI (?)
 Error termination request processed by link 9999.
 Error termination via Lnk1e in /shared/apps/gaussian/G09_LINUX_LINDA/g09/l9999.exe at Sat Sep 30 06:37:16 2017.
 Job cpu time:  8 days  4 hours 30 minutes  3.3 seconds.
 File lengths (MBytes):  RWF=   2624 Int=      0 D2E=      0 Chk=     32 Scr=     32
