 Entering Gaussian System, Link 0=/shared/apps/gaussian/G09_LINUX_LINDA/g09/g09
 Input=/gss_gpfs_scratch/harms.n/QMscratch/[O]CCC=O+[O][O]_[O]C[CH]C=O+[O]OEst.gjf
 Output=/gss_gpfs_scratch/harms.n/QMscratch/[O]CCC=O+[O][O]_[O]C[CH]C=O+[O]OEst.log
 Initial command:
 /shared/apps/gaussian/G09_LINUX_LINDA/g09/l1.exe /gss_gpfs_scratch/harms.n/comparerTST/Gau-48657.inp -scrdir=/gss_gpfs_scratch/harms.n/comparerTST/
 Entering Link 1 = /shared/apps/gaussian/G09_LINUX_LINDA/g09/l1.exe PID=     48658.
  
 Copyright (c) 1988,1990,1992,1993,1995,1998,2003,2009,2010,
            Gaussian, Inc.  All Rights Reserved.
  
 This is part of the Gaussian(R) 09 program.  It is based on
 the Gaussian(R) 03 system (copyright 2003, Gaussian, Inc.),
 the Gaussian(R) 98 system (copyright 1998, Gaussian, Inc.),
 the Gaussian(R) 94 system (copyright 1995, Gaussian, Inc.),
 the Gaussian 92(TM) system (copyright 1992, Gaussian, Inc.),
 the Gaussian 90(TM) system (copyright 1990, Gaussian, Inc.),
 the Gaussian 88(TM) system (copyright 1988, Gaussian, Inc.),
 the Gaussian 86(TM) system (copyright 1986, Carnegie Mellon
 University), and the Gaussian 82(TM) system (copyright 1983,
 Carnegie Mellon University). Gaussian is a federally registered
 trademark of Gaussian, Inc.
  
 This software contains proprietary and confidential information,
 including trade secrets, belonging to Gaussian, Inc.
  
 This software is provided under written license and may be
 used, copied, transmitted, or stored only in accord with that
 written license.
  
 The following legend is applicable only to US Government
 contracts under FAR:
  
                    RESTRICTED RIGHTS LEGEND
  
 Use, reproduction and disclosure by the US Government is
 subject to restrictions as set forth in subparagraphs (a)
 and (c) of the Commercial Computer Software - Restricted
 Rights clause in FAR 52.227-19.
  
 Gaussian, Inc.
 340 Quinnipiac St., Bldg. 40, Wallingford CT 06492
  
  
 ---------------------------------------------------------------
 Warning -- This program may not be used in any manner that
 competes with the business of Gaussian, Inc. or will provide
 assistance to any competitor of Gaussian, Inc.  The licensee
 of this program is prohibited from giving any competitor of
 Gaussian, Inc. access to this program.  By using this program,
 the user acknowledges that Gaussian, Inc. is engaged in the
 business of creating and licensing software in the field of
 computational chemistry and represents and warrants to the
 licensee that it is not a competitor of Gaussian, Inc. and that
 it will not use this program in any manner prohibited above.
 ---------------------------------------------------------------
  

 Cite this work as:
 Gaussian 09, Revision B.01,
 M. J. Frisch, G. W. Trucks, H. B. Schlegel, G. E. Scuseria, 
 M. A. Robb, J. R. Cheeseman, G. Scalmani, V. Barone, B. Mennucci, 
 G. A. Petersson, H. Nakatsuji, M. Caricato, X. Li, H. P. Hratchian, 
 A. F. Izmaylov, J. Bloino, G. Zheng, J. L. Sonnenberg, M. Hada, 
 M. Ehara, K. Toyota, R. Fukuda, J. Hasegawa, M. Ishida, T. Nakajima, 
 Y. Honda, O. Kitao, H. Nakai, T. Vreven, J. A. Montgomery, Jr., 
 J. E. Peralta, F. Ogliaro, M. Bearpark, J. J. Heyd, E. Brothers, 
 K. N. Kudin, V. N. Staroverov, T. Keith, R. Kobayashi, J. Normand, 
 K. Raghavachari, A. Rendell, J. C. Burant, S. S. Iyengar, J. Tomasi, 
 M. Cossi, N. Rega, J. M. Millam, M. Klene, J. E. Knox, J. B. Cross, 
 V. Bakken, C. Adamo, J. Jaramillo, R. Gomperts, R. E. Stratmann, 
 O. Yazyev, A. J. Austin, R. Cammi, C. Pomelli, J. W. Ochterski, 
 R. L. Martin, K. Morokuma, V. G. Zakrzewski, G. A. Voth, 
 P. Salvador, J. J. Dannenberg, S. Dapprich, A. D. Daniels, 
 O. Farkas, J. B. Foresman, J. V. Ortiz, J. Cioslowski, 
 and D. J. Fox, Gaussian, Inc., Wallingford CT, 2010.
 
 ******************************************
 Gaussian 09:  EM64L-G09RevB.01 12-Aug-2010
                18-Aug-2017 
 ******************************************
 %nprocshared=20
 Will use up to   20 processors via shared memory.
 %mem=5GB
 ----------------------------------------------------------
 # m062x/6-311+g(2df,2p) Opt=(ModRedun,Loose) Int(Grid=SG1)
 ----------------------------------------------------------
 1/7=-1,14=-1,18=120,19=15,26=2,38=1/1,3;
 2/9=110,12=2,17=6,18=5,40=1/2;
 3/5=4,6=6,7=214,11=2,16=1,25=1,30=1,71=1,74=-55,75=1/1,2,3;
 4//1;
 5/5=2,38=5/2;
 6/7=2,8=2,9=2,10=2,28=1/1;
 7//1,2,3,16;
 1/7=-1,14=-1,18=20,19=15/3(2);
 2/9=110/2;
 99//99;
 2/9=110/2;
 3/5=4,6=6,7=214,11=2,16=1,25=1,30=1,71=1,74=-55,75=1/1,2,3;
 4/5=5,16=3/1;
 5/5=2,38=5/2;
 7//1,2,3,16;
 1/7=-1,14=-1,18=20,19=15/3(-5);
 2/9=110/2;
 6/7=2,8=2,9=2,10=2,19=2,28=1/1;
 99/9=1/99;
 --------------------------------
 [O]CCC=O+[O][O]_[O]C[CH]C=O+[O]O
 --------------------------------
 Symbolic Z-matrix:
 Charge =  0 Multiplicity = 4
 C                    -0.1875    0.1007    0.4493 
 C                    -1.277    -0.6324   -0.2788 
 C                    -0.1766    1.5274    0.1334 
 H                     0.8908   -0.3663   -0.0719 
 H                    -0.0744   -0.1633    1.501 
 O                    -1.1368   -2.0083   -0.2499 
 H                    -2.1957   -0.3866    0.2651 
 H                    -1.3094   -0.2361   -1.3121 
 O                    -0.0145    2.3813    1.0031 
 H                     0.1484    1.8279   -0.8665 
 O                     2.0327   -0.8355   -0.3408 
 O                     3.3001   -1.2088   -0.2319 
 
 The following ModRedundant input section has been read:
 B       1       4 F                                                           
 B       1      11 F                                                           
 B       4      11 F                                                           

 GradGradGradGradGradGradGradGradGradGradGradGradGradGradGradGradGradGrad
 Berny optimization.
 Initialization pass.
                           ----------------------------
                           !    Initial Parameters    !
                           ! (Angstroms and Degrees)  !
 --------------------------                            --------------------------
 ! Name  Definition              Value          Derivative Info.                !
 --------------------------------------------------------------------------------
 ! R1    R(1,2)                  1.5015         estimate D2E/DX2                !
 ! R2    R(1,3)                  1.4613         estimate D2E/DX2                !
 ! R3    R(1,4)                  1.2855         Frozen                          !
 ! R4    R(1,5)                  1.0902         estimate D2E/DX2                !
 ! R5    R(1,11)                 2.5357         Frozen                          !
 ! R6    R(2,6)                  1.3833         estimate D2E/DX2                !
 ! R7    R(2,7)                  1.0956         estimate D2E/DX2                !
 ! R8    R(2,8)                  1.1072         estimate D2E/DX2                !
 ! R9    R(3,9)                  1.2296         estimate D2E/DX2                !
 ! R10   R(3,10)                 1.0935         estimate D2E/DX2                !
 ! R11   R(4,11)                 1.2635         Frozen                          !
 ! R12   R(11,12)                1.3257         estimate D2E/DX2                !
 ! A1    A(2,1,3)              112.1643         estimate D2E/DX2                !
 ! A2    A(2,1,4)              103.5724         estimate D2E/DX2                !
 ! A3    A(2,1,5)              115.1395         estimate D2E/DX2                !
 ! A4    A(3,1,4)              105.1164         estimate D2E/DX2                !
 ! A5    A(3,1,5)              116.3715         estimate D2E/DX2                !
 ! A6    A(4,1,5)              102.4821         estimate D2E/DX2                !
 ! A7    A(1,2,6)              113.6999         estimate D2E/DX2                !
 ! A8    A(1,2,7)              104.9623         estimate D2E/DX2                !
 ! A9    A(1,2,8)              107.3994         estimate D2E/DX2                !
 ! A10   A(6,2,7)              107.3238         estimate D2E/DX2                !
 ! A11   A(6,2,8)              112.2398         estimate D2E/DX2                !
 ! A12   A(7,2,8)              111.0075         estimate D2E/DX2                !
 ! A13   A(1,3,9)              121.7432         estimate D2E/DX2                !
 ! A14   A(1,3,10)             117.9171         estimate D2E/DX2                !
 ! A15   A(9,3,10)             114.6301         estimate D2E/DX2                !
 ! A16   A(1,4,11)             168.3236         estimate D2E/DX2                !
 ! A17   A(4,11,12)            162.0086         estimate D2E/DX2                !
 ! D1    D(3,1,2,6)            166.1101         estimate D2E/DX2                !
 ! D2    D(3,1,2,7)            -76.8943         estimate D2E/DX2                !
 ! D3    D(3,1,2,8)             41.3095         estimate D2E/DX2                !
 ! D4    D(4,1,2,6)             53.2786         estimate D2E/DX2                !
 ! D5    D(4,1,2,7)            170.2742         estimate D2E/DX2                !
 ! D6    D(4,1,2,8)            -71.522          estimate D2E/DX2                !
 ! D7    D(5,1,2,6)            -57.754          estimate D2E/DX2                !
 ! D8    D(5,1,2,7)             59.2416         estimate D2E/DX2                !
 ! D9    D(5,1,2,8)            177.4454         estimate D2E/DX2                !
 ! D10   D(2,1,3,9)            137.347          estimate D2E/DX2                !
 ! D11   D(2,1,3,10)           -70.7194         estimate D2E/DX2                !
 ! D12   D(4,1,3,9)           -110.7818         estimate D2E/DX2                !
 ! D13   D(4,1,3,10)            41.1519         estimate D2E/DX2                !
 ! D14   D(5,1,3,9)              1.7882         estimate D2E/DX2                !
 ! D15   D(5,1,3,10)           153.7219         estimate D2E/DX2                !
 ! D16   D(2,1,4,11)          -135.9701         estimate D2E/DX2                !
 ! D17   D(3,1,4,11)           106.1756         estimate D2E/DX2                !
 ! D18   D(5,1,4,11)           -15.9006         estimate D2E/DX2                !
 ! D19   D(1,4,11,12)          -14.5765         estimate D2E/DX2                !
 --------------------------------------------------------------------------------
 Trust Radius=3.00D-01 FncErr=1.00D-05 GrdErr=1.00D-04
 Number of steps in this run=     58 maximum allowed number of steps=    100.
 GradGradGradGradGradGradGradGradGradGradGradGradGradGradGradGradGradGrad

                          Input orientation:                          
 ---------------------------------------------------------------------
 Center     Atomic      Atomic             Coordinates (Angstroms)
 Number     Number       Type             X           Y           Z
 ---------------------------------------------------------------------
      1          6           0       -0.187500    0.100700    0.449300
      2          6           0       -1.277000   -0.632400   -0.278800
      3          6           0       -0.176600    1.527400    0.133400
      4          1           0        0.890800   -0.366300   -0.071900
      5          1           0       -0.074400   -0.163300    1.501000
      6          8           0       -1.136800   -2.008300   -0.249900
      7          1           0       -2.195700   -0.386600    0.265100
      8          1           0       -1.309400   -0.236100   -1.312100
      9          8           0       -0.014500    2.381300    1.003100
     10          1           0        0.148400    1.827900   -0.866500
     11          8           0        2.032700   -0.835500   -0.340800
     12          8           0        3.300100   -1.208800   -0.231900
 ---------------------------------------------------------------------
                    Distance matrix (angstroms):
                    1          2          3          4          5
     1  C    0.000000
     2  C    1.501524   0.000000
     3  C    1.461295   2.458765   0.000000
     4  H    1.285484   2.193849   2.183481   0.000000
     5  H    1.090211   2.198634   2.176980   1.856565   0.000000
     6  O    2.416181   1.383326   3.683759   2.615150   2.756514
     7  H    2.074671   1.095561   2.785230   3.104910   2.465203
     8  H    2.115331   1.107164   2.546103   2.529017   3.073118
     9  O    2.353245   3.509923   1.229553   3.086179   2.593546
    10  H    2.197130   2.903486   1.093492   2.448890   3.101544
    11  O    2.535748   3.316505   3.269429   1.263484   2.878185
    12  O    3.787107   4.613489   4.439333   2.557368   3.934878
                    6          7          8          9         10
     6  O    0.000000
     7  H    2.004097   0.000000
     8  H    2.073343   1.815417   0.000000
     9  O    4.700867   3.600493   3.726620   0.000000
    10  H    4.092477   3.417504   2.565899   1.956577   0.000000
    11  O    3.380747   4.295113   3.531620   4.042882   3.304640
    12  O    4.508393   5.579143   4.833267   5.039902   4.422384
                   11         12
    11  O    0.000000
    12  O    1.325713   0.000000
 Stoichiometry    C3H5O4(4)
 Framework group  C1[X(C3H5O4)]
 Deg. of freedom    30
 Full point group                 C1      NOp   1
 Largest Abelian subgroup         C1      NOp   1
 Largest concise Abelian subgroup C1      NOp   1
                         Standard orientation:                         
 ---------------------------------------------------------------------
 Center     Atomic      Atomic             Coordinates (Angstroms)
 Number     Number       Type             X           Y           Z
 ---------------------------------------------------------------------
      1          6           0       -0.656530    0.058244   -0.315738
      2          6           0       -1.049291    1.405685    0.217852
      3          6           0       -1.361063   -1.029083    0.360086
      4          1           0        0.571406   -0.062773    0.044811
      5          1           0       -0.590869   -0.008596   -1.401915
      6          8           0       -0.200485    2.426557   -0.170657
      7          1           0       -2.030084    1.610476   -0.225273
      8          1           0       -1.121929    1.317352    1.319094
      9          8           0       -1.824474   -1.983967   -0.260596
     10          1           0       -1.091543   -1.247179    1.397158
     11          8           0        1.812561   -0.269325    0.159973
     12          8           0        3.045439   -0.700560   -0.067105
 ---------------------------------------------------------------------
 Rotational constants (GHZ):      2.3026094      1.6107403      0.9888798
 Standard basis: 6-311+G(2df,2p) (5D, 7F)
 There are   283 symmetry adapted basis functions of A   symmetry.
 Integral buffers will be    131072 words long.
 Raffenetti 2 integral format.
 Two-electron integral symmetry is turned on.
   283 basis functions,   419 primitive gaussians,   318 cartesian basis functions
    29 alpha electrons       26 beta electrons
       nuclear repulsion energy       276.0240567715 Hartrees.
 NAtoms=   12 NActive=   12 NUniq=   12 SFac= 1.00D+00 NAtFMM=   50 NAOKFM=F Big=F
 One-electron integrals computed using PRISM.
 NBasis=   283 RedAO= T  NBF=   283
 NBsUse=   283 1.00D-06 NBFU=   283
 Harris functional with IExCor= 1009 diagonalized for initial guess.
 ExpMin= 4.38D-02 ExpMax= 8.59D+03 ExpMxC= 1.30D+03 IAcc=2 IRadAn=         1 AccDes= 0.00D+00
 HarFok:  IExCor= 1009 AccDes= 0.00D+00 IRadAn=         1 IDoV= 1
 ScaDFX=  1.000000  1.000000  1.000000  1.000000
 FoFCou: FMM=F IPFlag=           0 FMFlag=      100000 FMFlg1=           0
         NFxFlg=           0 DoJE=T BraDBF=F KetDBF=T FulRan=T
         Omega=  0.000000  0.000000  1.000000  0.000000  0.000000 ICntrl=     500 IOpCl=  0
         NMat0=    1 NMatS0=    1 NMatT0=    0 NMatD0=    1 NMtDS0=    0 NMtDT0=    0
         I1Cent=           4 NGrid=           0.
 Petite list used in FoFCou.
 Initial guess orbital symmetries:
 Alpha Orbitals:
       Occupied  (A) (A) (A) (A) (A) (A) (A) (A) (A) (A) (A) (A)
                 (A) (A) (A) (A) (A) (A) (A) (A) (A) (A) (A) (A)
                 (A) (A) (A) (A) (A)
       Virtual   (A) (A) (A) (A) (A) (A) (A) (A) (A) (A) (A) (A)
                 (A) (A) (A) (A) (A) (A) (A) (A) (A) (A) (A) (A)
                 (A) (A) (A) (A) (A) (A) (A) (A) (A) (A) (A) (A)
                 (A) (A) (A) (A) (A) (A) (A) (A) (A) (A) (A) (A)
                 (A) (A) (A) (A) (A) (A) (A) (A) (A) (A) (A) (A)
                 (A) (A) (A) (A) (A) (A) (A) (A) (A) (A) (A) (A)
                 (A) (A) (A) (A) (A) (A) (A) (A) (A) (A) (A) (A)
                 (A) (A) (A) (A) (A) (A) (A) (A) (A) (A) (A) (A)
                 (A) (A) (A) (A) (A) (A) (A) (A) (A) (A) (A) (A)
                 (A) (A) (A) (A) (A) (A) (A) (A) (A) (A) (A) (A)
                 (A) (A) (A) (A) (A) (A) (A) (A) (A) (A) (A) (A)
                 (A) (A) (A) (A) (A) (A) (A) (A) (A) (A) (A) (A)
                 (A) (A) (A) (A) (A) (A) (A) (A) (A) (A) (A) (A)
                 (A) (A) (A) (A) (A) (A) (A) (A) (A) (A) (A) (A)
                 (A) (A) (A) (A) (A) (A) (A) (A) (A) (A) (A) (A)
                 (A) (A) (A) (A) (A) (A) (A) (A) (A) (A) (A) (A)
                 (A) (A) (A) (A) (A) (A) (A) (A) (A) (A) (A) (A)
                 (A) (A) (A) (A) (A) (A) (A) (A) (A) (A) (A) (A)
                 (A) (A) (A) (A) (A) (A) (A) (A) (A) (A) (A) (A)
                 (A) (A) (A) (A) (A) (A) (A) (A) (A) (A) (A) (A)
                 (A) (A) (A) (A) (A) (A) (A) (A) (A) (A) (A) (A)
                 (A) (A)
 Beta  Orbitals:
       Occupied  (A) (A) (A) (A) (A) (A) (A) (A) (A) (A) (A) (A)
                 (A) (A) (A) (A) (A) (A) (A) (A) (A) (A) (A) (A)
                 (A) (A)
       Virtual   (A) (A) (A) (A) (A) (A) (A) (A) (A) (A) (A) (A)
                 (A) (A) (A) (A) (A) (A) (A) (A) (A) (A) (A) (A)
                 (A) (A) (A) (A) (A) (A) (A) (A) (A) (A) (A) (A)
                 (A) (A) (A) (A) (A) (A) (A) (A) (A) (A) (A) (A)
                 (A) (A) (A) (A) (A) (A) (A) (A) (A) (A) (A) (A)
                 (A) (A) (A) (A) (A) (A) (A) (A) (A) (A) (A) (A)
                 (A) (A) (A) (A) (A) (A) (A) (A) (A) (A) (A) (A)
                 (A) (A) (A) (A) (A) (A) (A) (A) (A) (A) (A) (A)
                 (A) (A) (A) (A) (A) (A) (A) (A) (A) (A) (A) (A)
                 (A) (A) (A) (A) (A) (A) (A) (A) (A) (A) (A) (A)
                 (A) (A) (A) (A) (A) (A) (A) (A) (A) (A) (A) (A)
                 (A) (A) (A) (A) (A) (A) (A) (A) (A) (A) (A) (A)
                 (A) (A) (A) (A) (A) (A) (A) (A) (A) (A) (A) (A)
                 (A) (A) (A) (A) (A) (A) (A) (A) (A) (A) (A) (A)
                 (A) (A) (A) (A) (A) (A) (A) (A) (A) (A) (A) (A)
                 (A) (A) (A) (A) (A) (A) (A) (A) (A) (A) (A) (A)
                 (A) (A) (A) (A) (A) (A) (A) (A) (A) (A) (A) (A)
                 (A) (A) (A) (A) (A) (A) (A) (A) (A) (A) (A) (A)
                 (A) (A) (A) (A) (A) (A) (A) (A) (A) (A) (A) (A)
                 (A) (A) (A) (A) (A) (A) (A) (A) (A) (A) (A) (A)
                 (A) (A) (A) (A) (A) (A) (A) (A) (A) (A) (A) (A)
                 (A) (A) (A) (A) (A)
 The electronic state of the initial guess is 4-A.
 Initial guess <Sx>= 0.0000 <Sy>= 0.0000 <Sz>= 1.5000 <S**2>= 3.7500 S= 1.5000
 Requested convergence on RMS density matrix=1.00D-08 within 128 cycles.
 Requested convergence on MAX density matrix=1.00D-06.
 Requested convergence on             energy=1.00D-06.
 No special actions if energy rises.
 Restarting incremental Fock formation.
 Restarting incremental Fock formation.
 Restarting incremental Fock formation.
 Restarting incremental Fock formation.
 Restarting incremental Fock formation.
 Restarting incremental Fock formation.
 >>>>>>>>>> Convergence criterion not met.
 SCF Done:  E(UM062X) =  -417.871769735     A.U. after  129 cycles
             Convg  =    0.2362D-04             -V/T =  2.0034
 <Sx>= 0.0000 <Sy>= 0.0000 <Sz>= 1.5000 <S**2>= 3.7704 S= 1.5051
 <L.S>= 0.000000000000E+00
 Annihilation of the first spin contaminant:
 S**2 before annihilation     3.7704,   after     3.7502
 Convergence failure -- run terminated.
 Error termination via Lnk1e in /shared/apps/gaussian/G09_LINUX_LINDA/g09/l502.exe at Fri Aug 18 21:49:42 2017.
 Job cpu time:  0 days  3 hours 22 minutes 57.1 seconds.
 File lengths (MBytes):  RWF=   1216 Int=      0 D2E=      0 Chk=     32 Scr=     32
