 Entering Gaussian System, Link 0=/shared/apps/gaussian/G09_LINUX_LINDA/g09/g09
 Input=/gss_gpfs_scratch/harms.n/QMscratch/[O]C1C=CC=C1+[O][O]_[O]O+[O][C]1C=CC=C1.gjf
 Output=/gss_gpfs_scratch/harms.n/QMscratch/[O]C1C=CC=C1+[O][O]_[O]O+[O][C]1C=CC=C1.log
 Initial command:
 /shared/apps/gaussian/G09_LINUX_LINDA/g09/l1.exe /gss_gpfs_scratch/harms.n/comparerTST/Gau-6343.inp -scrdir=/gss_gpfs_scratch/harms.n/comparerTST/
 Entering Link 1 = /shared/apps/gaussian/G09_LINUX_LINDA/g09/l1.exe PID=      6344.
  
 Copyright (c) 1988,1990,1992,1993,1995,1998,2003,2009,2010,
            Gaussian, Inc.  All Rights Reserved.
  
 This is part of the Gaussian(R) 09 program.  It is based on
 the Gaussian(R) 03 system (copyright 2003, Gaussian, Inc.),
 the Gaussian(R) 98 system (copyright 1998, Gaussian, Inc.),
 the Gaussian(R) 94 system (copyright 1995, Gaussian, Inc.),
 the Gaussian 92(TM) system (copyright 1992, Gaussian, Inc.),
 the Gaussian 90(TM) system (copyright 1990, Gaussian, Inc.),
 the Gaussian 88(TM) system (copyright 1988, Gaussian, Inc.),
 the Gaussian 86(TM) system (copyright 1986, Carnegie Mellon
 University), and the Gaussian 82(TM) system (copyright 1983,
 Carnegie Mellon University). Gaussian is a federally registered
 trademark of Gaussian, Inc.
  
 This software contains proprietary and confidential information,
 including trade secrets, belonging to Gaussian, Inc.
  
 This software is provided under written license and may be
 used, copied, transmitted, or stored only in accord with that
 written license.
  
 The following legend is applicable only to US Government
 contracts under FAR:
  
                    RESTRICTED RIGHTS LEGEND
  
 Use, reproduction and disclosure by the US Government is
 subject to restrictions as set forth in subparagraphs (a)
 and (c) of the Commercial Computer Software - Restricted
 Rights clause in FAR 52.227-19.
  
 Gaussian, Inc.
 340 Quinnipiac St., Bldg. 40, Wallingford CT 06492
  
  
 ---------------------------------------------------------------
 Warning -- This program may not be used in any manner that
 competes with the business of Gaussian, Inc. or will provide
 assistance to any competitor of Gaussian, Inc.  The licensee
 of this program is prohibited from giving any competitor of
 Gaussian, Inc. access to this program.  By using this program,
 the user acknowledges that Gaussian, Inc. is engaged in the
 business of creating and licensing software in the field of
 computational chemistry and represents and warrants to the
 licensee that it is not a competitor of Gaussian, Inc. and that
 it will not use this program in any manner prohibited above.
 ---------------------------------------------------------------
  

 Cite this work as:
 Gaussian 09, Revision B.01,
 M. J. Frisch, G. W. Trucks, H. B. Schlegel, G. E. Scuseria, 
 M. A. Robb, J. R. Cheeseman, G. Scalmani, V. Barone, B. Mennucci, 
 G. A. Petersson, H. Nakatsuji, M. Caricato, X. Li, H. P. Hratchian, 
 A. F. Izmaylov, J. Bloino, G. Zheng, J. L. Sonnenberg, M. Hada, 
 M. Ehara, K. Toyota, R. Fukuda, J. Hasegawa, M. Ishida, T. Nakajima, 
 Y. Honda, O. Kitao, H. Nakai, T. Vreven, J. A. Montgomery, Jr., 
 J. E. Peralta, F. Ogliaro, M. Bearpark, J. J. Heyd, E. Brothers, 
 K. N. Kudin, V. N. Staroverov, T. Keith, R. Kobayashi, J. Normand, 
 K. Raghavachari, A. Rendell, J. C. Burant, S. S. Iyengar, J. Tomasi, 
 M. Cossi, N. Rega, J. M. Millam, M. Klene, J. E. Knox, J. B. Cross, 
 V. Bakken, C. Adamo, J. Jaramillo, R. Gomperts, R. E. Stratmann, 
 O. Yazyev, A. J. Austin, R. Cammi, C. Pomelli, J. W. Ochterski, 
 R. L. Martin, K. Morokuma, V. G. Zakrzewski, G. A. Voth, 
 P. Salvador, J. J. Dannenberg, S. Dapprich, A. D. Daniels, 
 O. Farkas, J. B. Foresman, J. V. Ortiz, J. Cioslowski, 
 and D. J. Fox, Gaussian, Inc., Wallingford CT, 2010.
 
 ******************************************
 Gaussian 09:  EM64L-G09RevB.01 12-Aug-2010
                20-Aug-2017 
 ******************************************
 %nprocshared=20
 Will use up to   20 processors via shared memory.
 %mem=5GB
 %chk=/gss_gpfs_scratch/harms.n/QMscratch/[O]C1C=CC=C1+[O][O]_[O]O+[O][C]1C=CC=C1
 --------------------------------------------------------
 # m062x/6-311+g(2df,2p) opt=(ts,calcfc,noeigentest) freq
 --------------------------------------------------------
 1/5=1,10=4,11=1,14=-1,18=20,26=3,38=1/1,3;
 2/9=110,12=2,17=6,18=5,40=1/2;
 3/5=4,6=6,7=214,11=2,16=1,25=1,30=1,71=2,74=-55/1,2,3;
 4//1;
 5/5=2,38=5/2;
 8/6=4,10=90,11=11/1;
 11/6=1,8=1,9=11,15=111,16=1/1,2,10;
 10/6=1,7=6,13=1/2;
 6/7=2,8=2,9=2,10=2,28=1/1;
 7/10=1,18=20,25=1/1,2,3,16;
 1/5=1,10=4,11=1,14=-1,18=20/3(2);
 2/9=110/2;
 99//99;
 2/9=110/2;
 3/5=4,6=6,7=214,11=2,16=1,25=1,30=1,71=1,74=-55/1,2,3;
 4/5=5,16=3/1;
 5/5=2,38=5/2;
 7//1,2,3,16;
 1/5=1,11=1,14=-1,18=20/3(-5);
 2/9=110/2;
 6/7=2,8=2,9=2,10=2,19=2,28=1/1;
 99/9=1/99;
 ---------------------------------------
 [O]C1C=CC=C1+[O][O]_[O]O+[O][C]1C=CC=C1
 ---------------------------------------
 Symbolic Z-matrix:
 Charge =  0 Multiplicity = 4
 C                     1.00255  -0.62919  -0.07111 
 C                     0.6483    0.09131   1.21409 
 C                     0.82497   0.4346   -1.13512 
 C                     0.2475    1.3255    0.90705 
 C                     0.35731   1.53874  -0.55166 
 O                     2.12548  -1.39014  -0.09726 
 H                     0.19329  -1.37851  -0.24076 
 H                     0.70113  -0.37615   2.18448 
 H                     1.03      0.26309  -2.17979 
 H                    -0.10619   2.07211   1.60234 
 H                     0.09488   2.46005  -1.04978 
 O                    -2.35676  -0.72631   0.45432 
 O                    -2.31832  -0.33434  -0.66907 
 

 GradGradGradGradGradGradGradGradGradGradGradGradGradGradGradGradGradGrad
 Berny optimization.
 Initialization pass.
                           ----------------------------
                           !    Initial Parameters    !
                           ! (Angstroms and Degrees)  !
 --------------------------                            --------------------------
 ! Name  Definition              Value          Derivative Info.                !
 --------------------------------------------------------------------------------
 ! R1    R(1,2)                  1.5154         calculate D2E/DX2 analytically  !
 ! R2    R(1,3)                  1.515          calculate D2E/DX2 analytically  !
 ! R3    R(1,6)                  1.3567         calculate D2E/DX2 analytically  !
 ! R4    R(1,7)                  1.1159         calculate D2E/DX2 analytically  !
 ! R5    R(1,12)                 3.4015         calculate D2E/DX2 analytically  !
 ! R6    R(1,13)                 3.3871         calculate D2E/DX2 analytically  !
 ! R7    R(2,4)                  1.3335         calculate D2E/DX2 analytically  !
 ! R8    R(2,8)                  1.0784         calculate D2E/DX2 analytically  !
 ! R9    R(2,12)                 3.2056         calculate D2E/DX2 analytically  !
 ! R10   R(3,5)                  1.3335         calculate D2E/DX2 analytically  !
 ! R11   R(3,9)                  1.0783         calculate D2E/DX2 analytically  !
 ! R12   R(3,13)                 3.2694         calculate D2E/DX2 analytically  !
 ! R13   R(4,5)                  1.4783         calculate D2E/DX2 analytically  !
 ! R14   R(4,10)                 1.0798         calculate D2E/DX2 analytically  !
 ! R15   R(4,12)                 3.3462         calculate D2E/DX2 analytically  !
 ! R16   R(4,13)                 3.4384         calculate D2E/DX2 analytically  !
 ! R17   R(5,11)                 1.0797         calculate D2E/DX2 analytically  !
 ! R18   R(5,13)                 3.2682         calculate D2E/DX2 analytically  !
 ! R19   R(7,12)                 2.7224         calculate D2E/DX2 analytically  !
 ! R20   R(7,13)                 2.7535         calculate D2E/DX2 analytically  !
 ! R21   R(8,12)                 3.5308         calculate D2E/DX2 analytically  !
 ! R22   R(12,13)                1.1904         calculate D2E/DX2 analytically  !
 ! A1    A(2,1,3)              103.5549         calculate D2E/DX2 analytically  !
 ! A2    A(2,1,6)              118.4575         calculate D2E/DX2 analytically  !
 ! A3    A(2,1,7)              106.1817         calculate D2E/DX2 analytically  !
 ! A4    A(2,1,13)              83.0581         calculate D2E/DX2 analytically  !
 ! A5    A(3,1,6)              118.5093         calculate D2E/DX2 analytically  !
 ! A6    A(3,1,7)              106.2438         calculate D2E/DX2 analytically  !
 ! A7    A(3,1,12)              90.732          calculate D2E/DX2 analytically  !
 ! A8    A(6,1,7)              102.7499         calculate D2E/DX2 analytically  !
 ! A9    A(6,1,12)             143.549          calculate D2E/DX2 analytically  !
 ! A10   A(6,1,13)             148.9711         calculate D2E/DX2 analytically  !
 ! A11   A(1,2,4)              108.3636         calculate D2E/DX2 analytically  !
 ! A12   A(1,2,8)              123.0663         calculate D2E/DX2 analytically  !
 ! A13   A(4,2,8)              128.5437         calculate D2E/DX2 analytically  !
 ! A14   A(1,3,5)              108.3733         calculate D2E/DX2 analytically  !
 ! A15   A(1,3,9)              123.1214         calculate D2E/DX2 analytically  !
 ! A16   A(5,3,9)              128.4813         calculate D2E/DX2 analytically  !
 ! A17   A(9,3,13)             106.4693         calculate D2E/DX2 analytically  !
 ! A18   A(2,4,5)              109.7784         calculate D2E/DX2 analytically  !
 ! A19   A(2,4,10)             126.1672         calculate D2E/DX2 analytically  !
 ! A20   A(2,4,13)              83.2836         calculate D2E/DX2 analytically  !
 ! A21   A(5,4,10)             124.0543         calculate D2E/DX2 analytically  !
 ! A22   A(5,4,12)              90.7308         calculate D2E/DX2 analytically  !
 ! A23   A(10,4,12)            104.8429         calculate D2E/DX2 analytically  !
 ! A24   A(10,4,13)            112.6138         calculate D2E/DX2 analytically  !
 ! A25   A(3,5,4)              109.7768         calculate D2E/DX2 analytically  !
 ! A26   A(3,5,11)             126.1496         calculate D2E/DX2 analytically  !
 ! A27   A(4,5,11)             124.0734         calculate D2E/DX2 analytically  !
 ! A28   A(11,5,13)            105.8717         calculate D2E/DX2 analytically  !
 ! A29   A(1,12,4)              40.0736         calculate D2E/DX2 analytically  !
 ! A30   A(1,12,8)              38.5154         calculate D2E/DX2 analytically  !
 ! A31   A(2,12,7)              40.8456         calculate D2E/DX2 analytically  !
 ! A32   A(2,12,13)             96.2813         calculate D2E/DX2 analytically  !
 ! A33   A(4,12,7)              56.7997         calculate D2E/DX2 analytically  !
 ! A34   A(4,12,8)              36.7614         calculate D2E/DX2 analytically  !
 ! A35   A(7,12,8)              48.5196         calculate D2E/DX2 analytically  !
 ! A36   A(8,12,13)            113.6908         calculate D2E/DX2 analytically  !
 ! A37   A(1,13,4)              39.599          calculate D2E/DX2 analytically  !
 ! A38   A(1,13,5)              40.6135         calculate D2E/DX2 analytically  !
 ! A39   A(3,13,4)              40.036          calculate D2E/DX2 analytically  !
 ! A40   A(3,13,7)              40.0392         calculate D2E/DX2 analytically  !
 ! A41   A(3,13,12)            104.0643         calculate D2E/DX2 analytically  !
 ! A42   A(4,13,7)              55.3262         calculate D2E/DX2 analytically  !
 ! A43   A(5,13,7)              57.6554         calculate D2E/DX2 analytically  !
 ! A44   A(5,13,12)            100.4422         calculate D2E/DX2 analytically  !
 ! D1    D(3,1,2,4)              3.7511         calculate D2E/DX2 analytically  !
 ! D2    D(3,1,2,8)           -177.9721         calculate D2E/DX2 analytically  !
 ! D3    D(6,1,2,4)            137.312          calculate D2E/DX2 analytically  !
 ! D4    D(6,1,2,8)            -44.4112         calculate D2E/DX2 analytically  !
 ! D5    D(7,1,2,4)           -107.938          calculate D2E/DX2 analytically  !
 ! D6    D(7,1,2,8)             70.3388         calculate D2E/DX2 analytically  !
 ! D7    D(13,1,2,4)           -66.3563         calculate D2E/DX2 analytically  !
 ! D8    D(13,1,2,8)           111.9204         calculate D2E/DX2 analytically  !
 ! D9    D(2,1,3,5)             -3.7456         calculate D2E/DX2 analytically  !
 ! D10   D(2,1,3,9)            177.9047         calculate D2E/DX2 analytically  !
 ! D11   D(6,1,3,5)           -137.277          calculate D2E/DX2 analytically  !
 ! D12   D(6,1,3,9)             44.3733         calculate D2E/DX2 analytically  !
 ! D13   D(7,1,3,5)            107.898          calculate D2E/DX2 analytically  !
 ! D14   D(7,1,3,9)            -70.4517         calculate D2E/DX2 analytically  !
 ! D15   D(12,1,3,5)            65.447          calculate D2E/DX2 analytically  !
 ! D16   D(12,1,3,9)          -112.9027         calculate D2E/DX2 analytically  !
 ! D17   D(3,1,12,4)           -68.633          calculate D2E/DX2 analytically  !
 ! D18   D(3,1,12,8)          -128.3107         calculate D2E/DX2 analytically  !
 ! D19   D(6,1,12,4)           146.2103         calculate D2E/DX2 analytically  !
 ! D20   D(6,1,12,8)            86.5327         calculate D2E/DX2 analytically  !
 ! D21   D(2,1,13,4)            31.9359         calculate D2E/DX2 analytically  !
 ! D22   D(2,1,13,5)            71.6594         calculate D2E/DX2 analytically  !
 ! D23   D(6,1,13,4)           168.7248         calculate D2E/DX2 analytically  !
 ! D24   D(6,1,13,5)          -151.5517         calculate D2E/DX2 analytically  !
 ! D25   D(1,2,4,5)             -2.4703         calculate D2E/DX2 analytically  !
 ! D26   D(1,2,4,10)           177.5915         calculate D2E/DX2 analytically  !
 ! D27   D(1,2,4,13)            64.4185         calculate D2E/DX2 analytically  !
 ! D28   D(8,2,4,5)            179.3762         calculate D2E/DX2 analytically  !
 ! D29   D(8,2,4,10)            -0.5621         calculate D2E/DX2 analytically  !
 ! D30   D(8,2,4,13)          -113.735          calculate D2E/DX2 analytically  !
 ! D31   D(1,3,5,4)              2.4569         calculate D2E/DX2 analytically  !
 ! D32   D(1,3,5,11)          -177.6885         calculate D2E/DX2 analytically  !
 ! D33   D(9,3,5,4)           -179.3088         calculate D2E/DX2 analytically  !
 ! D34   D(9,3,5,11)             0.5459         calculate D2E/DX2 analytically  !
 ! D35   D(9,3,13,4)          -165.0631         calculate D2E/DX2 analytically  !
 ! D36   D(9,3,13,7)           102.5445         calculate D2E/DX2 analytically  !
 ! D37   D(9,3,13,12)          149.2092         calculate D2E/DX2 analytically  !
 ! D38   D(2,4,5,3)              0.0092         calculate D2E/DX2 analytically  !
 ! D39   D(2,4,5,11)          -179.8491         calculate D2E/DX2 analytically  !
 ! D40   D(10,4,5,3)           179.9491         calculate D2E/DX2 analytically  !
 ! D41   D(10,4,5,11)            0.0908         calculate D2E/DX2 analytically  !
 ! D42   D(12,4,5,3)           -71.5185         calculate D2E/DX2 analytically  !
 ! D43   D(12,4,5,11)          108.6231         calculate D2E/DX2 analytically  !
 ! D44   D(5,4,12,1)            70.0024         calculate D2E/DX2 analytically  !
 ! D45   D(5,4,12,7)            70.4501         calculate D2E/DX2 analytically  !
 ! D46   D(5,4,12,8)           133.9197         calculate D2E/DX2 analytically  !
 ! D47   D(10,4,12,1)         -164.3543         calculate D2E/DX2 analytically  !
 ! D48   D(10,4,12,7)         -163.9066         calculate D2E/DX2 analytically  !
 ! D49   D(10,4,12,8)         -100.437          calculate D2E/DX2 analytically  !
 ! D50   D(2,4,13,1)           -36.9304         calculate D2E/DX2 analytically  !
 ! D51   D(2,4,13,3)           -78.4405         calculate D2E/DX2 analytically  !
 ! D52   D(2,4,13,7)           -27.0377         calculate D2E/DX2 analytically  !
 ! D53   D(10,4,13,1)         -163.4187         calculate D2E/DX2 analytically  !
 ! D54   D(10,4,13,3)          155.0712         calculate D2E/DX2 analytically  !
 ! D55   D(10,4,13,7)         -153.526          calculate D2E/DX2 analytically  !
 ! D56   D(11,5,13,1)          163.9142         calculate D2E/DX2 analytically  !
 ! D57   D(11,5,13,7)          159.9414         calculate D2E/DX2 analytically  !
 ! D58   D(11,5,13,12)        -134.1513         calculate D2E/DX2 analytically  !
 ! D59   D(1,7,12,13)           89.4137         calculate D2E/DX2 analytically  !
 ! D60   D(2,12,13,3)            8.313          calculate D2E/DX2 analytically  !
 ! D61   D(2,12,13,5)          -15.5004         calculate D2E/DX2 analytically  !
 ! D62   D(8,12,13,3)            5.7734         calculate D2E/DX2 analytically  !
 ! D63   D(8,12,13,5)          -18.04           calculate D2E/DX2 analytically  !
 --------------------------------------------------------------------------------
 Trust Radius=3.00D-01 FncErr=1.00D-07 GrdErr=1.00D-06
 Number of steps in this run=    100 maximum allowed number of steps=    100.
 Search for a saddle point of order  1.
 GradGradGradGradGradGradGradGradGradGradGradGradGradGradGradGradGradGrad

                          Input orientation:                          
 ---------------------------------------------------------------------
 Center     Atomic      Atomic             Coordinates (Angstroms)
 Number     Number       Type             X           Y           Z
 ---------------------------------------------------------------------
      1          6           0        1.002549   -0.629194   -0.071107
      2          6           0        0.648300    0.091310    1.214091
      3          6           0        0.824969    0.434603   -1.135120
      4          6           0        0.247496    1.325501    0.907050
      5          6           0        0.357305    1.538736   -0.551661
      6          8           0        2.125475   -1.390141   -0.097255
      7          1           0        0.193288   -1.378508   -0.240761
      8          1           0        0.701127   -0.376145    2.184484
      9          1           0        1.030004    0.263091   -2.179787
     10          1           0       -0.106189    2.072107    1.602343
     11          1           0        0.094882    2.460050   -1.049782
     12          8           0       -2.356758   -0.726312    0.454324
     13          8           0       -2.318319   -0.334339   -0.669071
 ---------------------------------------------------------------------
                    Distance matrix (angstroms):
                    1          2          3          4          5
     1  C    0.000000
     2  C    1.515372   0.000000
     3  C    1.515032   2.380726   0.000000
     4  C    2.312516   1.333471   2.301659   0.000000
     5  C    2.312400   2.301652   1.333508   1.478298   0.000000
     6  O    1.356719   2.469083   2.469447   3.451108   3.451265
     7  H    1.115866   2.117545   2.118082   2.938039   2.938345
     8  H    2.289668   1.078410   3.419418   2.175596   3.357301
     9  H    2.289860   3.419593   1.078325   3.357022   2.174992
    10  H    3.365526   2.154890   3.322977   1.079790   2.266946
    11  H    3.365277   3.322999   2.154703   2.267087   1.079727
    12  O    3.401537   3.205640   3.741316   3.346197   3.675403
    13  O    3.387132   3.539535   3.269363   3.438406   3.268204
                    6          7          8          9         10
     6  O    0.000000
     7  H    1.937544   0.000000
     8  H    2.874594   2.672910   0.000000
     9  H    2.875791   2.674839   4.423081   0.000000
    10  H    4.456021   3.923450   2.642837   4.343729   0.000000
    11  H    4.455849   3.924121   4.344193   2.641589   2.687880
    12  O    4.564572   2.722359   3.530826   4.403137   3.770167
    13  O    4.603151   2.753526   4.154706   3.721620   3.980430
                   11         12         13
    11  H    0.000000
    12  O    4.292526   0.000000
    13  O    3.711750   1.190436   0.000000
 Stoichiometry    C5H5O3(4)
 Framework group  C1[X(C5H5O3)]
 Deg. of freedom    33
 Full point group                 C1      NOp   1
 Largest Abelian subgroup         C1      NOp   1
 Largest concise Abelian subgroup C1      NOp   1
                         Standard orientation:                         
 ---------------------------------------------------------------------
 Center     Atomic      Atomic             Coordinates (Angstroms)
 Number     Number       Type             X           Y           Z
 ---------------------------------------------------------------------
      1          6           0        1.002549   -0.629194   -0.071107
      2          6           0        0.648300    0.091310    1.214091
      3          6           0        0.824969    0.434603   -1.135120
      4          6           0        0.247496    1.325501    0.907050
      5          6           0        0.357305    1.538736   -0.551661
      6          8           0        2.125475   -1.390141   -0.097255
      7          1           0        0.193288   -1.378508   -0.240761
      8          1           0        0.701127   -0.376145    2.184484
      9          1           0        1.030004    0.263091   -2.179787
     10          1           0       -0.106189    2.072107    1.602343
     11          1           0        0.094882    2.460050   -1.049782
     12          8           0       -2.356758   -0.726312    0.454324
     13          8           0       -2.318319   -0.334339   -0.669071
 ---------------------------------------------------------------------
 Rotational constants (GHZ):      2.7933800      1.4568580      1.3078258
 Standard basis: 6-311+G(2df,2p) (5D, 7F)
 There are   317 symmetry adapted basis functions of A   symmetry.
 Integral buffers will be    131072 words long.
 Raffenetti 2 integral format.
 Two-electron integral symmetry is turned on.
   317 basis functions,   471 primitive gaussians,   357 cartesian basis functions
    31 alpha electrons       28 beta electrons
       nuclear repulsion energy       338.3046007111 Hartrees.
 NAtoms=   13 NActive=   13 NUniq=   13 SFac= 1.00D+00 NAtFMM=   50 NAOKFM=F Big=F
 One-electron integrals computed using PRISM.
 NBasis=   317 RedAO= T  NBF=   317
 NBsUse=   317 1.00D-06 NBFU=   317
 Harris functional with IExCor= 1009 diagonalized for initial guess.
 ExpMin= 4.38D-02 ExpMax= 8.59D+03 ExpMxC= 1.30D+03 IAcc=2 IRadAn=         0 AccDes= 0.00D+00
 HarFok:  IExCor= 1009 AccDes= 0.00D+00 IRadAn=         0 IDoV= 1
 ScaDFX=  1.000000  1.000000  1.000000  1.000000
 FoFCou: FMM=F IPFlag=           0 FMFlag=      100000 FMFlg1=           0
         NFxFlg=           0 DoJE=T BraDBF=F KetDBF=T FulRan=T
         Omega=  0.000000  0.000000  1.000000  0.000000  0.000000 ICntrl=     500 IOpCl=  0
         NMat0=    1 NMatS0=    1 NMatT0=    0 NMatD0=    1 NMtDS0=    0 NMtDT0=    0
         I1Cent=           4 NGrid=           0.
 Petite list used in FoFCou.
 Initial guess orbital symmetries:
 Alpha Orbitals:
       Occupied  (A) (A) (A) (A) (A) (A) (A) (A) (A) (A) (A) (A)
                 (A) (A) (A) (A) (A) (A) (A) (A) (A) (A) (A) (A)
                 (A) (A) (A) (A) (A) (A) (A)
       Virtual   (A) (A) (A) (A) (A) (A) (A) (A) (A) (A) (A) (A)
                 (A) (A) (A) (A) (A) (A) (A) (A) (A) (A) (A) (A)
                 (A) (A) (A) (A) (A) (A) (A) (A) (A) (A) (A) (A)
                 (A) (A) (A) (A) (A) (A) (A) (A) (A) (A) (A) (A)
                 (A) (A) (A) (A) (A) (A) (A) (A) (A) (A) (A) (A)
                 (A) (A) (A) (A) (A) (A) (A) (A) (A) (A) (A) (A)
                 (A) (A) (A) (A) (A) (A) (A) (A) (A) (A) (A) (A)
                 (A) (A) (A) (A) (A) (A) (A) (A) (A) (A) (A) (A)
                 (A) (A) (A) (A) (A) (A) (A) (A) (A) (A) (A) (A)
                 (A) (A) (A) (A) (A) (A) (A) (A) (A) (A) (A) (A)
                 (A) (A) (A) (A) (A) (A) (A) (A) (A) (A) (A) (A)
                 (A) (A) (A) (A) (A) (A) (A) (A) (A) (A) (A) (A)
                 (A) (A) (A) (A) (A) (A) (A) (A) (A) (A) (A) (A)
                 (A) (A) (A) (A) (A) (A) (A) (A) (A) (A) (A) (A)
                 (A) (A) (A) (A) (A) (A) (A) (A) (A) (A) (A) (A)
                 (A) (A) (A) (A) (A) (A) (A) (A) (A) (A) (A) (A)
                 (A) (A) (A) (A) (A) (A) (A) (A) (A) (A) (A) (A)
                 (A) (A) (A) (A) (A) (A) (A) (A) (A) (A) (A) (A)
                 (A) (A) (A) (A) (A) (A) (A) (A) (A) (A) (A) (A)
                 (A) (A) (A) (A) (A) (A) (A) (A) (A) (A) (A) (A)
                 (A) (A) (A) (A) (A) (A) (A) (A) (A) (A) (A) (A)
                 (A) (A) (A) (A) (A) (A) (A) (A) (A) (A) (A) (A)
                 (A) (A) (A) (A) (A) (A) (A) (A) (A) (A) (A) (A)
                 (A) (A) (A) (A) (A) (A) (A) (A) (A) (A)
 Beta  Orbitals:
       Occupied  (A) (A) (A) (A) (A) (A) (A) (A) (A) (A) (A) (A)
                 (A) (A) (A) (A) (A) (A) (A) (A) (A) (A) (A) (A)
                 (A) (A) (A) (A)
       Virtual   (A) (A) (A) (A) (A) (A) (A) (A) (A) (A) (A) (A)
                 (A) (A) (A) (A) (A) (A) (A) (A) (A) (A) (A) (A)
                 (A) (A) (A) (A) (A) (A) (A) (A) (A) (A) (A) (A)
                 (A) (A) (A) (A) (A) (A) (A) (A) (A) (A) (A) (A)
                 (A) (A) (A) (A) (A) (A) (A) (A) (A) (A) (A) (A)
                 (A) (A) (A) (A) (A) (A) (A) (A) (A) (A) (A) (A)
                 (A) (A) (A) (A) (A) (A) (A) (A) (A) (A) (A) (A)
                 (A) (A) (A) (A) (A) (A) (A) (A) (A) (A) (A) (A)
                 (A) (A) (A) (A) (A) (A) (A) (A) (A) (A) (A) (A)
                 (A) (A) (A) (A) (A) (A) (A) (A) (A) (A) (A) (A)
                 (A) (A) (A) (A) (A) (A) (A) (A) (A) (A) (A) (A)
                 (A) (A) (A) (A) (A) (A) (A) (A) (A) (A) (A) (A)
                 (A) (A) (A) (A) (A) (A) (A) (A) (A) (A) (A) (A)
                 (A) (A) (A) (A) (A) (A) (A) (A) (A) (A) (A) (A)
                 (A) (A) (A) (A) (A) (A) (A) (A) (A) (A) (A) (A)
                 (A) (A) (A) (A) (A) (A) (A) (A) (A) (A) (A) (A)
                 (A) (A) (A) (A) (A) (A) (A) (A) (A) (A) (A) (A)
                 (A) (A) (A) (A) (A) (A) (A) (A) (A) (A) (A) (A)
                 (A) (A) (A) (A) (A) (A) (A) (A) (A) (A) (A) (A)
                 (A) (A) (A) (A) (A) (A) (A) (A) (A) (A) (A) (A)
                 (A) (A) (A) (A) (A) (A) (A) (A) (A) (A) (A) (A)
                 (A) (A) (A) (A) (A) (A) (A) (A) (A) (A) (A) (A)
                 (A) (A) (A) (A) (A) (A) (A) (A) (A) (A) (A) (A)
                 (A) (A) (A) (A) (A) (A) (A) (A) (A) (A) (A) (A)
                 (A)
 The electronic state of the initial guess is 4-A.
 Initial guess <Sx>= 0.0000 <Sy>= 0.0000 <Sz>= 1.5000 <S**2>= 3.7500 S= 1.5000
 Requested convergence on RMS density matrix=1.00D-08 within 128 cycles.
 Requested convergence on MAX density matrix=1.00D-06.
 Requested convergence on             energy=1.00D-06.
 No special actions if energy rises.
 Restarting incremental Fock formation.
 SCF Done:  E(UM062X) =  -418.932065945     A.U. after   24 cycles
             Convg  =    0.3049D-08             -V/T =  2.0032
 <Sx>= 0.0000 <Sy>= 0.0000 <Sz>= 1.5000 <S**2>= 3.7679 S= 1.5045
 <L.S>= 0.000000000000E+00
 Annihilation of the first spin contaminant:
 S**2 before annihilation     3.7679,   after     3.7501
 Range of M.O.s used for correlation:     1   317
 NBasis=   317 NAE=    31 NBE=    28 NFC=     0 NFV=     0
 NROrb=    317 NOA=    31 NOB=    28 NVA=   286 NVB=   289

 **** Warning!!: The largest alpha MO coefficient is  0.88829653D+02


 **** Warning!!: The largest beta MO coefficient is  0.83278433D+02

 Symmetrizing basis deriv contribution to polar:
 IMax=3 JMax=2 DiffMx= 0.00D+00
 G2DrvN: will do    14 centers at a time, making    1 passes doing MaxLOS=3.
 Calling FoFCou, ICntrl=  3107 FMM=F I1Cent=   0 AccDes= 0.00D+00.
 FoFDir/FoFCou used for L=0 through L=3.
 End of G2Drv Frequency-dependent properties file   721 does not exist.
 End of G2Drv Frequency-dependent properties file   722 does not exist.
          IDoAtm=1111111111111
          Differentiating once with respect to nuclear coordinates.
          There are    42 degrees of freedom in the 1st order CPHF.  IDoFFX=5.
     36 vectors produced by pass  0 Test12= 4.04D-10 2.38D-07 XBig12= 3.02D-01 1.89D-01.
 AX will form    36 AO Fock derivatives at one time.
     36 vectors produced by pass  1 Test12= 4.04D-10 2.38D-07 XBig12= 3.26D-02 4.40D-02.
     36 vectors produced by pass  2 Test12= 4.04D-10 2.38D-07 XBig12= 3.63D-03 1.73D-02.
     36 vectors produced by pass  3 Test12= 4.04D-10 2.38D-07 XBig12= 5.67D-05 1.06D-03.
     36 vectors produced by pass  4 Test12= 4.04D-10 2.38D-07 XBig12= 1.08D-06 1.47D-04.
     31 vectors produced by pass  5 Test12= 4.04D-10 2.38D-07 XBig12= 1.61D-08 1.45D-05.
      8 vectors produced by pass  6 Test12= 4.04D-10 2.38D-07 XBig12= 2.06D-10 1.78D-06.
 Inverted reduced A of dimension   219 with in-core refinement.
 End of Minotr Frequency-dependent properties file   721 does not exist.
 End of Minotr Frequency-dependent properties file   722 does not exist.

 **********************************************************************

            Population analysis using the SCF density.

 **********************************************************************

 Orbital symmetries:
 Alpha Orbitals:
       Occupied  (A) (A) (A) (A) (A) (A) (A) (A) (A) (A) (A) (A)
                 (A) (A) (A) (A) (A) (A) (A) (A) (A) (A) (A) (A)
                 (A) (A) (A) (A) (A) (A) (A)
       Virtual   (A) (A) (A) (A) (A) (A) (A) (A) (A) (A) (A) (A)
                 (A) (A) (A) (A) (A) (A) (A) (A) (A) (A) (A) (A)
                 (A) (A) (A) (A) (A) (A) (A) (A) (A) (A) (A) (A)
                 (A) (A) (A) (A) (A) (A) (A) (A) (A) (A) (A) (A)
                 (A) (A) (A) (A) (A) (A) (A) (A) (A) (A) (A) (A)
                 (A) (A) (A) (A) (A) (A) (A) (A) (A) (A) (A) (A)
                 (A) (A) (A) (A) (A) (A) (A) (A) (A) (A) (A) (A)
                 (A) (A) (A) (A) (A) (A) (A) (A) (A) (A) (A) (A)
                 (A) (A) (A) (A) (A) (A) (A) (A) (A) (A) (A) (A)
                 (A) (A) (A) (A) (A) (A) (A) (A) (A) (A) (A) (A)
                 (A) (A) (A) (A) (A) (A) (A) (A) (A) (A) (A) (A)
                 (A) (A) (A) (A) (A) (A) (A) (A) (A) (A) (A) (A)
                 (A) (A) (A) (A) (A) (A) (A) (A) (A) (A) (A) (A)
                 (A) (A) (A) (A) (A) (A) (A) (A) (A) (A) (A) (A)
                 (A) (A) (A) (A) (A) (A) (A) (A) (A) (A) (A) (A)
                 (A) (A) (A) (A) (A) (A) (A) (A) (A) (A) (A) (A)
                 (A) (A) (A) (A) (A) (A) (A) (A) (A) (A) (A) (A)
                 (A) (A) (A) (A) (A) (A) (A) (A) (A) (A) (A) (A)
                 (A) (A) (A) (A) (A) (A) (A) (A) (A) (A) (A) (A)
                 (A) (A) (A) (A) (A) (A) (A) (A) (A) (A) (A) (A)
                 (A) (A) (A) (A) (A) (A) (A) (A) (A) (A) (A) (A)
                 (A) (A) (A) (A) (A) (A) (A) (A) (A) (A) (A) (A)
                 (A) (A) (A) (A) (A) (A) (A) (A) (A) (A) (A) (A)
                 (A) (A) (A) (A) (A) (A) (A) (A) (A) (A)
 Beta  Orbitals:
       Occupied  (A) (A) (A) (A) (A) (A) (A) (A) (A) (A) (A) (A)
                 (A) (A) (A) (A) (A) (A) (A) (A) (A) (A) (A) (A)
                 (A) (A) (A) (A)
       Virtual   (A) (A) (A) (A) (A) (A) (A) (A) (A) (A) (A) (A)
                 (A) (A) (A) (A) (A) (A) (A) (A) (A) (A) (A) (A)
                 (A) (A) (A) (A) (A) (A) (A) (A) (A) (A) (A) (A)
                 (A) (A) (A) (A) (A) (A) (A) (A) (A) (A) (A) (A)
                 (A) (A) (A) (A) (A) (A) (A) (A) (A) (A) (A) (A)
                 (A) (A) (A) (A) (A) (A) (A) (A) (A) (A) (A) (A)
                 (A) (A) (A) (A) (A) (A) (A) (A) (A) (A) (A) (A)
                 (A) (A) (A) (A) (A) (A) (A) (A) (A) (A) (A) (A)
                 (A) (A) (A) (A) (A) (A) (A) (A) (A) (A) (A) (A)
                 (A) (A) (A) (A) (A) (A) (A) (A) (A) (A) (A) (A)
                 (A) (A) (A) (A) (A) (A) (A) (A) (A) (A) (A) (A)
                 (A) (A) (A) (A) (A) (A) (A) (A) (A) (A) (A) (A)
                 (A) (A) (A) (A) (A) (A) (A) (A) (A) (A) (A) (A)
                 (A) (A) (A) (A) (A) (A) (A) (A) (A) (A) (A) (A)
                 (A) (A) (A) (A) (A) (A) (A) (A) (A) (A) (A) (A)
                 (A) (A) (A) (A) (A) (A) (A) (A) (A) (A) (A) (A)
                 (A) (A) (A) (A) (A) (A) (A) (A) (A) (A) (A) (A)
                 (A) (A) (A) (A) (A) (A) (A) (A) (A) (A) (A) (A)
                 (A) (A) (A) (A) (A) (A) (A) (A) (A) (A) (A) (A)
                 (A) (A) (A) (A) (A) (A) (A) (A) (A) (A) (A) (A)
                 (A) (A) (A) (A) (A) (A) (A) (A) (A) (A) (A) (A)
                 (A) (A) (A) (A) (A) (A) (A) (A) (A) (A) (A) (A)
                 (A) (A) (A) (A) (A) (A) (A) (A) (A) (A) (A) (A)
                 (A) (A) (A) (A) (A) (A) (A) (A) (A) (A) (A) (A)
                 (A)
 The electronic state is 4-A.
 Alpha  occ. eigenvalues --  -19.79096 -19.79053 -19.67709 -10.61205 -10.55421
 Alpha  occ. eigenvalues --  -10.55373 -10.54952 -10.54949  -1.46595  -1.17210
 Alpha  occ. eigenvalues --   -0.97206  -0.96494  -0.82249  -0.78575  -0.68367
 Alpha  occ. eigenvalues --   -0.68201  -0.65171  -0.64779  -0.63513  -0.61080
 Alpha  occ. eigenvalues --   -0.56709  -0.50591  -0.49382  -0.48357  -0.44948
 Alpha  occ. eigenvalues --   -0.41913  -0.40238  -0.40093  -0.37612  -0.37243
 Alpha  occ. eigenvalues --   -0.29429
 Alpha virt. eigenvalues --   -0.01892   0.01610   0.02648   0.03006   0.04486
 Alpha virt. eigenvalues --    0.04835   0.05889   0.07420   0.08081   0.08423
 Alpha virt. eigenvalues --    0.09874   0.10378   0.10407   0.12427   0.13713
 Alpha virt. eigenvalues --    0.14351   0.14537   0.15145   0.15652   0.16099
 Alpha virt. eigenvalues --    0.18638   0.19669   0.20255   0.20480   0.20941
 Alpha virt. eigenvalues --    0.21199   0.22578   0.23473   0.24037   0.24756
 Alpha virt. eigenvalues --    0.25490   0.26606   0.27089   0.27984   0.29139
 Alpha virt. eigenvalues --    0.29717   0.30488   0.32399   0.33494   0.35601
 Alpha virt. eigenvalues --    0.36980   0.37839   0.39113   0.39760   0.40262
 Alpha virt. eigenvalues --    0.45967   0.46622   0.51570   0.54207   0.54524
 Alpha virt. eigenvalues --    0.55020   0.56222   0.57455   0.58258   0.59467
 Alpha virt. eigenvalues --    0.60986   0.61783   0.63370   0.63470   0.65052
 Alpha virt. eigenvalues --    0.68489   0.69129   0.69302   0.70739   0.71421
 Alpha virt. eigenvalues --    0.72691   0.73219   0.73929   0.75597   0.79242
 Alpha virt. eigenvalues --    0.80153   0.84145   0.87365   0.89827   0.90306
 Alpha virt. eigenvalues --    0.94376   0.96932   0.99314   1.01662   1.01868
 Alpha virt. eigenvalues --    1.02871   1.04033   1.05299   1.06359   1.07847
 Alpha virt. eigenvalues --    1.09059   1.09733   1.11863   1.12787   1.14390
 Alpha virt. eigenvalues --    1.15042   1.17733   1.19676   1.21255   1.21628
 Alpha virt. eigenvalues --    1.26400   1.27594   1.28749   1.29238   1.31767
 Alpha virt. eigenvalues --    1.33324   1.33999   1.34496   1.35701   1.35970
 Alpha virt. eigenvalues --    1.37362   1.38740   1.40290   1.42438   1.43661
 Alpha virt. eigenvalues --    1.44609   1.46896   1.50238   1.51202   1.53005
 Alpha virt. eigenvalues --    1.55593   1.57152   1.58337   1.62842   1.65000
 Alpha virt. eigenvalues --    1.65517   1.68734   1.72051   1.75370   1.76217
 Alpha virt. eigenvalues --    1.76261   1.80550   1.82551   1.88108   1.91328
 Alpha virt. eigenvalues --    1.93138   2.14821   2.17800   2.29150   2.29681
 Alpha virt. eigenvalues --    2.31183   2.38777   2.46996   2.50252   2.55660
 Alpha virt. eigenvalues --    2.58477   2.62894   2.66681   2.70271   2.74488
 Alpha virt. eigenvalues --    2.75272   2.76402   2.77854   2.79763   2.81411
 Alpha virt. eigenvalues --    2.82239   2.83198   2.84021   2.89142   2.90537
 Alpha virt. eigenvalues --    2.91528   2.93356   2.94360   2.94534   3.00120
 Alpha virt. eigenvalues --    3.04506   3.08672   3.10583   3.15568   3.17207
 Alpha virt. eigenvalues --    3.19829   3.20277   3.23552   3.25715   3.26769
 Alpha virt. eigenvalues --    3.30203   3.33740   3.35321   3.37031   3.38696
 Alpha virt. eigenvalues --    3.39827   3.42405   3.42927   3.44986   3.46638
 Alpha virt. eigenvalues --    3.51182   3.52780   3.56386   3.56596   3.58627
 Alpha virt. eigenvalues --    3.61817   3.66816   3.68453   3.69096   3.71293
 Alpha virt. eigenvalues --    3.73448   3.76622   3.78396   3.78920   3.84610
 Alpha virt. eigenvalues --    3.85470   3.86336   3.89753   3.95453   4.05219
 Alpha virt. eigenvalues --    4.07692   4.09994   4.11547   4.14083   4.18625
 Alpha virt. eigenvalues --    4.24215   4.25292   4.30191   4.33277   4.37581
 Alpha virt. eigenvalues --    4.38934   4.40660   4.42258   4.46735   4.48890
 Alpha virt. eigenvalues --    4.49184   4.49614   4.49756   4.52619   4.55846
 Alpha virt. eigenvalues --    4.57176   4.61715   4.62095   4.71700   4.81740
 Alpha virt. eigenvalues --    4.82082   4.82757   4.84179   4.86933   4.92960
 Alpha virt. eigenvalues --    4.94684   4.98883   5.03337   5.04500   5.04681
 Alpha virt. eigenvalues --    5.06344   5.06780   5.07880   5.08527   5.08865
 Alpha virt. eigenvalues --    5.10776   5.15713   5.21349   5.23315   5.25028
 Alpha virt. eigenvalues --    5.27545   5.30083   5.38042   5.46238   5.48429
 Alpha virt. eigenvalues --    5.48952   5.65078   5.68145   5.68229   5.72330
 Alpha virt. eigenvalues --    5.78264   6.08806   6.10072   6.29897   6.56134
 Alpha virt. eigenvalues --    6.57667   6.68151   6.70727   6.71256   6.73560
 Alpha virt. eigenvalues --    6.74716   6.77139   6.79912   6.82035   6.88234
 Alpha virt. eigenvalues --    6.90259   7.23287   7.24551   7.25155   7.26689
 Alpha virt. eigenvalues --    7.56134   7.98006   7.99781  23.93379  24.24970
 Alpha virt. eigenvalues --   24.53562  24.85526  24.91547  49.97689  50.08499
 Alpha virt. eigenvalues --   50.10956
  Beta  occ. eigenvalues --  -19.76649 -19.76571 -19.66198 -10.61254 -10.55418
  Beta  occ. eigenvalues --  -10.55368 -10.54921 -10.54912  -1.39472  -1.11447
  Beta  occ. eigenvalues --   -0.96571  -0.85798  -0.82130  -0.77289  -0.63641
  Beta  occ. eigenvalues --   -0.63302  -0.60310  -0.59775  -0.55413  -0.54806
  Beta  occ. eigenvalues --   -0.52112  -0.48459  -0.48013  -0.47403  -0.44075
  Beta  occ. eigenvalues --   -0.38887  -0.35173  -0.29421
  Beta virt. eigenvalues --   -0.08875  -0.05854  -0.05567  -0.01652   0.01642
  Beta virt. eigenvalues --    0.02701   0.03107   0.04522   0.04977   0.05905
  Beta virt. eigenvalues --    0.07508   0.08216   0.08519   0.10038   0.10413
  Beta virt. eigenvalues --    0.10550   0.12563   0.13782   0.14449   0.14627
  Beta virt. eigenvalues --    0.15456   0.16063   0.16150   0.18846   0.19737
  Beta virt. eigenvalues --    0.20258   0.20489   0.20994   0.21458   0.22663
  Beta virt. eigenvalues --    0.23600   0.24170   0.24693   0.25655   0.26711
  Beta virt. eigenvalues --    0.27028   0.28140   0.29874   0.30077   0.31215
  Beta virt. eigenvalues --    0.32660   0.33496   0.35679   0.36993   0.37881
  Beta virt. eigenvalues --    0.39919   0.40126   0.42030   0.46048   0.46652
  Beta virt. eigenvalues --    0.52120   0.54194   0.54499   0.55290   0.56218
  Beta virt. eigenvalues --    0.57790   0.58260   0.59473   0.60917   0.61755
  Beta virt. eigenvalues --    0.63272   0.63394   0.65188   0.68514   0.69196
  Beta virt. eigenvalues --    0.69330   0.70774   0.71419   0.72779   0.73115
  Beta virt. eigenvalues --    0.73965   0.75564   0.79496   0.80215   0.84181
  Beta virt. eigenvalues --    0.87550   0.90028   0.90464   0.94826   0.97625
  Beta virt. eigenvalues --    0.99452   1.02213   1.03265   1.03694   1.06259
  Beta virt. eigenvalues --    1.06484   1.07149   1.08836   1.09605   1.10907
  Beta virt. eigenvalues --    1.12485   1.14921   1.15814   1.16765   1.19231
  Beta virt. eigenvalues --    1.20153   1.21999   1.22523   1.26866   1.27944
  Beta virt. eigenvalues --    1.29073   1.29898   1.32660   1.33721   1.34645
  Beta virt. eigenvalues --    1.35475   1.36128   1.38501   1.39159   1.40020
  Beta virt. eigenvalues --    1.41167   1.43693   1.44377   1.44993   1.47115
  Beta virt. eigenvalues --    1.51126   1.51514   1.53419   1.56372   1.57752
  Beta virt. eigenvalues --    1.60224   1.63964   1.65733   1.66994   1.70955
  Beta virt. eigenvalues --    1.73357   1.77509   1.78206   1.78638   1.81333
  Beta virt. eigenvalues --    1.82825   1.88639   1.91779   1.93643   2.15351
  Beta virt. eigenvalues --    2.19211   2.31365   2.31553   2.32880   2.39511
  Beta virt. eigenvalues --    2.47298   2.50675   2.55848   2.58527   2.62886
  Beta virt. eigenvalues --    2.66729   2.70096   2.74548   2.75750   2.76421
  Beta virt. eigenvalues --    2.77891   2.79753   2.81436   2.82245   2.83225
  Beta virt. eigenvalues --    2.83988   2.89088   2.90546   2.91479   2.93180
  Beta virt. eigenvalues --    2.94352   2.94528   3.00265   3.04347   3.08771
  Beta virt. eigenvalues --    3.10456   3.15488   3.17386   3.19755   3.20269
  Beta virt. eigenvalues --    3.23599   3.25333   3.26804   3.30247   3.33741
  Beta virt. eigenvalues --    3.35402   3.37111   3.38736   3.39874   3.42426
  Beta virt. eigenvalues --    3.42816   3.44770   3.46583   3.50750   3.52882
  Beta virt. eigenvalues --    3.56282   3.56864   3.58098   3.61645   3.66718
  Beta virt. eigenvalues --    3.68161   3.69029   3.71235   3.73436   3.76664
  Beta virt. eigenvalues --    3.78276   3.78907   3.84553   3.85312   3.86543
  Beta virt. eigenvalues --    3.89451   3.95338   4.05105   4.07573   4.09838
  Beta virt. eigenvalues --    4.11492   4.14000   4.18394   4.24078   4.25327
  Beta virt. eigenvalues --    4.29973   4.33413   4.37061   4.38932   4.40485
  Beta virt. eigenvalues --    4.42599   4.47037   4.49327   4.51173   4.51583
  Beta virt. eigenvalues --    4.52228   4.54824   4.56020   4.57083   4.61741
  Beta virt. eigenvalues --    4.62084   4.71760   4.82455   4.83674   4.84993
  Beta virt. eigenvalues --    4.86077   4.88027   4.93287   4.99547   5.03529
  Beta virt. eigenvalues --    5.06143   5.06741   5.07979   5.08360   5.08508
  Beta virt. eigenvalues --    5.09566   5.11514   5.11588   5.13109   5.19373
  Beta virt. eigenvalues --    5.23482   5.24512   5.28039   5.29686   5.32439
  Beta virt. eigenvalues --    5.39992   5.47520   5.48045   5.49003   5.65268
  Beta virt. eigenvalues --    5.69836   5.69891   5.72255   5.80687   6.09162
  Beta virt. eigenvalues --    6.11901   6.29948   6.67432   6.68180   6.72741
  Beta virt. eigenvalues --    6.77923   6.78274   6.81406   6.82831   6.85613
  Beta virt. eigenvalues --    6.90990   6.92722   6.92915   6.94705   7.26282
  Beta virt. eigenvalues --    7.27515   7.27855   7.36550   7.60546   8.00112
  Beta virt. eigenvalues --    8.00816  23.93377  24.24975  24.53319  24.85545
  Beta virt. eigenvalues --   24.91565  49.96331  50.08110  50.09606
          Condensed to atoms (all electrons):
              1          2          3          4          5          6
     1  C    6.043998  -0.283943  -0.283082  -0.004291   0.046878   0.323749
     2  C   -0.283943   5.678531   0.098603   0.346053  -0.044757  -0.129668
     3  C   -0.283082   0.098603   5.644096  -0.007264   0.375430  -0.128067
     4  C   -0.004291   0.346053  -0.007264   5.235916   0.222865   0.012593
     5  C    0.046878  -0.044757   0.375430   0.222865   5.125114   0.007683
     6  O    0.323749  -0.129668  -0.128067   0.012593   0.007683   8.096972
     7  H    0.377277  -0.014323  -0.013476  -0.013260  -0.010174  -0.023813
     8  H   -0.002215   0.370583   0.005828   0.022741  -0.003815   0.002135
     9  H    0.000503   0.005375   0.364964  -0.003575   0.024716   0.002196
    10  H    0.006750   0.032942  -0.008415   0.339708   0.015219  -0.000272
    11  H    0.004418  -0.006130   0.033833   0.012791   0.342522  -0.000275
    12  O    0.006265   0.020733  -0.018085   0.010474  -0.005924  -0.000413
    13  O   -0.007703  -0.030207   0.028419   0.015278  -0.005487   0.000310
              7          8          9         10         11         12
     1  C    0.377277  -0.002215   0.000503   0.006750   0.004418   0.006265
     2  C   -0.014323   0.370583   0.005375   0.032942  -0.006130   0.020733
     3  C   -0.013476   0.005828   0.364964  -0.008415   0.033833  -0.018085
     4  C   -0.013260   0.022741  -0.003575   0.339708   0.012791   0.010474
     5  C   -0.010174  -0.003815   0.024716   0.015219   0.342522  -0.005924
     6  O   -0.023813   0.002135   0.002196  -0.000272  -0.000275  -0.000413
     7  H    0.524593  -0.000720  -0.000842  -0.000333  -0.000291   0.000851
     8  H   -0.000720   0.452339  -0.000005  -0.004318  -0.000033  -0.001472
     9  H   -0.000842  -0.000005   0.455687  -0.000038  -0.004334  -0.000025
    10  H   -0.000333  -0.004318  -0.000038   0.476509  -0.002307  -0.000321
    11  H   -0.000291  -0.000033  -0.004334  -0.002307   0.476936  -0.000085
    12  O    0.000851  -0.001472  -0.000025  -0.000321  -0.000085   7.647468
    13  O    0.001909   0.000154  -0.000807  -0.000162  -0.000625   0.326051
             13
     1  C   -0.007703
     2  C   -0.030207
     3  C    0.028419
     4  C    0.015278
     5  C   -0.005487
     6  O    0.000310
     7  H    0.001909
     8  H    0.000154
     9  H   -0.000807
    10  H   -0.000162
    11  H   -0.000625
    12  O    0.326051
    13  O    7.654951
 Mulliken atomic charges:
              1
     1  C   -0.228604
     2  C   -0.043792
     3  C   -0.092783
     4  C   -0.190028
     5  C   -0.090269
     6  O   -0.163130
     7  H    0.172603
     8  H    0.158799
     9  H    0.156185
    10  H    0.145037
    11  H    0.143580
    12  O    0.014482
    13  O    0.017918
 Sum of Mulliken atomic charges =   0.00000
 Mulliken charges with hydrogens summed into heavy atoms:
              1
     1  C   -0.056001
     2  C    0.115007
     3  C    0.063402
     4  C   -0.044991
     5  C    0.053311
     6  O   -0.163130
    12  O    0.014482
    13  O    0.017918
 Sum of Mulliken charges with hydrogens summed into heavy atoms =   0.00000
          Atomic-Atomic Spin Densities.
              1          2          3          4          5          6
     1  C    0.502871  -0.267806  -0.342963  -0.019358   0.108541  -0.048287
     2  C   -0.267806   0.144868   0.153713   0.011474  -0.024778   0.010916
     3  C   -0.342963   0.153713   0.323131   0.062840  -0.163097   0.012370
     4  C   -0.019358   0.011474   0.062840   0.039343  -0.084397  -0.001285
     5  C    0.108541  -0.024778  -0.163097  -0.084397   0.165260  -0.003157
     6  O   -0.048287   0.010916   0.012370  -0.001285  -0.003157   0.939049
     7  H    0.100290  -0.041706  -0.044976   0.001364   0.005162  -0.028235
     8  H    0.002143  -0.004927   0.000386   0.003495  -0.000602   0.000364
     9  H    0.003231   0.000024  -0.007496  -0.001110   0.005493   0.000370
    10  H   -0.002246   0.000331   0.000687   0.001070   0.000229  -0.000059
    11  H   -0.004351   0.001619   0.005814   0.002546  -0.006176  -0.000043
    12  O   -0.003669   0.017135  -0.001090  -0.015956   0.004377  -0.000545
    13  O   -0.020975   0.011175   0.015185  -0.006692  -0.000092  -0.000091
              7          8          9         10         11         12
     1  C    0.100290   0.002143   0.003231  -0.002246  -0.004351  -0.003669
     2  C   -0.041706  -0.004927   0.000024   0.000331   0.001619   0.017135
     3  C   -0.044976   0.000386  -0.007496   0.000687   0.005814  -0.001090
     4  C    0.001364   0.003495  -0.001110   0.001070   0.002546  -0.015956
     5  C    0.005162  -0.000602   0.005493   0.000229  -0.006176   0.004377
     6  O   -0.028235   0.000364   0.000370  -0.000059  -0.000043  -0.000545
     7  H    0.105427  -0.000615  -0.000628  -0.000142  -0.000128  -0.001404
     8  H   -0.000615   0.000570  -0.000005   0.000073   0.000003  -0.000837
     9  H   -0.000628  -0.000005  -0.000512   0.000008   0.000048   0.000206
    10  H   -0.000142   0.000073   0.000008   0.001762   0.000084  -0.000412
    11  H   -0.000128   0.000003   0.000048   0.000084   0.002798   0.000205
    12  O   -0.001404  -0.000837   0.000206  -0.000412   0.000205   1.431642
    13  O   -0.000301   0.000353  -0.000454   0.000236  -0.000601  -0.436577
             13
     1  C   -0.020975
     2  C    0.011175
     3  C    0.015185
     4  C   -0.006692
     5  C   -0.000092
     6  O   -0.000091
     7  H   -0.000301
     8  H    0.000353
     9  H   -0.000454
    10  H    0.000236
    11  H   -0.000601
    12  O   -0.436577
    13  O    1.433212
 Mulliken atomic spin densities:
              1
     1  C    0.007420
     2  C    0.012038
     3  C    0.014503
     4  C   -0.006664
     5  C    0.006763
     6  O    0.881366
     7  H    0.094106
     8  H    0.000400
     9  H   -0.000825
    10  H    0.001621
    11  H    0.001817
    12  O    0.993077
    13  O    0.994377
 Sum of Mulliken atomic spin densities =   3.00000
 APT atomic charges:
              1
     1  C   -0.265234
     2  C   -0.438698
     3  C   -0.471544
     4  C   -0.547543
     5  C   -0.507957
     6  O   -0.274638
     7  H    0.259739
     8  H    0.523579
     9  H    0.541067
    10  H    0.570945
    11  H    0.582478
    12  O    0.032247
    13  O   -0.004443
 Sum of APT charges=   0.00000
 APT Atomic charges with hydrogens summed into heavy atoms:
              1
     1  C   -0.005494
     2  C    0.084881
     3  C    0.069523
     4  C    0.023402
     5  C    0.074521
     6  O   -0.274638
     7  H    0.000000
     8  H    0.000000
     9  H    0.000000
    10  H    0.000000
    11  H    0.000000
    12  O    0.032247
    13  O   -0.004443
 Sum of APT charges=   0.00000
 Electronic spatial extent (au):  <R**2>=            968.5120
 Charge=              0.0000 electrons
 Dipole moment (field-independent basis, Debye):
    X=             -1.7842    Y=              1.1116    Z=              0.0186  Tot=              2.1022
 Quadrupole moment (field-independent basis, Debye-Ang):
   XX=            -52.4255   YY=            -43.9259   ZZ=            -42.9155
   XY=              2.3059   XZ=             -0.3032   YZ=              0.0498
 Traceless Quadrupole moment (field-independent basis, Debye-Ang):
   XX=             -6.0032   YY=              2.4964   ZZ=              3.5068
   XY=              2.3059   XZ=             -0.3032   YZ=              0.0498
 Octapole moment (field-independent basis, Debye-Ang**2):
  XXX=            -31.3082  YYY=             -1.8104  ZZZ=             -0.7721  XYY=            -13.9337
  XXY=              2.9513  XXZ=             -0.6340  XZZ=             -2.6185  YZZ=             -2.1077
  YYZ=             -0.5244  XYZ=             -1.6824
 Hexadecapole moment (field-independent basis, Debye-Ang**3):
 XXXX=           -636.2651 YYYY=           -308.8712 ZZZZ=           -221.9225 XXXY=             18.7009
 XXXZ=              3.3623 YYYX=              4.3803 YYYZ=              0.5198 ZZZX=             -2.8825
 ZZZY=             -2.1984 XXYY=           -176.3024 XXZZ=           -147.6569 YYZZ=            -90.1844
 XXYZ=             -0.2058 YYXZ=              0.4652 ZZXY=             -1.9629
 N-N= 3.383046007111D+02 E-N=-2.458715785980D+03  KE= 6.215413512031D+02
  Exact polarizability:   0.000   0.000   0.000   0.000   0.000   0.000
 Approx polarizability:  70.522 -11.647  93.269  -3.139  -2.844  90.212
                          Isotropic Fermi Contact Couplings
        Atom                 a.u.       MegaHertz       Gauss      10(-4) cm-1
     1  C(13)             -0.03308     -12.39693      -4.42353      -4.13517
     2  C(13)              0.01656       6.20588       2.21441       2.07006
     3  C(13)              0.01803       6.75752       2.41125       2.25407
     4  C(13)              0.00379       1.41925       0.50642       0.47341
     5  C(13)              0.00420       1.57228       0.56103       0.52445
     6  O(17)              0.13226     -26.72583      -9.53644      -8.91478
     7  H(1)               0.05369      79.99785      28.54522      26.68441
     8  H(1)              -0.00028      -0.42390      -0.15126      -0.14140
     9  H(1)              -0.00044      -0.66301      -0.23658      -0.22116
    10  H(1)               0.00111       1.65998       0.59232       0.55371
    11  H(1)               0.00115       1.71565       0.61219       0.57228
    12  O(17)              0.18686     -37.75707     -13.47266     -12.59440
    13  O(17)              0.18457     -37.29614     -13.30819     -12.44065
 --------------------------------------------------------
       Center         ----  Spin Dipole Couplings  ----
                      3XX-RR        3YY-RR        3ZZ-RR
 --------------------------------------------------------
     1   Atom        0.035919      0.017711     -0.053630
     2   Atom        0.009795     -0.012235      0.002440
     3   Atom        0.012879      0.000540     -0.013420
     4   Atom        0.006718      0.001711     -0.008429
     5   Atom        0.005004      0.004783     -0.009787
     6   Atom        0.026554      1.584051     -1.610605
     7   Atom        0.047026     -0.017857     -0.029169
     8   Atom        0.002324     -0.009655      0.007332
     9   Atom        0.000970     -0.005955      0.004985
    10   Atom       -0.000885      0.003772     -0.002887
    11   Atom       -0.000373      0.006095     -0.005721
    12   Atom        1.275189      0.863625     -2.138814
    13   Atom        1.279279      0.866345     -2.145625
 --------------------------------------------------------
                        XY            XZ            YZ
 --------------------------------------------------------
     1   Atom       -0.009534      0.004347      0.009728
     2   Atom       -0.011422     -0.014152      0.025781
     3   Atom       -0.007810      0.011791     -0.027958
     4   Atom        0.001612     -0.000413      0.005870
     5   Atom        0.000578      0.001450     -0.003039
     6   Atom        2.457693      0.493865      0.673292
     7   Atom       -0.007375      0.001606      0.001584
     8   Atom       -0.001602      0.001706      0.003981
     9   Atom       -0.000641     -0.002434     -0.007738
    10   Atom        0.003972      0.002800      0.006252
    11   Atom        0.004626     -0.001414     -0.003254
    12   Atom       -0.037506      0.112244      1.198309
    13   Atom       -0.048450      0.111055      1.190501
 --------------------------------------------------------


 ---------------------------------------------------------------------------------
              Anisotropic Spin Dipole Couplings in Principal Axis System
 ---------------------------------------------------------------------------------

       Atom             a.u.   MegaHertz   Gauss  10(-4) cm-1        Axes

              Baa    -0.0553    -7.418    -2.647    -2.474 -0.0617 -0.1398  0.9883
     1 C(13)  Bbb     0.0153     2.050     0.732     0.684  0.3877  0.9090  0.1528
              Bcc     0.0400     5.367     1.915     1.790  0.9197 -0.3926  0.0019
 
              Baa    -0.0317    -4.255    -1.518    -1.419  0.0166  0.8013 -0.5980
     2 C(13)  Bbb    -0.0033    -0.443    -0.158    -0.148  0.8110  0.3390  0.4768
              Bcc     0.0350     4.698     1.676     1.567 -0.5848  0.4929  0.6442
 
              Baa    -0.0357    -4.790    -1.709    -1.598 -0.0981  0.5945  0.7980
     3 C(13)  Bbb     0.0037     0.502     0.179     0.167  0.8081  0.5156 -0.2848
              Bcc     0.0320     4.288     1.530     1.430 -0.5808  0.6170 -0.5311
 
              Baa    -0.0112    -1.500    -0.535    -0.500  0.0587 -0.4198  0.9057
     4 C(13)  Bbb     0.0038     0.514     0.183     0.172 -0.4004  0.8212  0.4066
              Bcc     0.0073     0.986     0.352     0.329  0.9144  0.3866  0.1199
 
              Baa    -0.0105    -1.415    -0.505    -0.472 -0.0983  0.1971  0.9754
     5 C(13)  Bbb     0.0050     0.667     0.238     0.222  0.8292 -0.5258  0.1898
              Bcc     0.0056     0.749     0.267     0.250  0.5503  0.8275 -0.1117
 
              Baa    -1.7728   128.281    45.774    42.790  0.8092 -0.5869 -0.0275
     6 O(17)  Bbb    -1.7465   126.375    45.094    42.154 -0.0724 -0.1461  0.9866
              Bcc     3.5193  -254.657   -90.868   -84.944  0.5831  0.7964  0.1607
 
              Baa    -0.0295   -15.729    -5.612    -5.247 -0.0359 -0.1573  0.9869
     7 H(1)   Bbb    -0.0184    -9.817    -3.503    -3.275  0.1067  0.9813  0.1603
              Bcc     0.0479    25.546     9.116     8.521  0.9936 -0.1110  0.0184
 
              Baa    -0.0108    -5.778    -2.062    -1.927  0.1465  0.9633 -0.2249
     8 H(1)   Bbb     0.0023     1.238     0.442     0.413  0.9656 -0.1886 -0.1788
              Bcc     0.0085     4.539     1.620     1.514  0.2147  0.1910  0.9578
 
              Baa    -0.0102    -5.453    -1.946    -1.819  0.1516  0.8709  0.4675
     9 H(1)   Bbb     0.0008     0.431     0.154     0.144  0.9637 -0.2353  0.1259
              Bcc     0.0094     5.021     1.792     1.675 -0.2196 -0.4315  0.8750
 
              Baa    -0.0067    -3.559    -1.270    -1.187 -0.0857 -0.4876  0.8689
    10 H(1)   Bbb    -0.0031    -1.636    -0.584    -0.546  0.9056 -0.4016 -0.1361
              Bcc     0.0097     5.196     1.854     1.733  0.4153  0.7752  0.4760
 
              Baa    -0.0066    -3.505    -1.251    -1.169  0.0487  0.2318  0.9715
    11 H(1)   Bbb    -0.0028    -1.477    -0.527    -0.493  0.8939 -0.4441  0.0612
              Bcc     0.0093     4.982     1.778     1.662  0.4456  0.8655 -0.2289
 
              Baa    -2.5621   185.390    66.152    61.840 -0.0308 -0.3303  0.9434
    12 O(17)  Bbb     1.2783   -92.494   -33.004   -30.853  0.9461 -0.3141 -0.0791
              Bcc     1.2838   -92.896   -33.148   -30.987  0.3224  0.8901  0.3222
 
              Baa    -2.5631   185.468    66.179    61.865 -0.0314 -0.3282  0.9441
    13 O(17)  Bbb     1.2721   -92.052   -32.846   -30.705  0.6479  0.7125  0.2692
              Bcc     1.2910   -93.416   -33.333   -31.160  0.7611 -0.6202 -0.1902
 

 ---------------------------------------------------------------------------------

 Calling FoFJK, ICntrl=    100147 FMM=F ISym2X=0 I1Cent= 0 IOpClX= 1 NMat=1 NMatS=1 NMatT=0.
 ***** Axes restored to original set *****
 -------------------------------------------------------------------
 Center     Atomic                   Forces (Hartrees/Bohr)
 Number     Number              X              Y              Z
 -------------------------------------------------------------------
      1        6           0.000162926   -0.000154341    0.000201987
      2        6          -0.000064277    0.000017579   -0.000100529
      3        6          -0.000057235    0.000021777    0.000040867
      4        6           0.000089234    0.000007785    0.000026957
      5        6          -0.000015893    0.000043589    0.000029892
      6        8           0.000087570   -0.000029762   -0.000101874
      7        1          -0.000152521    0.000087830   -0.000040718
      8        1          -0.000002295    0.000069415   -0.000048158
      9        1          -0.000024938   -0.000027618    0.000016565
     10        1          -0.000029659    0.000032713    0.000013356
     11        1          -0.000008979   -0.000011142   -0.000000620
     12        8          -0.000076980    0.000022414   -0.000329368
     13        8           0.000093047   -0.000080241    0.000291644
 -------------------------------------------------------------------
 Cartesian Forces:  Max     0.000329368 RMS     0.000101362

 GradGradGradGradGradGradGradGradGradGradGradGradGradGradGradGradGradGrad
 Berny optimization.
 Internal  Forces:  Max     0.000265426 RMS     0.000034169
 Search for a saddle point.
 Step number   1 out of a maximum of  100
 All quantities printed in internal units (Hartrees-Bohrs-Radians)
 Swaping is turned off.
 Second derivative matrix not updated -- analytic derivatives used.
 ITU=  0
     Eigenvalues ---    0.00017   0.00070   0.00088   0.00112   0.00234
     Eigenvalues ---    0.00449   0.00597   0.00948   0.01112   0.01402
     Eigenvalues ---    0.01510   0.02223   0.02366   0.02959   0.03307
     Eigenvalues ---    0.03473   0.03673   0.04591   0.06594   0.11581
     Eigenvalues ---    0.14106   0.16767   0.17881   0.21869   0.25858
     Eigenvalues ---    0.30898   0.36440   0.36620   0.37109   0.38508
     Eigenvalues ---    0.40609   0.48703   0.78426
 Eigenvectors required to have negative eigenvalues:
                          R16       R19       R5        A44       A32
   1                    0.42087  -0.32979  -0.29375  -0.24980   0.23828
                          R21       A41       A36       D23       R6
   1                    0.23406  -0.22580   0.21833   0.17106   0.16405
 RFO step:  Lambda0=1.679637726D-04 Lambda=-8.24395280D-06.
 Linear search not attempted -- option 19 set.
 Maximum step size (   0.300) exceeded in Quadratic search.
    -- Step size scaled by   0.007
 Iteration  1 RMS(Cart)=  0.02488132 RMS(Int)=  0.00084010
 Iteration  2 RMS(Cart)=  0.00036650 RMS(Int)=  0.00046287
 Iteration  3 RMS(Cart)=  0.00000017 RMS(Int)=  0.00046287
 Variable       Old X    -DE/DX   Delta X   Delta X   Delta X     New X
                                 (Linear)    (Quad)   (Total)
    R1        2.86364  -0.00001   0.00000  -0.00008   0.00009   2.86373
    R2        2.86300   0.00000   0.00000   0.00005  -0.00006   2.86294
    R3        2.56383   0.00009   0.00000   0.00006   0.00006   2.56389
    R4        2.10868   0.00001   0.00000  -0.00001   0.00054   2.10923
    R5        6.42797   0.00002   0.00000  -0.09798  -0.09882   6.32916
    R6        6.40075   0.00001   0.00000   0.05463   0.05410   6.45486
    R7        2.51990  -0.00002   0.00000   0.00014  -0.00007   2.51983
    R8        2.03790  -0.00006   0.00000   0.00007   0.00043   2.03833
    R9        6.05778   0.00003   0.00000  -0.00215  -0.00200   6.05578
   R10        2.51996   0.00002   0.00000   0.00008  -0.00036   2.51961
   R11        2.03774  -0.00002   0.00000   0.00000   0.00000   2.03774
   R12        6.17820  -0.00002   0.00000  -0.03410  -0.03399   6.14421
   R13        2.79358  -0.00003   0.00000  -0.00011   0.00040   2.79398
   R14        2.04051   0.00004   0.00000  -0.00006  -0.00006   2.04045
   R15        6.32340   0.00003   0.00000  -0.03838  -0.03850   6.28490
   R16        6.49764  -0.00002   0.00000   0.14049   0.13977   6.63741
   R17        2.04039  -0.00001   0.00000   0.00003   0.00003   2.04041
   R18        6.17601   0.00000   0.00000   0.02014   0.02050   6.19651
   R19        5.14451  -0.00004   0.00000  -0.11012  -0.10973   5.03478
   R20        5.20341  -0.00006   0.00000   0.04426   0.04491   5.24833
   R21        6.67229   0.00002   0.00000   0.07832   0.07842   6.75071
   R22        2.24960  -0.00027   0.00000   0.00032   0.00142   2.25101
    A1        1.80737  -0.00006   0.00000   0.00001   0.00046   1.80783
    A2        2.06747   0.00004   0.00000   0.00051   0.00017   2.06764
    A3        1.85322   0.00000   0.00000  -0.00079  -0.00084   1.85238
    A4        1.44964  -0.00004   0.00000   0.04027   0.04005   1.48969
    A5        2.06838   0.00001   0.00000  -0.00061  -0.00121   2.06716
    A6        1.85430  -0.00004   0.00000   0.00021  -0.00032   1.85398
    A7        1.58357  -0.00005   0.00000  -0.03312  -0.03361   1.54996
    A8        1.79332   0.00004   0.00000   0.00061   0.00168   1.79500
    A9        2.50540   0.00002   0.00000   0.01458   0.01472   2.52012
   A10        2.60004   0.00000   0.00000  -0.01662  -0.01713   2.58291
   A11        1.89130   0.00006   0.00000  -0.00004  -0.00038   1.89092
   A12        2.14791  -0.00001   0.00000   0.00027   0.00057   2.14849
   A13        2.24351  -0.00004   0.00000  -0.00021  -0.00017   2.24334
   A14        1.89147   0.00003   0.00000  -0.00002  -0.00034   1.89113
   A15        2.14887  -0.00002   0.00000  -0.00007   0.00047   2.14934
   A16        2.24242  -0.00001   0.00000   0.00007  -0.00014   2.24228
   A17        1.85824  -0.00001   0.00000  -0.04609  -0.04605   1.81219
   A18        1.91600  -0.00002   0.00000   0.00003   0.00002   1.91601
   A19        2.20203   0.00003   0.00000   0.00025  -0.00007   2.20196
   A20        1.45357  -0.00003   0.00000   0.01178   0.01138   1.46496
   A21        2.16516   0.00000   0.00000  -0.00028   0.00005   2.16521
   A22        1.58355  -0.00003   0.00000  -0.04300  -0.04350   1.54005
   A23        1.82985   0.00001   0.00000   0.02688   0.02712   1.85698
   A24        1.96548  -0.00001   0.00000   0.02270   0.02258   1.98806
   A25        1.91597  -0.00001   0.00000  -0.00001   0.00023   1.91620
   A26        2.20173   0.00001   0.00000   0.00000  -0.00027   2.20146
   A27        2.16549   0.00000   0.00000   0.00002   0.00004   2.16553
   A28        1.84781   0.00000   0.00000  -0.02245  -0.02231   1.82550
   A29        0.69942   0.00001   0.00000   0.00801   0.00800   0.70742
   A30        0.67222  -0.00001   0.00000  -0.00034  -0.00071   0.67151
   A31        0.71289   0.00000   0.00000   0.00302   0.00286   0.71575
   A32        1.68043   0.00000   0.00000   0.07942   0.07972   1.76014
   A33        0.99134   0.00000   0.00000   0.01148   0.01147   1.00281
   A34        0.64161  -0.00002   0.00000  -0.00350  -0.00371   0.63790
   A35        0.84683  -0.00001   0.00000  -0.00689  -0.00733   0.83949
   A36        1.98428  -0.00001   0.00000   0.07275   0.07276   2.05704
   A37        0.69113   0.00001   0.00000  -0.01117  -0.01114   0.67999
   A38        0.70884   0.00001   0.00000  -0.00465  -0.00479   0.70405
   A39        0.69876   0.00000   0.00000  -0.00803  -0.00837   0.69039
   A40        0.69882  -0.00001   0.00000   0.00267   0.00241   0.70123
   A41        1.81626   0.00003   0.00000  -0.07526  -0.07542   1.74085
   A42        0.96562   0.00001   0.00000  -0.02054  -0.02037   0.94525
   A43        1.00628   0.00000   0.00000  -0.00571  -0.00602   1.00025
   A44        1.75305   0.00003   0.00000  -0.08326  -0.08306   1.66999
    D1        0.06547  -0.00003   0.00000   0.00034   0.00030   0.06577
    D2       -3.10620  -0.00002   0.00000   0.00104   0.00106  -3.10514
    D3        2.39655  -0.00003   0.00000  -0.00008  -0.00084   2.39571
    D4       -0.77512  -0.00002   0.00000   0.00062  -0.00008  -0.77520
    D5       -1.88387   0.00004   0.00000   0.00040   0.00078  -1.88309
    D6        1.22764   0.00005   0.00000   0.00110   0.00154   1.22919
    D7       -1.15814  -0.00002   0.00000   0.01912   0.01905  -1.13908
    D8        1.95338  -0.00001   0.00000   0.01983   0.01982   1.97319
    D9       -0.06537   0.00002   0.00000  -0.00018  -0.00023  -0.06560
   D10        3.10502   0.00003   0.00000   0.00039   0.00033   3.10536
   D11       -2.39593   0.00001   0.00000  -0.00039   0.00011  -2.39582
   D12        0.77446   0.00001   0.00000   0.00018   0.00068   0.77514
   D13        1.88318  -0.00002   0.00000  -0.00097  -0.00109   1.88208
   D14       -1.22961  -0.00002   0.00000  -0.00040  -0.00053  -1.23014
   D15        1.14227   0.00002   0.00000   0.02248   0.02245   1.16472
   D16       -1.97052   0.00002   0.00000   0.02305   0.02302  -1.94751
   D17       -1.19787   0.00001   0.00000  -0.01550  -0.01544  -1.21331
   D18       -2.23944   0.00004   0.00000  -0.00358  -0.00338  -2.24283
   D19        2.55185   0.00005   0.00000   0.03648   0.03802   2.58987
   D20        1.51028   0.00008   0.00000   0.04840   0.05007   1.56035
   D21        0.55739  -0.00002   0.00000  -0.01024  -0.00994   0.54745
   D22        1.25069  -0.00003   0.00000  -0.01650  -0.01657   1.23412
   D23        2.94480   0.00001   0.00000   0.05713   0.05568   3.00049
   D24       -2.64508   0.00000   0.00000   0.05086   0.04905  -2.59602
   D25       -0.04311   0.00002   0.00000  -0.00037  -0.00024  -0.04336
   D26        3.09956   0.00000   0.00000  -0.00023  -0.00024   3.09931
   D27        1.12431   0.00003   0.00000  -0.03748  -0.03713   1.08718
   D28        3.13071   0.00001   0.00000  -0.00114  -0.00108   3.12963
   D29       -0.00981  -0.00001   0.00000  -0.00099  -0.00108  -0.01089
   D30       -1.98505   0.00001   0.00000  -0.03825  -0.03796  -2.02302
   D31        0.04288  -0.00001   0.00000  -0.00003   0.00008   0.04296
   D32       -3.10125   0.00000   0.00000   0.00054   0.00062  -3.10062
   D33       -3.12953  -0.00001   0.00000  -0.00065  -0.00051  -3.13004
   D34        0.00953   0.00000   0.00000  -0.00008   0.00003   0.00956
   D35       -2.88090   0.00001   0.00000  -0.00332  -0.00284  -2.88373
   D36        1.78974  -0.00002   0.00000   0.03088   0.03030   1.82004
   D37        2.60419  -0.00001   0.00000   0.03023   0.02960   2.63379
   D38        0.00016  -0.00001   0.00000   0.00026   0.00011   0.00027
   D39       -3.13896  -0.00002   0.00000  -0.00029  -0.00042  -3.13938
   D40        3.14070   0.00001   0.00000   0.00012   0.00011   3.14081
   D41        0.00158   0.00000   0.00000  -0.00043  -0.00042   0.00116
   D42       -1.24823   0.00000   0.00000   0.00230   0.00250  -1.24574
   D43        1.89583  -0.00001   0.00000   0.00174   0.00197   1.89780
   D44        1.22177   0.00002   0.00000   0.01347   0.01381   1.23558
   D45        1.22959   0.00002   0.00000   0.03265   0.03330   1.26289
   D46        2.33734   0.00000   0.00000   0.00792   0.00762   2.34496
   D47       -2.86852   0.00001   0.00000   0.00429   0.00431  -2.86422
   D48       -2.86071   0.00000   0.00000   0.02347   0.02380  -2.83691
   D49       -1.75296  -0.00001   0.00000  -0.00126  -0.00188  -1.75484
   D50       -0.64456   0.00002   0.00000   0.00976   0.00987  -0.63468
   D51       -1.36904   0.00002   0.00000   0.00407   0.00428  -1.36476
   D52       -0.47190   0.00000   0.00000   0.02765   0.02750  -0.44439
   D53       -2.85219   0.00000   0.00000   0.00074   0.00070  -2.85149
   D54        2.70650   0.00001   0.00000  -0.00495  -0.00489   2.70162
   D55       -2.67953  -0.00001   0.00000   0.01863   0.01833  -2.66120
   D56        2.86084  -0.00001   0.00000   0.00275   0.00295   2.86379
   D57        2.79150  -0.00002   0.00000   0.02433   0.02426   2.81576
   D58       -2.34138   0.00001   0.00000  -0.00089  -0.00074  -2.34213
   D59        1.56056   0.00001   0.00000   0.00977   0.00928   1.56984
   D60        0.14509   0.00001   0.00000  -0.01565  -0.01530   0.12979
   D61       -0.27053   0.00000   0.00000  -0.00763  -0.00852  -0.27905
   D62        0.10076   0.00002   0.00000  -0.02258  -0.02264   0.07813
   D63       -0.31486   0.00001   0.00000  -0.01457  -0.01585  -0.33071
         Item               Value     Threshold  Converged?
 Maximum Force            0.000265     0.000450     YES
 RMS     Force            0.000034     0.000300     YES
 Maximum Displacement     0.144319     0.001800     NO 
 RMS     Displacement     0.024924     0.001200     NO 
 Predicted change in Energy= 1.044994D-05
 GradGradGradGradGradGradGradGradGradGradGradGradGradGradGradGradGradGrad

                          Input orientation:                          
 ---------------------------------------------------------------------
 Center     Atomic      Atomic             Coordinates (Angstroms)
 Number     Number       Type             X           Y           Z
 ---------------------------------------------------------------------
      1          6           0        0.998715   -0.630909   -0.059113
      2          6           0        0.669765    0.097131    1.228619
      3          6           0        0.799680    0.425996   -1.126149
      4          6           0        0.262076    1.329078    0.921782
      5          6           0        0.342982    1.533234   -0.540327
      6          8           0        2.121941   -1.390611   -0.103727
      7          1           0        0.185694   -1.381058   -0.207685
      8          1           0        0.742848   -0.363803    2.201066
      9          1           0        0.983668    0.248258   -2.173693
     10          1           0       -0.078389    2.079762    1.619232
     11          1           0        0.069759    2.451100   -1.039036
     12          8           0       -2.319260   -0.700053    0.392220
     13          8           0       -2.335350   -0.347366   -0.745441
 ---------------------------------------------------------------------
                    Distance matrix (angstroms):
                    1          2          3          4          5
     1  C    0.000000
     2  C    1.515422   0.000000
     3  C    1.515001   2.381168   0.000000
     4  C    2.312215   1.333436   2.301868   0.000000
     5  C    2.311940   2.301814   1.333318   1.478509   0.000000
     6  O    1.356751   2.469279   2.468558   3.450720   3.450244
     7  H    1.116154   2.117153   2.118017   2.937067   2.937428
     8  H    2.290246   1.078636   3.420142   2.175673   3.357660
     9  H    2.290111   3.420102   1.078327   3.357205   2.174747
    10  H    3.365223   2.154794   3.323111   1.079759   2.267144
    11  H    3.364816   3.323166   2.154396   2.267317   1.079740
    12  O    3.349245   3.204581   3.647084   3.325824   3.597881
    13  O    3.415762   3.622873   3.251375   3.512367   3.279053
                    6          7          8          9         10
     6  O    0.000000
     7  H    1.939060   0.000000
     8  H    2.875467   2.673445   0.000000
     9  H    2.875120   2.675186   4.423927   0.000000
    10  H    4.455729   3.922325   2.642720   4.343806   0.000000
    11  H    4.454772   3.923011   4.344535   2.641058   2.688165
    12  O    4.521847   2.664291   3.572323   4.288652   3.775504
    13  O    4.622510   2.777294   4.261159   3.662042   4.071425
                   11         12         13
    11  H    0.000000
    12  O    4.205434   0.000000
    13  O    3.701643   1.191185   0.000000
 Stoichiometry    C5H5O3(4)
 Framework group  C1[X(C5H5O3)]
 Deg. of freedom    33
 Full point group                 C1      NOp   1
 Largest Abelian subgroup         C1      NOp   1
 Largest concise Abelian subgroup C1      NOp   1
                         Standard orientation:                         
 ---------------------------------------------------------------------
 Center     Atomic      Atomic             Coordinates (Angstroms)
 Number     Number       Type             X           Y           Z
 ---------------------------------------------------------------------
      1          6           0        0.998517   -0.630299   -0.043025
      2          6           0        0.714844    0.181806    1.204580
      3          6           0        0.752494    0.351593   -1.170228
      4          6           0        0.288414    1.388900    0.831576
      5          6           0        0.312031    1.494284   -0.642984
      6          8           0        2.123686   -1.387543   -0.079806
      7          1           0        0.184854   -1.391457   -0.109304
      8          1           0        0.827858   -0.212271    2.202271
      9          1           0        0.897259    0.104246   -2.209773
     10          1           0       -0.029515    2.183763    1.489598
     11          1           0        0.014474    2.375525   -1.191357
     12          8           0       -2.299262   -0.679887    0.539759
     13          8           0       -2.361016   -0.404759   -0.617571
 ---------------------------------------------------------------------
 Rotational constants (GHZ):      2.7876013      1.4610537      1.3152581
 Standard basis: 6-311+G(2df,2p) (5D, 7F)
 There are   317 symmetry adapted basis functions of A   symmetry.
 Integral buffers will be    131072 words long.
 Raffenetti 2 integral format.
 Two-electron integral symmetry is turned on.
   317 basis functions,   471 primitive gaussians,   357 cartesian basis functions
    31 alpha electrons       28 beta electrons
       nuclear repulsion energy       338.4767198304 Hartrees.
 NAtoms=   13 NActive=   13 NUniq=   13 SFac= 1.00D+00 NAtFMM=   50 NAOKFM=F Big=F
 One-electron integrals computed using PRISM.
 NBasis=   317 RedAO= T  NBF=   317
 NBsUse=   317 1.00D-06 NBFU=   317
 Initial guess read from the read-write file.
 B after Tr=     0.000000    0.000000    0.000000
         Rot=    1.000000    0.000000    0.000000    0.000000 Ang=   0.00 deg.
 Initial guess orbital symmetries:
 Alpha Orbitals:
       Occupied  (A) (A) (A) (A) (A) (A) (A) (A) (A) (A) (A) (A)
                 (A) (A) (A) (A) (A) (A) (A) (A) (A) (A) (A) (A)
                 (A) (A) (A) (A) (A) (A) (A)
       Virtual   (A) (A) (A) (A) (A) (A) (A) (A) (A) (A) (A) (A)
                 (A) (A) (A) (A) (A) (A) (A) (A) (A) (A) (A) (A)
                 (A) (A) (A) (A) (A) (A) (A) (A) (A) (A) (A) (A)
                 (A) (A) (A) (A) (A) (A) (A) (A) (A) (A) (A) (A)
                 (A) (A) (A) (A) (A) (A) (A) (A) (A) (A) (A) (A)
                 (A) (A) (A) (A) (A) (A) (A) (A) (A) (A) (A) (A)
                 (A) (A) (A) (A) (A) (A) (A) (A) (A) (A) (A) (A)
                 (A) (A) (A) (A) (A) (A) (A) (A) (A) (A) (A) (A)
                 (A) (A) (A) (A) (A) (A) (A) (A) (A) (A) (A) (A)
                 (A) (A) (A) (A) (A) (A) (A) (A) (A) (A) (A) (A)
                 (A) (A) (A) (A) (A) (A) (A) (A) (A) (A) (A) (A)
                 (A) (A) (A) (A) (A) (A) (A) (A) (A) (A) (A) (A)
                 (A) (A) (A) (A) (A) (A) (A) (A) (A) (A) (A) (A)
                 (A) (A) (A) (A) (A) (A) (A) (A) (A) (A) (A) (A)
                 (A) (A) (A) (A) (A) (A) (A) (A) (A) (A) (A) (A)
                 (A) (A) (A) (A) (A) (A) (A) (A) (A) (A) (A) (A)
                 (A) (A) (A) (A) (A) (A) (A) (A) (A) (A) (A) (A)
                 (A) (A) (A) (A) (A) (A) (A) (A) (A) (A) (A) (A)
                 (A) (A) (A) (A) (A) (A) (A) (A) (A) (A) (A) (A)
                 (A) (A) (A) (A) (A) (A) (A) (A) (A) (A) (A) (A)
                 (A) (A) (A) (A) (A) (A) (A) (A) (A) (A) (A) (A)
                 (A) (A) (A) (A) (A) (A) (A) (A) (A) (A) (A) (A)
                 (A) (A) (A) (A) (A) (A) (A) (A) (A) (A) (A) (A)
                 (A) (A) (A) (A) (A) (A) (A) (A) (A) (A)
 Beta  Orbitals:
       Occupied  (A) (A) (A) (A) (A) (A) (A) (A) (A) (A) (A) (A)
                 (A) (A) (A) (A) (A) (A) (A) (A) (A) (A) (A) (A)
                 (A) (A) (A) (A)
       Virtual   (A) (A) (A) (A) (A) (A) (A) (A) (A) (A) (A) (A)
                 (A) (A) (A) (A) (A) (A) (A) (A) (A) (A) (A) (A)
                 (A) (A) (A) (A) (A) (A) (A) (A) (A) (A) (A) (A)
                 (A) (A) (A) (A) (A) (A) (A) (A) (A) (A) (A) (A)
                 (A) (A) (A) (A) (A) (A) (A) (A) (A) (A) (A) (A)
                 (A) (A) (A) (A) (A) (A) (A) (A) (A) (A) (A) (A)
                 (A) (A) (A) (A) (A) (A) (A) (A) (A) (A) (A) (A)
                 (A) (A) (A) (A) (A) (A) (A) (A) (A) (A) (A) (A)
                 (A) (A) (A) (A) (A) (A) (A) (A) (A) (A) (A) (A)
                 (A) (A) (A) (A) (A) (A) (A) (A) (A) (A) (A) (A)
                 (A) (A) (A) (A) (A) (A) (A) (A) (A) (A) (A) (A)
                 (A) (A) (A) (A) (A) (A) (A) (A) (A) (A) (A) (A)
                 (A) (A) (A) (A) (A) (A) (A) (A) (A) (A) (A) (A)
                 (A) (A) (A) (A) (A) (A) (A) (A) (A) (A) (A) (A)
                 (A) (A) (A) (A) (A) (A) (A) (A) (A) (A) (A) (A)
                 (A) (A) (A) (A) (A) (A) (A) (A) (A) (A) (A) (A)
                 (A) (A) (A) (A) (A) (A) (A) (A) (A) (A) (A) (A)
                 (A) (A) (A) (A) (A) (A) (A) (A) (A) (A) (A) (A)
                 (A) (A) (A) (A) (A) (A) (A) (A) (A) (A) (A) (A)
                 (A) (A) (A) (A) (A) (A) (A) (A) (A) (A) (A) (A)
                 (A) (A) (A) (A) (A) (A) (A) (A) (A) (A) (A) (A)
                 (A) (A) (A) (A) (A) (A) (A) (A) (A) (A) (A) (A)
                 (A) (A) (A) (A) (A) (A) (A) (A) (A) (A) (A) (A)
                 (A) (A) (A) (A) (A) (A) (A) (A) (A) (A) (A) (A)
                 (A)
 Initial guess <Sx>= 0.0000 <Sy>= 0.0000 <Sz>= 1.5000 <S**2>= 3.7680 S= 1.5045
 Harris functional with IExCor= 1009 diagonalized for initial guess.
 ExpMin= 4.38D-02 ExpMax= 8.59D+03 ExpMxC= 1.30D+03 IAcc=2 IRadAn=         0 AccDes= 0.00D+00
[...]
 Alpha virt. eigenvalues --   24.53056  24.85690  24.91600  49.95093  50.07757
 Alpha virt. eigenvalues --   50.10921
  Beta  occ. eigenvalues --  -19.77040 -19.76957 -19.66145 -10.61190 -10.55357
  Beta  occ. eigenvalues --  -10.55292 -10.54822 -10.54788  -1.40081  -1.11335
  Beta  occ. eigenvalues --   -0.96471  -0.86106  -0.82068  -0.77199  -0.63540
  Beta  occ. eigenvalues --   -0.63248  -0.60426  -0.60006  -0.55331  -0.55222
  Beta  occ. eigenvalues --   -0.52598  -0.48395  -0.47898  -0.47344  -0.43994
  Beta  occ. eigenvalues --   -0.38904  -0.35110  -0.29291
  Beta virt. eigenvalues --   -0.08913  -0.06004  -0.05953  -0.01545   0.01586
  Beta virt. eigenvalues --    0.02808   0.03359   0.04263   0.05195   0.05998
  Beta virt. eigenvalues --    0.07768   0.08425   0.08958   0.09180   0.10412
  Beta virt. eigenvalues --    0.10577   0.12570   0.12695   0.14261   0.14422
  Beta virt. eigenvalues --    0.14586   0.15445   0.16503   0.17686   0.19020
  Beta virt. eigenvalues --    0.19586   0.20204   0.20437   0.21545   0.22424
  Beta virt. eigenvalues --    0.23242   0.23523   0.24366   0.24990   0.25478
  Beta virt. eigenvalues --    0.26028   0.26565   0.28177   0.29854   0.30313
  Beta virt. eigenvalues --    0.32668   0.33798   0.35443   0.37585   0.38316
  Beta virt. eigenvalues --    0.39597   0.40245   0.41500   0.44741   0.46722
  Beta virt. eigenvalues --    0.51970   0.52987   0.54451   0.54592   0.55529
  Beta virt. eigenvalues --    0.56709   0.58802   0.59782   0.61314   0.63330
  Beta virt. eigenvalues --    0.63821   0.64395   0.65499   0.68615   0.69087
  Beta virt. eigenvalues --    0.69355   0.70113   0.70244   0.71910   0.73634
  Beta virt. eigenvalues --    0.74111   0.74807   0.77301   0.80473   0.83669
  Beta virt. eigenvalues --    0.88176   0.90451   0.90962   0.95403   0.96360
  Beta virt. eigenvalues --    0.98366   0.99561   1.01996   1.03744   1.04699
  Beta virt. eigenvalues --    1.06032   1.07393   1.08066   1.09059   1.10179
  Beta virt. eigenvalues --    1.11026   1.12241   1.15245   1.15903   1.18248
  Beta virt. eigenvalues --    1.20233   1.22325   1.23404   1.25561   1.27233
  Beta virt. eigenvalues --    1.28082   1.30739   1.31387   1.31685   1.33143
  Beta virt. eigenvalues --    1.34835   1.35897   1.38125   1.38380   1.38989
  Beta virt. eigenvalues --    1.39487   1.40272   1.44073   1.44916   1.46029
  Beta virt. eigenvalues --    1.47375   1.50992   1.51394   1.55998   1.57315
  Beta virt. eigenvalues --    1.58364   1.59560   1.65391   1.68747   1.71049
  Beta virt. eigenvalues --    1.72552   1.72660   1.76738   1.78851   1.80775
  Beta virt. eigenvalues --    1.82942   1.88075   1.88483   1.92842   2.15291
  Beta virt. eigenvalues --    2.18332   2.30316   2.30970   2.31384   2.37927
  Beta virt. eigenvalues --    2.44271   2.50378   2.53753   2.57104   2.62432
  Beta virt. eigenvalues --    2.66381   2.69744   2.74173   2.74501   2.76601
  Beta virt. eigenvalues --    2.77175   2.78499   2.78841   2.80437   2.82465
  Beta virt. eigenvalues --    2.83581   2.88113   2.90149   2.90286   2.92412
  Beta virt. eigenvalues --    2.93883   2.94707   3.00286   3.03586   3.08776
  Beta virt. eigenvalues --    3.10321   3.15158   3.17388   3.19379   3.20167
  Beta virt. eigenvalues --    3.22398   3.25468   3.26339   3.27053   3.33786
  Beta virt. eigenvalues --    3.34239   3.35048   3.37072   3.39872   3.42079
  Beta virt. eigenvalues --    3.42425   3.43675   3.45423   3.50208   3.52524
  Beta virt. eigenvalues --    3.56111   3.57077   3.58234   3.61602   3.67035
  Beta virt. eigenvalues --    3.67787   3.68794   3.69817   3.71943   3.76530
  Beta virt. eigenvalues --    3.77395   3.78719   3.84265   3.85157   3.85866
  Beta virt. eigenvalues --    3.88667   3.94838   4.04959   4.06236   4.09560
  Beta virt. eigenvalues --    4.11091   4.12541   4.18520   4.23633   4.24006
  Beta virt. eigenvalues --    4.29476   4.33329   4.37106   4.38329   4.40438
  Beta virt. eigenvalues --    4.42126   4.46975   4.49024   4.50489   4.50604
  Beta virt. eigenvalues --    4.51037   4.52098   4.55660   4.56541   4.61491
  Beta virt. eigenvalues --    4.62009   4.71801   4.82062   4.82626   4.83692
  Beta virt. eigenvalues --    4.83848   4.85227   4.93099   4.96914   4.98660
  Beta virt. eigenvalues --    5.05302   5.05832   5.06269   5.07390   5.08666
  Beta virt. eigenvalues --    5.09193   5.10693   5.10736   5.11642   5.18813
  Beta virt. eigenvalues --    5.23305   5.25433   5.27444   5.29187   5.32276
  Beta virt. eigenvalues --    5.39626   5.46449   5.47978   5.48622   5.65216
  Beta virt. eigenvalues --    5.69970   5.69982   5.72255   5.80462   6.08877
  Beta virt. eigenvalues --    6.11589   6.29936   6.65126   6.66345   6.69711
  Beta virt. eigenvalues --    6.78186   6.78389   6.79492   6.80655   6.81200
  Beta virt. eigenvalues --    6.90715   6.92338   6.92730   6.92942   7.25802
  Beta virt. eigenvalues --    7.26331   7.27687   7.36149   7.58470   7.99092
  Beta virt. eigenvalues --    7.99712  23.93395  24.24605  24.52817  24.85694
  Beta virt. eigenvalues --   24.91603  49.93740  50.07301  50.09636
          Condensed to atoms (all electrons):
              1          2          3          4          5          6
     1  C    5.798786  -0.046657  -0.229649  -0.114451   0.071824   0.367163
     2  C   -0.046657   5.390521   0.042096   0.583763  -0.082881  -0.150336
     3  C   -0.229649   0.042096   5.582393  -0.030263   0.345212  -0.127883
     4  C   -0.114451   0.583763  -0.030263   5.011424   0.248330   0.006761
     5  C    0.071824  -0.082881   0.345212   0.248330   5.260301   0.008120
     6  O    0.367163  -0.150336  -0.127883   0.006761   0.008120   8.072512
     7  H    0.379505  -0.016736  -0.015194  -0.001985  -0.012197  -0.032105
     8  H    0.005507   0.356462   0.004792   0.029526  -0.006249   0.002439
     9  H    0.004340   0.001965   0.365877  -0.001664   0.021418   0.001565
    10  H    0.007518   0.023650  -0.005281   0.355272   0.005445  -0.000288
    11  H    0.008197  -0.011415   0.033999   0.014196   0.341212  -0.000273
    12  O    0.013329  -0.002384   0.010824  -0.001089  -0.005987  -0.001002
    13  O    0.003386   0.004620   0.006672  -0.002831   0.001738  -0.000772
              7          8          9         10         11         12
     1  C    0.379505   0.005507   0.004340   0.007518   0.008197   0.013329
     2  C   -0.016736   0.356462   0.001965   0.023650  -0.011415  -0.002384
     3  C   -0.015194   0.004792   0.365877  -0.005281   0.033999   0.010824
     4  C   -0.001985   0.029526  -0.001664   0.355272   0.014196  -0.001089
     5  C   -0.012197  -0.006249   0.021418   0.005445   0.341212  -0.005987
     6  O   -0.032105   0.002439   0.001565  -0.000288  -0.000273  -0.001002
     7  H    0.537143  -0.000912  -0.000749  -0.000328  -0.000319  -0.000129
     8  H   -0.000912   0.459288  -0.000006  -0.004365  -0.000032  -0.000001
     9  H   -0.000749  -0.000006   0.453897  -0.000046  -0.004241  -0.001128
    10  H   -0.000328  -0.004365  -0.000046   0.480801  -0.002144  -0.000002
    11  H   -0.000319  -0.000032  -0.004241  -0.002144   0.480322   0.000032
    12  O   -0.000129  -0.000001  -0.001128  -0.000002   0.000032   7.632555
    13  O    0.000648  -0.000002  -0.001799   0.000000  -0.000054   0.333941
             13
     1  C    0.003386
     2  C    0.004620
     3  C    0.006672
     4  C   -0.002831
     5  C    0.001738
     6  O   -0.000772
     7  H    0.000648
     8  H   -0.000002
     9  H   -0.001799
    10  H    0.000000
    11  H   -0.000054
    12  O    0.333941
    13  O    7.649022
 Mulliken atomic charges:
              1
     1  C   -0.268800
     2  C   -0.092669
     3  C    0.016404
     4  C   -0.096990
     5  C   -0.196286
     6  O   -0.145902
     7  H    0.163357
     8  H    0.153552
     9  H    0.160573
    10  H    0.139769
    11  H    0.140520
    12  O    0.021041
    13  O    0.005431
 Sum of Mulliken atomic charges =   0.00000
 Mulliken charges with hydrogens summed into heavy atoms:
              1
     1  C   -0.105443
     2  C    0.060883
     3  C    0.176977
     4  C    0.042779
     5  C   -0.055766
     6  O   -0.145902
    12  O    0.021041
    13  O    0.005431
 Sum of Mulliken charges with hydrogens summed into heavy atoms =   0.00000
          Atomic-Atomic Spin Densities.
              1          2          3          4          5          6
     1  C    0.338541  -0.224160  -0.234014   0.011154   0.069762  -0.039911
     2  C   -0.224160   0.157073   0.136454  -0.007181  -0.027148   0.009311
     3  C   -0.234014   0.136454   0.180470   0.007901  -0.060973   0.005458
     4  C    0.011154  -0.007181   0.007901   0.008356  -0.023120  -0.001774
     5  C    0.069762  -0.027148  -0.060973  -0.023120   0.045548  -0.001050
     6  O   -0.039911   0.009311   0.005458  -0.001774  -0.001050   0.941732
     7  H    0.095438  -0.047436  -0.039774   0.005668   0.003141  -0.030246
     8  H    0.002664  -0.003117  -0.000237   0.001454  -0.000022   0.000316
     9  H   -0.003041   0.001277   0.006382  -0.000589  -0.002407   0.000523
    10  H   -0.004231   0.002299   0.002241   0.000342  -0.000824  -0.000040
    11  H   -0.003724   0.002362   0.000876  -0.001065   0.001426  -0.000034
    12  O    0.017073  -0.006746  -0.009566   0.000273   0.002014  -0.000445
    13  O    0.000884   0.001768  -0.009713  -0.000635   0.006541   0.000241
              7          8          9         10         11         12
     1  C    0.095438   0.002664  -0.003041  -0.004231  -0.003724   0.017073
     2  C   -0.047436  -0.003117   0.001277   0.002299   0.002362  -0.006746
     3  C   -0.039774  -0.000237   0.006382   0.002241   0.000876  -0.009566
     4  C    0.005668   0.001454  -0.000589   0.000342  -0.001065   0.000273
     5  C    0.003141  -0.000022  -0.002407  -0.000824   0.001426   0.002014
     6  O   -0.030246   0.000316   0.000523  -0.000040  -0.000034  -0.000445
     7  H    0.110721  -0.000618  -0.000502  -0.000138  -0.000122  -0.001318
     8  H   -0.000618  -0.000223  -0.000004   0.000074   0.000004   0.000003
     9  H   -0.000502  -0.000004  -0.004536   0.000007   0.000082   0.000529
    10  H   -0.000138   0.000074   0.000007   0.002401   0.000128  -0.000002
    11  H   -0.000122   0.000004   0.000082   0.000128   0.001942  -0.000028
    12  O   -0.001318   0.000003   0.000529  -0.000002  -0.000028   1.431672
    13  O   -0.001351  -0.000001   0.001108   0.000001   0.000026  -0.435653
             13
     1  C    0.000884
     2  C    0.001768
     3  C   -0.009713
     4  C   -0.000635
     5  C    0.006541
     6  O    0.000241
     7  H   -0.001351
     8  H   -0.000001
     9  H    0.001108
    10  H    0.000001
    11  H    0.000026
    12  O   -0.435653
    13  O    1.437822
 Mulliken atomic spin densities:
              1
     1  C    0.026433
     2  C   -0.005245
     3  C   -0.014494
     4  C    0.000785
     5  C    0.012887
     6  O    0.884080
     7  H    0.093463
     8  H    0.000292
     9  H   -0.001171
    10  H    0.002258
    11  H    0.001872
    12  O    0.997805
    13  O    1.001035
 Sum of Mulliken atomic spin densities =   3.00000
 Electronic spatial extent (au):  <R**2>=           1226.5966
 Charge=              0.0000 electrons
 Dipole moment (field-independent basis, Debye):
    X=              0.2503    Y=             -1.9441    Z=              0.8297  Tot=              2.1285
 Quadrupole moment (field-independent basis, Debye-Ang):
   XX=            -43.7717   YY=            -48.2290   ZZ=            -45.1782
   XY=              3.2189   XZ=             -2.2249   YZ=              3.1914
 Traceless Quadrupole moment (field-independent basis, Debye-Ang):
   XX=              1.9546   YY=             -2.5027   ZZ=              0.5481
   XY=              3.2189   XZ=             -2.2249   YZ=              3.1914
 Octapole moment (field-independent basis, Debye-Ang**2):
  XXX=             26.7495  YYY=            -13.1340  ZZZ=              1.1075  XYY=              7.7380
  XXY=             -3.0152  XXZ=              6.8772  XZZ=              8.9891  YZZ=              2.5014
  YYZ=              1.9523  XYZ=             -0.5465
 Hexadecapole moment (field-independent basis, Debye-Ang**3):
 XXXX=           -960.0044 YYYY=           -363.9568 ZZZZ=           -174.8867 XXXY=             -0.5594
 XXXZ=             -9.6049 YYYX=             11.8393 YYYZ=              8.8413 ZZZX=              0.6026
 ZZZY=              0.7060 XXYY=           -209.5375 XXZZ=           -187.8186 YYZZ=            -84.1660
 XXYZ=             -0.6356 YYXZ=              0.8922 ZZXY=             -6.3574
 N-N= 3.219263369192D+02 E-N=-2.410567717337D+03  KE= 6.215464439851D+02
                          Isotropic Fermi Contact Couplings
        Atom                 a.u.       MegaHertz       Gauss      10(-4) cm-1
     1  C(13)             -0.03153     -11.81428      -4.21563      -3.94082
     2  C(13)              0.01779       6.66679       2.37888       2.22380
     3  C(13)              0.01496       5.60743       2.00087       1.87044
     4  C(13)              0.00340       1.27281       0.45417       0.42456
     5  C(13)              0.00367       1.37372       0.49018       0.45822
     6  O(17)              0.13271     -26.81655      -9.56881      -8.94504
     7  H(1)               0.05332      79.44117      28.34658      26.49872
     8  H(1)              -0.00033      -0.49343      -0.17607      -0.16459
     9  H(1)              -0.00013      -0.19714      -0.07034      -0.06576
    10  H(1)               0.00126       1.87210       0.66801       0.62446
    11  H(1)               0.00111       1.64857       0.58825       0.54990
    12  O(17)              0.18806     -37.99953     -13.55918     -12.67528
    13  O(17)              0.18503     -37.38738     -13.34075     -12.47109
 --------------------------------------------------------
       Center         ----  Spin Dipole Couplings  ----
                      3XX-RR        3YY-RR        3ZZ-RR
 --------------------------------------------------------
     1   Atom        0.000211      0.023326     -0.023537
     2   Atom        0.006318     -0.002142     -0.004176
     3   Atom       -0.006771      0.020882     -0.014111
     4   Atom       -0.001770      0.007549     -0.005779
     5   Atom       -0.000304      0.010277     -0.009973
     6   Atom        1.452831     -1.515829      0.062998
     7   Atom        0.011888     -0.005537     -0.006352
     8   Atom        0.003630     -0.005021      0.001391
     9   Atom        0.007773     -0.006310     -0.001463
    10   Atom        0.002275      0.000711     -0.002986
    11   Atom        0.001073      0.002046     -0.003118
    12   Atom        1.226849      0.626174     -1.853024
    13   Atom        1.232862      0.621796     -1.854658
 --------------------------------------------------------
                        XY            XZ            YZ
 --------------------------------------------------------
     1   Atom        0.008996      0.031161     -0.014161
     2   Atom        0.021380     -0.021148     -0.024465
     3   Atom       -0.012314      0.000480      0.018950
     4   Atom        0.006882     -0.006203     -0.003941
     5   Atom        0.002459     -0.001747      0.001280
     6   Atom        0.906665      2.408322      0.695834
     7   Atom       -0.017547      0.013177     -0.012395
     8   Atom        0.002025     -0.009094     -0.003279
     9   Atom       -0.003971      0.007537      0.006299
    10   Atom        0.003109     -0.001012     -0.000992
    11   Atom        0.003583      0.001992      0.002072
    12   Atom       -0.188865      0.413373      1.437000
    13   Atom       -0.192601      0.407613      1.438623
 --------------------------------------------------------


 ---------------------------------------------------------------------------------
              Anisotropic Spin Dipole Couplings in Principal Axis System
 ---------------------------------------------------------------------------------

       Atom             a.u.   MegaHertz   Gauss  10(-4) cm-1        Axes

              Baa    -0.0489    -6.562    -2.342    -2.189 -0.5511  0.2261  0.8032
     1 C(13)  Bbb     0.0216     2.901     1.035     0.968  0.8336  0.1053  0.5423
              Bcc     0.0273     3.661     1.306     1.221  0.0381  0.9684 -0.2465
 
              Baa    -0.0277    -3.712    -1.324    -1.238  0.0296  0.6787  0.7338
     2 C(13)  Bbb    -0.0172    -2.302    -0.821    -0.768  0.7875 -0.4680  0.4011
              Bcc     0.0448     6.014     2.146     2.006  0.6156  0.5660 -0.5484
 
              Baa    -0.0243    -3.261    -1.164    -1.088 -0.3321 -0.4403  0.8342
     3 C(13)  Bbb    -0.0081    -1.081    -0.386    -0.361  0.9020  0.1105  0.4174
              Bcc     0.0324     4.343     1.550     1.449 -0.2760  0.8910  0.3605
 
              Baa    -0.0103    -1.389    -0.496    -0.463  0.6186 -0.0655  0.7830
     4 C(13)  Bbb    -0.0031    -0.410    -0.146    -0.137  0.6080 -0.5913 -0.5298
              Bcc     0.0134     1.799     0.642     0.600  0.4977  0.8038 -0.3260
 
              Baa    -0.0104    -1.398    -0.499    -0.466  0.1891 -0.0830  0.9784
     5 C(13)  Bbb    -0.0004    -0.059    -0.021    -0.020  0.9595 -0.1961 -0.2021
              Bcc     0.0109     1.457     0.520     0.486  0.2086  0.9771  0.0426
 
              Baa    -1.7788   128.715    45.929    42.935  0.0354  0.9187 -0.3934
     6 O(17)  Bbb    -1.7448   126.255    45.051    42.114 -0.6259  0.3273  0.7079
              Bcc     3.5237  -254.970   -90.980   -85.049  0.7791  0.2212  0.5866
 
              Baa    -0.0190   -10.115    -3.609    -3.374  0.2149  0.7993  0.5612
     7 H(1)   Bbb    -0.0122    -6.531    -2.330    -2.179 -0.6255 -0.3287  0.7076
              Bcc     0.0312    16.646     5.940     5.553  0.7501 -0.5031  0.4293
 
              Baa    -0.0074    -3.948    -1.409    -1.317  0.4671  0.5533  0.6897
     8 H(1)   Bbb    -0.0051    -2.698    -0.963    -0.900 -0.5066  0.8068 -0.3042
              Bcc     0.0125     6.645     2.371     2.217  0.7247  0.2073 -0.6571
 
              Baa    -0.0134    -7.172    -2.559    -2.392  0.3477  0.7219 -0.5983
     9 H(1)   Bbb     0.0014     0.768     0.274     0.256 -0.3307  0.6915  0.6422
              Bcc     0.0120     6.405     2.285     2.136  0.8774 -0.0254  0.4791
 
              Baa    -0.0033    -1.735    -0.619    -0.579  0.0742  0.1870  0.9795
    10 H(1)   Bbb    -0.0017    -0.906    -0.323    -0.302 -0.6289  0.7711 -0.0996
              Bcc     0.0049     2.641     0.942     0.881  0.7739  0.6087 -0.1748
 
              Baa    -0.0040    -2.147    -0.766    -0.716 -0.2455 -0.1803  0.9525
    11 H(1)   Bbb    -0.0020    -1.093    -0.390    -0.365  0.7353 -0.6749  0.0618
              Bcc     0.0061     3.240     1.156     1.081  0.6317  0.7156  0.2982
 
              Baa    -2.5657   185.650    66.245    61.926 -0.1190 -0.4135  0.9027
    12 O(17)  Bbb     1.2813   -92.711   -33.081   -30.925  0.9837 -0.1724  0.0507
              Bcc     1.2844   -92.939   -33.163   -31.001  0.1347  0.8940  0.4272
 
              Baa    -2.5680   185.820    66.305    61.983 -0.1178 -0.4142  0.9025
    13 O(17)  Bbb     1.2784   -92.505   -33.008   -30.856  0.5369  0.7381  0.4087
              Bcc     1.2896   -93.314   -33.297   -31.126  0.8354 -0.5327 -0.1354
 

 ---------------------------------------------------------------------------------



 ...THE PHYSICISTS HAVE MADE THEIR UNIVERSE, AND IF YOU DO NOT LIKE
 IT, YOU MUST MAKE YOUR OWN.
                               -- E. R. HARRISON IN "COSMOLOGY" (1980)
 Error termination request processed by link 9999.
 Error termination via Lnk1e in /shared/apps/gaussian/G09_LINUX_LINDA/g09/l9999.exe at Mon Aug 21 06:22:35 2017.
 Job cpu time:  4 days  9 hours 45 minutes 40.8 seconds.
 File lengths (MBytes):  RWF=   2544 Int=      0 D2E=      0 Chk=     32 Scr=     32
