 Entering Gaussian System, Link 0=/shared/apps/gaussian/G09_LINUX_LINDA/g09/g09
 Input=/gss_gpfs_scratch/harms.n/QMscratch/[O]CC1C=CC=CC=1+[O]O_OO+[O][CH]C1C=CC=CC=1IRC.gjf
 Output=/gss_gpfs_scratch/harms.n/QMscratch/[O]CC1C=CC=CC=1+[O]O_OO+[O][CH]C1C=CC=CC=1IRC.log
 Initial command:
 /shared/apps/gaussian/G09_LINUX_LINDA/g09/l1.exe /gss_gpfs_scratch/harms.n/comparerTST/Gau-40740.inp -scrdir=/gss_gpfs_scratch/harms.n/comparerTST/
 Entering Link 1 = /shared/apps/gaussian/G09_LINUX_LINDA/g09/l1.exe PID=     40741.
  
 Copyright (c) 1988,1990,1992,1993,1995,1998,2003,2009,2010,
            Gaussian, Inc.  All Rights Reserved.
  
 This is part of the Gaussian(R) 09 program.  It is based on
 the Gaussian(R) 03 system (copyright 2003, Gaussian, Inc.),
 the Gaussian(R) 98 system (copyright 1998, Gaussian, Inc.),
 the Gaussian(R) 94 system (copyright 1995, Gaussian, Inc.),
 the Gaussian 92(TM) system (copyright 1992, Gaussian, Inc.),
 the Gaussian 90(TM) system (copyright 1990, Gaussian, Inc.),
 the Gaussian 88(TM) system (copyright 1988, Gaussian, Inc.),
 the Gaussian 86(TM) system (copyright 1986, Carnegie Mellon
 University), and the Gaussian 82(TM) system (copyright 1983,
 Carnegie Mellon University). Gaussian is a federally registered
 trademark of Gaussian, Inc.
  
 This software contains proprietary and confidential information,
 including trade secrets, belonging to Gaussian, Inc.
  
 This software is provided under written license and may be
 used, copied, transmitted, or stored only in accord with that
 written license.
  
 The following legend is applicable only to US Government
 contracts under FAR:
  
                    RESTRICTED RIGHTS LEGEND
  
 Use, reproduction and disclosure by the US Government is
 subject to restrictions as set forth in subparagraphs (a)
 and (c) of the Commercial Computer Software - Restricted
 Rights clause in FAR 52.227-19.
  
 Gaussian, Inc.
 340 Quinnipiac St., Bldg. 40, Wallingford CT 06492
  
  
 ---------------------------------------------------------------
 Warning -- This program may not be used in any manner that
 competes with the business of Gaussian, Inc. or will provide
 assistance to any competitor of Gaussian, Inc.  The licensee
 of this program is prohibited from giving any competitor of
 Gaussian, Inc. access to this program.  By using this program,
 the user acknowledges that Gaussian, Inc. is engaged in the
 business of creating and licensing software in the field of
 computational chemistry and represents and warrants to the
 licensee that it is not a competitor of Gaussian, Inc. and that
 it will not use this program in any manner prohibited above.
 ---------------------------------------------------------------
  

 Cite this work as:
 Gaussian 09, Revision B.01,
 M. J. Frisch, G. W. Trucks, H. B. Schlegel, G. E. Scuseria, 
 M. A. Robb, J. R. Cheeseman, G. Scalmani, V. Barone, B. Mennucci, 
 G. A. Petersson, H. Nakatsuji, M. Caricato, X. Li, H. P. Hratchian, 
 A. F. Izmaylov, J. Bloino, G. Zheng, J. L. Sonnenberg, M. Hada, 
 M. Ehara, K. Toyota, R. Fukuda, J. Hasegawa, M. Ishida, T. Nakajima, 
 Y. Honda, O. Kitao, H. Nakai, T. Vreven, J. A. Montgomery, Jr., 
 J. E. Peralta, F. Ogliaro, M. Bearpark, J. J. Heyd, E. Brothers, 
 K. N. Kudin, V. N. Staroverov, T. Keith, R. Kobayashi, J. Normand, 
 K. Raghavachari, A. Rendell, J. C. Burant, S. S. Iyengar, J. Tomasi, 
 M. Cossi, N. Rega, J. M. Millam, M. Klene, J. E. Knox, J. B. Cross, 
 V. Bakken, C. Adamo, J. Jaramillo, R. Gomperts, R. E. Stratmann, 
 O. Yazyev, A. J. Austin, R. Cammi, C. Pomelli, J. W. Ochterski, 
 R. L. Martin, K. Morokuma, V. G. Zakrzewski, G. A. Voth, 
 P. Salvador, J. J. Dannenberg, S. Dapprich, A. D. Daniels, 
 O. Farkas, J. B. Foresman, J. V. Ortiz, J. Cioslowski, 
 and D. J. Fox, Gaussian, Inc., Wallingford CT, 2010.
 
 ******************************************
 Gaussian 09:  EM64L-G09RevB.01 12-Aug-2010
                30-Sep-2017 
 ******************************************
 %nprocshared=20
 Will use up to   20 processors via shared memory.
 %mem=5GB
 %chk=/gss_gpfs_scratch/harms.n/QMscratch/[O]CC1C=CC=CC=1+[O]O_OO+[O][CH]C1C=CC=C
 C=1
 ----------------------------------------------------------------------
 # m062x/6-311+g(2df,2p) irc=(calcall,report=read) geom=allcheck guess=
 check nosymm
 ----------------------------------------------------------------------
 1/10=4,14=-1,18=10,26=3,29=7,38=1,44=3,71=1,129=1/1,23;
 2/12=2,15=1,29=1,40=1/2;
 3/5=4,6=6,7=214,11=2,14=-4,16=1,25=1,30=1,71=2,74=-55,116=-2/1,2,3;
 4/5=1/1;
 5/5=2,38=6/2;
 8/6=4,10=90,11=11/1;
 11/6=1,8=1,9=11,15=111,16=1,31=1/1,2,10;
 10/6=1,31=1/2;
 6/7=2,8=2,9=2,10=2,18=1,28=1/1;
 7/10=1,25=1,30=1/1,2,3,16;
 1/10=4,14=-1,18=10,44=3,71=1,129=1/23(3);
 2/15=1,29=1/2;
 7/8=1,9=1,25=1,30=1,44=-1/16;
 99/5=20/99;
 2/15=1,29=1/2;
 3/5=4,6=6,7=214,11=2,14=-2,16=1,25=1,30=1,71=2,74=-55/1,2,3;
 4/5=5,16=3/1;
 5/5=2,38=5/2;
 8/6=4,10=90,11=11/1;
 11/6=1,8=1,9=11,15=111,16=1,31=1/1,2,10;
 10/6=1,31=1/2;
 7/10=1,25=1,30=1/1,2,3,16;
 1/10=4,14=-1,18=10,44=3,71=1,129=1/23(-8);
 2/15=1,29=1/2;
 6/7=2,8=2,9=2,10=2,18=1,19=2,28=1/1;
 7/8=1,9=1,25=1,30=1,44=-1/16;
 99/5=20/99;
 ------------------------------------------
 [O]CC1C=CC=CC=1+[O]O_OO+[O][CH]C1C=CC=CC=1
 ------------------------------------------
 Redundant internal coordinates taken from checkpoint file:
 /gss_gpfs_scratch/harms.n/QMscratch/[O]CC1C=CC=CC=1+[O]O_OO+[O][CH]C1C=CC=CC=1.chk
 Charge =  0 Multiplicity = 3
 C,0,-1.0331450144,0.0852214762,0.23890931
 C,0,0.4723381518,0.0195250039,0.1400971072
 C,0,1.1295136124,-1.1217520167,0.592157785
 C,0,1.2152882216,1.0638709457,-0.3914657805
 C,0,2.5083593385,-1.2223577754,0.5065795619
 C,0,3.2491068139,-0.1755995899,-0.0301140675
 C,0,2.5994649998,0.9647110401,-0.4757939805
 O,0,-1.5339259594,1.363194518,-0.0951294975
 H,0,-1.46767979,-0.6832775388,-0.4074924218
 H,0,-1.3326907863,-0.1546383624,1.2639376246
 H,0,0.5544146562,-1.9369301999,1.0170594861
 H,0,3.0075522313,-2.11434702,0.8605471494
 H,0,4.3259605805,-0.2500077563,-0.0956332226
 H,0,3.1705592887,1.7850328567,-0.889830247
 H,0,0.7033712721,1.9539928122,-0.7280750193
 O,0,-4.2075992258,-0.0833696086,-0.0626450679
 O,0,-4.1144161176,-0.2165912401,1.1146414116
 H,0,-2.1712772732,1.2855654553,-0.804056131
 Recover connectivity data from disk.
 IRC-IRC-IRC-IRC-IRC-IRC-IRC-IRC-IRC-IRC-IRC-IRC-IRC-IRC-IRC-IRC-IRC-IRC
 Reading IRC summary table definitions from input file.
 ------------------------------------------------------------------------
 INPUT DATA FOR L123
 ------------------------------------------------------------------------
 GENERAL PARAMETERS:
 Follow reaction path in both directions.
 Maximum points per path      =  10
 Step size                    =   0.100 bohr
 Integration scheme           = HPC                                 
    Redo corrector integration= Yes                                 
    Max correction cycles     =  20
 Initial Hessian              = CalcFC
 Hessian evaluation           = Full Hessian always
 ------------------------------------------------------------------------
 IRC-IRC-IRC-IRC-IRC-IRC-IRC-IRC-IRC-IRC-IRC-IRC-IRC-IRC-IRC-IRC-IRC-IRC
                          Input orientation:                          
 ---------------------------------------------------------------------
 Center     Atomic      Atomic             Coordinates (Angstroms)
 Number     Number       Type             X           Y           Z
 ---------------------------------------------------------------------
      1          6           0       -1.033145    0.085221    0.238909
      2          6           0        0.472338    0.019525    0.140097
      3          6           0        1.129514   -1.121752    0.592158
      4          6           0        1.215288    1.063871   -0.391466
      5          6           0        2.508359   -1.222358    0.506580
      6          6           0        3.249107   -0.175600   -0.030114
      7          6           0        2.599465    0.964711   -0.475794
      8          8           0       -1.533926    1.363195   -0.095129
      9          1           0       -1.467680   -0.683278   -0.407492
     10          1           0       -1.332691   -0.154638    1.263938
     11          1           0        0.554415   -1.936930    1.017059
     12          1           0        3.007552   -2.114347    0.860547
     13          1           0        4.325961   -0.250008   -0.095633
     14          1           0        3.170559    1.785033   -0.889830
     15          1           0        0.703371    1.953993   -0.728075
     16          8           0       -4.207599   -0.083370   -0.062645
     17          8           0       -4.114416   -0.216591    1.114641
     18          1           0       -2.171277    1.285565   -0.804056
 ---------------------------------------------------------------------
                    Distance matrix (angstroms):
                    1          2          3          4          5
     1  C    0.000000
     2  C    1.510152   0.000000
     3  C    2.501732   1.392391   0.000000
     4  C    2.531912   1.387513   2.398295   0.000000
     5  C    3.784662   2.412875   1.385157   2.775853   0.000000
     6  C    4.298614   2.788815   2.403144   2.409000   1.390126
     7  C    3.805280   2.407772   2.766696   1.390284   2.399297
     8  O    1.412649   2.426082   3.706917   2.781293   4.836032
     9  H    1.094188   2.134820   2.817264   3.201734   4.115218
    10  H    1.094506   2.133420   2.729294   3.273732   4.057990
    11  H    2.686068   2.145581   1.084341   3.380163   2.142219
    12  H    4.642388   3.391131   2.141099   3.857566   1.081726
    13  H    5.379992   3.870223   3.383824   3.389702   2.147510
    14  H    4.672745   3.384991   3.848578   2.142785   3.381252
    15  H    2.728159   2.132901   3.374140   1.080593   3.856366
    16  O    3.193199   4.685457   5.476475   5.552656   6.835599
    17  O    3.217488   4.695083   5.347065   5.684513   6.726252
    18  H    1.955492   3.079446   4.317385   3.418802   5.468678
                    6          7          8          9         10
     6  C    0.000000
     7  C    1.385992   0.000000
     8  O    5.024890   4.169966   0.000000
     9  H    4.759015   4.388872   2.071233   0.000000
    10  H    4.761080   4.443136   2.047285   1.758226   0.000000
    11  H    3.385295   3.851021   4.060659   2.773060   2.607428
    12  H    2.147177   3.381263   5.799279   4.866578   4.779215
    13  H    1.081408   2.144959   6.077885   5.818183   5.820469
    14  H    2.142279   1.081898   4.789747   5.276217   5.355399
    15  H    3.391619   2.153485   2.398992   3.430952   3.544007
    16  O    7.457347   6.899659   3.040087   2.825945   3.167017
    17  O    7.452088   7.000083   3.258558   3.088673   2.786418
    18  H    5.666970   4.792774   0.956462   2.128064   2.655939
                   11         12         13         14         15
    11  H    0.000000
    12  H    2.464520   0.000000
    13  H    4.278826   2.475529   0.000000
    14  H    4.932895   4.277330   2.471253   0.000000
    15  H    4.266962   4.938052   4.287278   2.478251   0.000000
    16  O    5.222856   7.552189   8.535250   7.655873   5.358290
    17  O    4.976652   7.374854   8.526772   7.816346   5.596259
    18  H    4.596775   6.414872   6.713713   5.365822   2.952316
                   16         17         18
    16  O    0.000000
    17  O    1.188459   0.000000
    18  H    2.563256   3.116675   0.000000
 Symmetry turned off by external request.
 Stoichiometry    C7H8O3(3)
 Framework group  C1[X(C7H8O3)]
 Deg. of freedom    48
 Full point group                 C1      NOp   1
 Rotational constants (GHZ):      3.7389124      0.5152748      0.4618831
 Standard basis: 6-311+G(2df,2p) (5D, 7F)
 Integral buffers will be    131072 words long.
 Raffenetti 2 integral format.
 Two-electron integral symmetry is turned off.
   412 basis functions,   608 primitive gaussians,   462 cartesian basis functions
    38 alpha electrons       36 beta electrons
       nuclear repulsion energy       473.9829455594 Hartrees.
 NAtoms=   18 NActive=   18 NUniq=   18 SFac= 1.00D+00 NAtFMM=   50 NAOKFM=F Big=F
 One-electron integrals computed using PRISM.
 NBasis=   412 RedAO= T  NBF=   412
 NBsUse=   412 1.00D-06 NBFU=   412
 Initial guess read from the checkpoint file:  /gss_gpfs_scratch/harms.n/QMscratch/[O]CC1C=CC=CC=1+[O]O_OO+[O][CH]C1C=CC=CC=1.chk
 B after Tr=    -0.286313    0.155085    0.289935
         Rot=    0.034479    0.008858    0.975705   -0.216176 Ang= 176.05 deg.
 Initial guess <Sx>= 0.0000 <Sy>= 0.0000 <Sz>= 1.0000 <S**2>= 2.0125 S= 1.0041
 Requested convergence on RMS density matrix=1.00D-08 within 128 cycles.
 Requested convergence on MAX density matrix=1.00D-06.
 Requested convergence on             energy=1.00D-06.
 No special actions if energy rises.
 SCF Done:  E(UM062X) =  -497.059964349     A.U. after    9 cycles
             Convg  =    0.4940D-08             -V/T =  2.0034
 <Sx>= 0.0000 <Sy>= 0.0000 <Sz>= 1.0000 <S**2>= 2.0125 S= 1.0042
 <L.S>= 0.000000000000E+00
 Annihilation of the first spin contaminant:
 S**2 before annihilation     2.0125,   after     2.0001
 Range of M.O.s used for correlation:     1   412
 NBasis=   412 NAE=    38 NBE=    36 NFC=     0 NFV=     0
 NROrb=    412 NOA=    38 NOB=    36 NVA=   374 NVB=   376

 **** Warning!!: The largest alpha MO coefficient is  0.18607565D+03


 **** Warning!!: The largest beta MO coefficient is  0.16809510D+03

 Symmetrizing basis deriv contribution to polar:
 IMax=3 JMax=2 DiffMx= 0.00D+00
 G2DrvN: will do    19 centers at a time, making    1 passes doing MaxLOS=3.
 Calling FoFCou, ICntrl=  3107 FMM=F I1Cent=   0 AccDes= 0.00D+00.
 FoFDir/FoFCou used for L=0 through L=3.
 End of G2Drv Frequency-dependent properties file   721 does not exist.
 End of G2Drv Frequency-dependent properties file   722 does not exist.
          IDoAtm=111111111111111111
          Differentiating once with respect to electric field.
                with respect to dipole field.
          Differentiating once with respect to nuclear coordinates.
          There are    57 degrees of freedom in the 1st order CPHF.  IDoFFX=5.
     54 vectors produced by pass  0 Test12= 4.87D-14 1.75D-09 XBig12= 1.40D+02 2.94D+00.
 AX will form    54 AO Fock derivatives at one time.
     54 vectors produced by pass  1 Test12= 4.87D-14 1.75D-09 XBig12= 1.82D+01 1.12D+00.
     54 vectors produced by pass  2 Test12= 4.87D-14 1.75D-09 XBig12= 1.92D+00 3.18D-01.
     54 vectors produced by pass  3 Test12= 4.87D-14 1.75D-09 XBig12= 3.79D-02 4.87D-02.
     54 vectors produced by pass  4 Test12= 4.87D-14 1.75D-09 XBig12= 4.24D-04 3.89D-03.
     54 vectors produced by pass  5 Test12= 4.87D-14 1.75D-09 XBig12= 5.99D-06 3.93D-04.
     54 vectors produced by pass  6 Test12= 4.87D-14 1.75D-09 XBig12= 6.14D-08 2.51D-05.
     24 vectors produced by pass  7 Test12= 4.87D-14 1.75D-09 XBig12= 4.38D-10 2.01D-06.
      6 vectors produced by pass  8 Test12= 4.87D-14 1.75D-09 XBig12= 6.53D-12 3.01D-07.
      6 vectors produced by pass  9 Test12= 4.87D-14 1.75D-09 XBig12= 5.32D-13 9.02D-08.
      6 vectors produced by pass 10 Test12= 4.87D-14 1.75D-09 XBig12= 1.60D-13 4.50D-08.
      6 vectors produced by pass 11 Test12= 4.87D-14 1.75D-09 XBig12= 1.25D-14 1.10D-08.
      6 vectors produced by pass 12 Test12= 4.87D-14 1.75D-09 XBig12= 2.03D-14 1.46D-08.
      6 vectors produced by pass 13 Test12= 4.87D-14 1.75D-09 XBig12= 2.53D-15 5.17D-09.
      6 vectors produced by pass 14 Test12= 4.87D-14 1.75D-09 XBig12= 2.52D-15 5.58D-09.
      6 vectors produced by pass 15 Test12= 4.87D-14 1.75D-09 XBig12= 2.57D-15 4.89D-09.
      6 vectors produced by pass 16 Test12= 4.87D-14 1.75D-09 XBig12= 1.90D-15 4.32D-09.
      6 vectors produced by pass 17 Test12= 4.87D-14 1.75D-09 XBig12= 2.54D-15 4.70D-09.
      6 vectors produced by pass 18 Test12= 4.87D-14 1.75D-09 XBig12= 1.10D-15 3.61D-09.
      6 vectors produced by pass 19 Test12= 4.87D-14 1.75D-09 XBig12= 1.22D-15 4.09D-09.
      6 vectors produced by pass 20 Test12= 4.87D-14 1.75D-09 XBig12= 1.05D-15 3.39D-09.
      6 vectors produced by pass 21 Test12= 4.87D-14 1.75D-09 XBig12= 1.36D-15 3.35D-09.
      5 vectors produced by pass 22 Test12= 4.87D-14 1.75D-09 XBig12= 8.20D-16 2.95D-09.
      4 vectors produced by pass 23 Test12= 4.87D-14 1.75D-09 XBig12= 8.52D-16 2.79D-09.
      4 vectors produced by pass 24 Test12= 4.87D-14 1.75D-09 XBig12= 8.79D-16 4.21D-09.
      4 vectors produced by pass 25 Test12= 4.87D-14 1.75D-09 XBig12= 6.82D-16 2.78D-09.
      4 vectors produced by pass 26 Test12= 4.87D-14 1.75D-09 XBig12= 7.10D-16 2.89D-09.
      3 vectors produced by pass 27 Test12= 4.87D-14 1.75D-09 XBig12= 5.45D-16 2.45D-09.
      3 vectors produced by pass 28 Test12= 4.87D-14 1.75D-09 XBig12= 6.04D-16 3.21D-09.
      3 vectors produced by pass 29 Test12= 4.87D-14 1.75D-09 XBig12= 6.24D-16 2.57D-09.
      1 vectors produced by pass 30 Test12= 4.87D-14 1.75D-09 XBig12= 6.16D-16 2.10D-09.
 Inverted reduced A of dimension   517 with in-core refinement.
 Isotropic polarizability for W=    0.000000       92.58 Bohr**3.
 End of Minotr Frequency-dependent properties file   721 does not exist.
 End of Minotr Frequency-dependent properties file   722 does not exist.

 **********************************************************************

            Population analysis using the SCF density.

 **********************************************************************

 Alpha  occ. eigenvalues --  -19.79901 -19.79774 -19.62979 -10.59357 -10.54653
 Alpha  occ. eigenvalues --  -10.54048 -10.53931 -10.53843 -10.53692 -10.53400
 Alpha  occ. eigenvalues --   -1.47475  -1.15622  -0.97235  -0.96373  -0.86693
 Alpha  occ. eigenvalues --   -0.84194  -0.77265  -0.69325  -0.68994  -0.68889
 Alpha  occ. eigenvalues --   -0.66603  -0.66013  -0.60188  -0.59342  -0.53946
 Alpha  occ. eigenvalues --   -0.52659  -0.49920  -0.49548  -0.48461  -0.44425
 Alpha  occ. eigenvalues --   -0.42201  -0.40912  -0.40757  -0.40545  -0.39807
 Alpha  occ. eigenvalues --   -0.36311  -0.30745  -0.29772
 Alpha virt. eigenvalues --    0.00912   0.01516   0.01923   0.02398   0.02652
 Alpha virt. eigenvalues --    0.04007   0.04643   0.04833   0.06897   0.07200
 Alpha virt. eigenvalues --    0.07869   0.08112   0.09684   0.10183   0.10921
 Alpha virt. eigenvalues --    0.12697   0.13555   0.13878   0.14031   0.15084
 Alpha virt. eigenvalues --    0.15560   0.15653   0.16429   0.17519   0.17767
 Alpha virt. eigenvalues --    0.18575   0.18825   0.19209   0.20156   0.20607
 Alpha virt. eigenvalues --    0.20706   0.21869   0.21997   0.22564   0.23814
 Alpha virt. eigenvalues --    0.23971   0.24597   0.24726   0.24927   0.25184
 Alpha virt. eigenvalues --    0.26227   0.27113   0.27648   0.28391   0.28780
 Alpha virt. eigenvalues --    0.28950   0.30254   0.31687   0.32711   0.33411
 Alpha virt. eigenvalues --    0.35378   0.35709   0.36334   0.36753   0.37510
 Alpha virt. eigenvalues --    0.40338   0.41710   0.44942   0.47014   0.47495
 Alpha virt. eigenvalues --    0.50998   0.51675   0.53754   0.54208   0.55496
 Alpha virt. eigenvalues --    0.55683   0.56407   0.56656   0.57050   0.57593
 Alpha virt. eigenvalues --    0.60263   0.60928   0.62876   0.63385   0.63926
 Alpha virt. eigenvalues --    0.64627   0.65662   0.66790   0.67637   0.68048
 Alpha virt. eigenvalues --    0.68855   0.69310   0.69595   0.70129   0.70889
 Alpha virt. eigenvalues --    0.72258   0.73102   0.73251   0.74692   0.76060
 Alpha virt. eigenvalues --    0.78627   0.80101   0.80321   0.81082   0.83344
 Alpha virt. eigenvalues --    0.85130   0.85706   0.87249   0.88849   0.91828
 Alpha virt. eigenvalues --    0.92348   0.94163   0.96665   0.97804   0.99350
 Alpha virt. eigenvalues --    1.00658   1.00940   1.01471   1.03370   1.04095
 Alpha virt. eigenvalues --    1.04873   1.06402   1.07374   1.07874   1.09179
 Alpha virt. eigenvalues --    1.11367   1.11477   1.12133   1.12830   1.14869
 Alpha virt. eigenvalues --    1.17038   1.17179   1.18810   1.20048   1.21236
 Alpha virt. eigenvalues --    1.23064   1.23917   1.25325   1.25917   1.28552
 Alpha virt. eigenvalues --    1.28986   1.32250   1.33391   1.33914   1.34544
 Alpha virt. eigenvalues --    1.35056   1.35477   1.36332   1.36666   1.37445
 Alpha virt. eigenvalues --    1.38946   1.42285   1.42776   1.43842   1.45158
 Alpha virt. eigenvalues --    1.45731   1.47567   1.48670   1.49475   1.50577
 Alpha virt. eigenvalues --    1.51362   1.53653   1.54360   1.56702   1.58723
 Alpha virt. eigenvalues --    1.60288   1.63090   1.66331   1.68124   1.68672
 Alpha virt. eigenvalues --    1.71438   1.73705   1.73847   1.74773   1.75626
 Alpha virt. eigenvalues --    1.82579   1.83988   1.86140   1.94192   1.99967
 Alpha virt. eigenvalues --    2.03604   2.03801   2.06692   2.11447   2.16842
 Alpha virt. eigenvalues --    2.18581   2.25501   2.28482   2.29015   2.32405
 Alpha virt. eigenvalues --    2.36335   2.46101   2.52457   2.54251   2.55467
 Alpha virt. eigenvalues --    2.56705   2.62385   2.63477   2.67215   2.70804
 Alpha virt. eigenvalues --    2.73866   2.75322   2.75820   2.77979   2.78191
 Alpha virt. eigenvalues --    2.79644   2.80420   2.81406   2.82668   2.84825
 Alpha virt. eigenvalues --    2.85010   2.85941   2.86821   2.88116   2.88671
 Alpha virt. eigenvalues --    2.89707   2.90330   2.90846   2.94797   2.97319
 Alpha virt. eigenvalues --    2.98856   2.99744   3.04686   3.08083   3.11105
 Alpha virt. eigenvalues --    3.11468   3.12637   3.14818   3.16459   3.17764
 Alpha virt. eigenvalues --    3.18688   3.20016   3.21086   3.22054   3.24200
 Alpha virt. eigenvalues --    3.25543   3.25979   3.29620   3.31124   3.32629
 Alpha virt. eigenvalues --    3.33538   3.34483   3.36809   3.37391   3.40478
 Alpha virt. eigenvalues --    3.41827   3.43723   3.44201   3.44368   3.46111
 Alpha virt. eigenvalues --    3.47927   3.51983   3.53785   3.55260   3.56911
 Alpha virt. eigenvalues --    3.59863   3.60423   3.64463   3.66601   3.67886
 Alpha virt. eigenvalues --    3.70737   3.72009   3.73226   3.74598   3.75650
 Alpha virt. eigenvalues --    3.78389   3.79812   3.81903   3.82624   3.83782
 Alpha virt. eigenvalues --    3.85286   3.85644   3.90120   3.91515   3.93427
 Alpha virt. eigenvalues --    3.97592   3.99431   4.01741   4.07345   4.08336
 Alpha virt. eigenvalues --    4.08452   4.09322   4.11055   4.12420   4.15022
 Alpha virt. eigenvalues --    4.16715   4.19860   4.22686   4.26672   4.27914
 Alpha virt. eigenvalues --    4.29648   4.32285   4.34941   4.37781   4.37863
 Alpha virt. eigenvalues --    4.39142   4.41768   4.43349   4.46739   4.47551
 Alpha virt. eigenvalues --    4.47872   4.48067   4.48314   4.48768   4.49571
 Alpha virt. eigenvalues --    4.50080   4.51356   4.52298   4.58002   4.63785
 Alpha virt. eigenvalues --    4.64888   4.68541   4.72877   4.74527   4.78638
 Alpha virt. eigenvalues --    4.80285   4.81002   4.83092   4.88281   4.91209
 Alpha virt. eigenvalues --    4.95200   4.96864   5.02811   5.03173   5.05953
 Alpha virt. eigenvalues --    5.06791   5.07420   5.07450   5.07601   5.09844
 Alpha virt. eigenvalues --    5.11099   5.17705   5.19769   5.22838   5.26638
 Alpha virt. eigenvalues --    5.28196   5.31633   5.36706   5.41574   5.44465
 Alpha virt. eigenvalues --    5.46781   5.58004   5.65019   5.67783   5.67850
 Alpha virt. eigenvalues --    5.68619   5.71637   5.75709   5.79221   5.82164
 Alpha virt. eigenvalues --    5.88030   6.00819   6.19057   6.52079   6.54459
 Alpha virt. eigenvalues --    6.56007   6.64279   6.69019   6.69286   6.73227
 Alpha virt. eigenvalues --    6.73784   6.76742   6.87497   6.88989   6.97905
 Alpha virt. eigenvalues --    7.20492   7.23351   7.23694   7.25048   7.26310
 Alpha virt. eigenvalues --    7.51267   7.65508   7.97298   7.98472  23.89819
 Alpha virt. eigenvalues --   24.50124  24.51712  24.54580  24.75321  24.76925
 Alpha virt. eigenvalues --   25.22318  49.98085  50.10371  50.15560
  Beta  occ. eigenvalues --  -19.77423 -19.77327 -19.62973 -10.59355 -10.54654
  Beta  occ. eigenvalues --  -10.54048 -10.53931 -10.53843 -10.53692 -10.53400
  Beta  occ. eigenvalues --   -1.40362  -1.15606  -0.96372  -0.86716  -0.86496
  Beta  occ. eigenvalues --   -0.84193  -0.77249  -0.69044  -0.66645  -0.61076
  Beta  occ. eigenvalues --   -0.60099  -0.59427  -0.55699  -0.55545  -0.53790
  Beta  occ. eigenvalues --   -0.52594  -0.49849  -0.49511  -0.48449  -0.44406
  Beta  occ. eigenvalues --   -0.42158  -0.40644  -0.39806  -0.36345  -0.30743
  Beta  occ. eigenvalues --   -0.29786
  Beta virt. eigenvalues --   -0.06515  -0.06345   0.00934   0.01542   0.01927
  Beta virt. eigenvalues --    0.02415   0.02656   0.04018   0.04663   0.04839
  Beta virt. eigenvalues --    0.06936   0.07221   0.07883   0.08145   0.09688
  Beta virt. eigenvalues --    0.10221   0.10956   0.12800   0.13628   0.13897
  Beta virt. eigenvalues --    0.14155   0.15216   0.15580   0.15710   0.16484
  Beta virt. eigenvalues --    0.17697   0.17860   0.18613   0.18876   0.19232
  Beta virt. eigenvalues --    0.20249   0.20616   0.20778   0.21874   0.22051
  Beta virt. eigenvalues --    0.22564   0.23914   0.24075   0.24664   0.24742
  Beta virt. eigenvalues --    0.24945   0.25162   0.26279   0.27138   0.27787
  Beta virt. eigenvalues --    0.28398   0.28815   0.29045   0.30407   0.31777
  Beta virt. eigenvalues --    0.32846   0.33394   0.35700   0.36140   0.36269
  Beta virt. eigenvalues --    0.37228   0.38896   0.40396   0.41947   0.44893
  Beta virt. eigenvalues --    0.46994   0.47493   0.51014   0.51665   0.53754
  Beta virt. eigenvalues --    0.54205   0.55381   0.55684   0.56414   0.56666
  Beta virt. eigenvalues --    0.57043   0.57547   0.60253   0.60971   0.62845
  Beta virt. eigenvalues --    0.63377   0.63923   0.64620   0.65661   0.66785
  Beta virt. eigenvalues --    0.67636   0.68044   0.68824   0.69316   0.69589
  Beta virt. eigenvalues --    0.70129   0.70899   0.72263   0.73104   0.73274
  Beta virt. eigenvalues --    0.74688   0.76074   0.78637   0.80103   0.80327
  Beta virt. eigenvalues --    0.81100   0.83362   0.85135   0.85775   0.87256
  Beta virt. eigenvalues --    0.88901   0.91876   0.92681   0.94388   0.96852
  Beta virt. eigenvalues --    0.97915   1.00118   1.00894   1.01587   1.02420
  Beta virt. eigenvalues --    1.03895   1.05174   1.06089   1.07175   1.08987
  Beta virt. eigenvalues --    1.09837   1.10344   1.11895   1.12013   1.12455
  Beta virt. eigenvalues --    1.14166   1.15150   1.17146   1.17646   1.19038
  Beta virt. eigenvalues --    1.20213   1.21339   1.23226   1.24326   1.25704
  Beta virt. eigenvalues --    1.26278   1.28873   1.29290   1.32648   1.33774
  Beta virt. eigenvalues --    1.34443   1.35412   1.35727   1.36354   1.37010
  Beta virt. eigenvalues --    1.38023   1.38803   1.39426   1.42537   1.42867
  Beta virt. eigenvalues --    1.43967   1.45257   1.45946   1.47740   1.48902
  Beta virt. eigenvalues --    1.50182   1.51427   1.51889   1.54271   1.55445
  Beta virt. eigenvalues --    1.56996   1.59350   1.60707   1.63129   1.66632
  Beta virt. eigenvalues --    1.70575   1.71554   1.72675   1.73765   1.74667
  Beta virt. eigenvalues --    1.75077   1.75639   1.82962   1.84028   1.86255
  Beta virt. eigenvalues --    1.94239   2.00025   2.03610   2.03806   2.06691
  Beta virt. eigenvalues --    2.11464   2.16847   2.18673   2.26161   2.30641
  Beta virt. eigenvalues --    2.30809   2.33449   2.36553   2.46119   2.52568
  Beta virt. eigenvalues --    2.54257   2.55621   2.56713   2.62390   2.63479
  Beta virt. eigenvalues --    2.67216   2.70778   2.73868   2.75325   2.75820
  Beta virt. eigenvalues --    2.77980   2.78194   2.79636   2.80420   2.81408
  Beta virt. eigenvalues --    2.82667   2.84825   2.85011   2.85943   2.86819
  Beta virt. eigenvalues --    2.88116   2.88668   2.89710   2.90328   2.90846
  Beta virt. eigenvalues --    2.94795   2.97320   2.98857   2.99746   3.04681
  Beta virt. eigenvalues --    3.08087   3.11115   3.11477   3.12638   3.14817
  Beta virt. eigenvalues --    3.16464   3.17766   3.18690   3.20019   3.21091
  Beta virt. eigenvalues --    3.22059   3.24199   3.25542   3.25978   3.29616
  Beta virt. eigenvalues --    3.31133   3.32632   3.33542   3.34487   3.36812
  Beta virt. eigenvalues --    3.37396   3.40483   3.41830   3.43723   3.44205
  Beta virt. eigenvalues --    3.44372   3.46113   3.47932   3.51993   3.53792
  Beta virt. eigenvalues --    3.55264   3.56925   3.59869   3.60427   3.64462
  Beta virt. eigenvalues --    3.66613   3.67892   3.70751   3.72011   3.73233
  Beta virt. eigenvalues --    3.74601   3.75656   3.78402   3.79822   3.81905
  Beta virt. eigenvalues --    3.82628   3.83785   3.85290   3.85654   3.90132
  Beta virt. eigenvalues --    3.91520   3.93434   3.97597   3.99435   4.01749
  Beta virt. eigenvalues --    4.07351   4.08345   4.08454   4.09335   4.11058
  Beta virt. eigenvalues --    4.12422   4.15019   4.16725   4.19861   4.22682
  Beta virt. eigenvalues --    4.26691   4.27926   4.29658   4.32303   4.34946
  Beta virt. eigenvalues --    4.37783   4.37865   4.39158   4.41772   4.43376
  Beta virt. eigenvalues --    4.46812   4.47628   4.48815   4.49509   4.50067
  Beta virt. eigenvalues --    4.50334   4.50620   4.50881   4.51412   4.54311
  Beta virt. eigenvalues --    4.58134   4.63790   4.64900   4.68544   4.72921
  Beta virt. eigenvalues --    4.74548   4.78720   4.82669   4.83615   4.84814
  Beta virt. eigenvalues --    4.88862   4.96379   4.96850   5.00138   5.03025
  Beta virt. eigenvalues --    5.06155   5.06454   5.07527   5.08448   5.09923
  Beta virt. eigenvalues --    5.10433   5.10470   5.13284   5.18008   5.19799
  Beta virt. eigenvalues --    5.22908   5.28224   5.28780   5.31676   5.36722
  Beta virt. eigenvalues --    5.41608   5.44493   5.46792   5.58018   5.65033
  Beta virt. eigenvalues --    5.68519   5.69545   5.69612   5.71645   5.75715
  Beta virt. eigenvalues --    5.79223   5.82182   5.88047   6.00837   6.19059
  Beta virt. eigenvalues --    6.52358   6.55601   6.66645   6.75240   6.77701
  Beta virt. eigenvalues --    6.78018   6.79919   6.80976   6.82036   6.91943
  Beta virt. eigenvalues --    6.93464   6.98185   7.20535   7.23459   7.24049
  Beta virt. eigenvalues --    7.25875   7.27254   7.51279   7.65527   7.98813
  Beta virt. eigenvalues --    8.00133  23.89819  24.50125  24.51712  24.54581
  Beta virt. eigenvalues --   24.75321  24.76926  25.22319  49.96738  50.09022
  Beta virt. eigenvalues --   50.15538
          Condensed to atoms (all electrons):
              1          2          3          4          5          6
     1  C    9.865388  -4.568718   0.804756   0.843434  -0.695815   0.209664
     2  C   -4.568718  11.866655  -2.353986  -0.717539   1.194630  -0.865190
     3  C    0.804756  -2.353986  10.669763  -1.812680  -1.455802   0.705860
     4  C    0.843434  -0.717539  -1.812680   9.140941  -0.292982   0.134339
     5  C   -0.695815   1.194630  -1.455802  -0.292982   6.465227  -0.023855
     6  C    0.209664  -0.865190   0.705860   0.134339  -0.023855   5.445826
     7  C   -0.683813   0.727860  -0.605589  -1.308691   0.561194   0.175727
     8  O   -0.006334   0.092034   0.130067  -0.259040   0.002225   0.001586
     9  H    0.355825   0.113385  -0.126074   0.022471   0.000615  -0.008104
    10  H    0.499568  -0.176501   0.157200  -0.092661   0.003212   0.006256
    11  H    0.043462   0.046003   0.264011   0.000310   0.033655  -0.011413
    12  H    0.010454  -0.017868   0.054768  -0.005970   0.294563   0.054941
    13  H    0.003268   0.013797  -0.014306  -0.017364   0.027044   0.339671
    14  H    0.011626  -0.004246  -0.000990   0.022224  -0.012102   0.047269
    15  H    0.014467   0.044425  -0.021674   0.373486  -0.000047  -0.011766
    16  O    0.014560   0.017958  -0.007735   0.003509   0.000104  -0.000046
    17  O    0.010205   0.010035   0.003818  -0.001809  -0.001528   0.000087
    18  H   -0.008443  -0.004639  -0.002181   0.008974   0.003571  -0.000705
              7          8          9         10         11         12
     1  C   -0.683813  -0.006334   0.355825   0.499568   0.043462   0.010454
     2  C    0.727860   0.092034   0.113385  -0.176501   0.046003  -0.017868
     3  C   -0.605589   0.130067  -0.126074   0.157200   0.264011   0.054768
     4  C   -1.308691  -0.259040   0.022471  -0.092661   0.000310  -0.005970
     5  C    0.561194   0.002225   0.000615   0.003212   0.033655   0.294563
     6  C    0.175727   0.001586  -0.008104   0.006256  -0.011413   0.054941
     7  C    6.941747   0.094802   0.022570  -0.016561  -0.002307  -0.012576
     8  O    0.094802   8.097620  -0.034649  -0.040939   0.000311   0.000021
     9  H    0.022570  -0.034649   0.541944  -0.051838  -0.000675  -0.000001
    10  H   -0.016561  -0.040939  -0.051838   0.539689  -0.000873   0.000013
    11  H   -0.002307   0.000311  -0.000675  -0.000873   0.482807  -0.006950
    12  H   -0.012576   0.000021  -0.000001   0.000013  -0.006950   0.489946
    13  H    0.030393  -0.000004   0.000001   0.000000  -0.000105  -0.006705
    14  H    0.313434   0.000016   0.000005   0.000014   0.000052  -0.000059
    15  H   -0.016116  -0.004410   0.000260  -0.000639  -0.000109   0.000042
    16  O   -0.001209  -0.004752   0.003310  -0.003618   0.000007   0.000000
    17  O   -0.000025   0.004552  -0.002983   0.001726  -0.000017   0.000000
    18  H   -0.003906   0.258401  -0.010190   0.002105  -0.000057  -0.000001
             13         14         15         16         17         18
     1  C    0.003268   0.011626   0.014467   0.014560   0.010205  -0.008443
     2  C    0.013797  -0.004246   0.044425   0.017958   0.010035  -0.004639
     3  C   -0.014306  -0.000990  -0.021674  -0.007735   0.003818  -0.002181
     4  C   -0.017364   0.022224   0.373486   0.003509  -0.001809   0.008974
     5  C    0.027044  -0.012102  -0.000047   0.000104  -0.001528   0.003571
     6  C    0.339671   0.047269  -0.011766  -0.000046   0.000087  -0.000705
     7  C    0.030393   0.313434  -0.016116  -0.001209  -0.000025  -0.003906
     8  O   -0.000004   0.000016  -0.004410  -0.004752   0.004552   0.258401
     9  H    0.000001   0.000005   0.000260   0.003310  -0.002983  -0.010190
    10  H    0.000000   0.000014  -0.000639  -0.003618   0.001726   0.002105
    11  H   -0.000105   0.000052  -0.000109   0.000007  -0.000017  -0.000057
    12  H   -0.006705  -0.000059   0.000042   0.000000   0.000000  -0.000001
    13  H    0.486381  -0.006965  -0.000066   0.000000   0.000000   0.000000
    14  H   -0.006965   0.488792  -0.006038   0.000000   0.000000  -0.000002
    15  H   -0.000066  -0.006038   0.449978   0.000032  -0.000003  -0.000698
    16  O    0.000000   0.000000   0.000032   7.642595   0.319906   0.009701
    17  O    0.000000   0.000000  -0.000003   0.319906   7.613400  -0.007035
    18  H    0.000000  -0.000002  -0.000698   0.009701  -0.007035   0.502187
 Mulliken atomic charges:
              1
     1  C   -0.723553
     2  C    0.581906
     3  C   -0.389225
     4  C   -0.040952
     5  C   -0.103910
     6  C   -0.200146
     7  C   -0.216932
     8  O   -0.331508
     9  H    0.174127
    10  H    0.173848
    11  H    0.151888
    12  H    0.145383
    13  H    0.144962
    14  H    0.146971
    15  H    0.178878
    16  O    0.005678
    17  O    0.049669
    18  H    0.252916
 Sum of Mulliken atomic charges =   0.00000
 Mulliken charges with hydrogens summed into heavy atoms:
              1
     1  C   -0.375578
     2  C    0.581906
     3  C   -0.237337
     4  C    0.137926
     5  C    0.041473
     6  C   -0.055184
     7  C   -0.069961
     8  O   -0.078592
    16  O    0.005678
    17  O    0.049669
 Sum of Mulliken charges with hydrogens summed into heavy atoms =   0.00000
          Atomic-Atomic Spin Densities.
              1          2          3          4          5          6
     1  C    0.282993  -0.286424   0.053979  -0.004406  -0.032376   0.006125
     2  C   -0.286424   0.320297  -0.028152  -0.020551   0.010504  -0.017787
     3  C    0.053979  -0.028152  -0.015021   0.036211  -0.021998  -0.009699
     4  C   -0.004406  -0.020551   0.036211   0.135223  -0.051495   0.019552
     5  C   -0.032376   0.010504  -0.021998  -0.051495   0.077159  -0.002058
     6  C    0.006125  -0.017787  -0.009699   0.019552  -0.002058   0.018841
     7  C   -0.024374   0.033546  -0.014511  -0.116036   0.020840  -0.014253
     8  O   -0.001852  -0.004306  -0.004000   0.008139  -0.001655   0.000262
     9  H   -0.001120   0.003682  -0.003623   0.001671  -0.000412  -0.000117
    10  H    0.005889  -0.002691  -0.006906   0.003768   0.000452  -0.000150
    11  H   -0.001195   0.002113  -0.000897   0.000626  -0.000603  -0.000208
    12  H    0.000056   0.000251   0.000067   0.000102  -0.000181  -0.000229
    13  H    0.000000  -0.000076   0.000081  -0.000065  -0.000010   0.000031
    14  H   -0.000056  -0.000333  -0.000284   0.000095   0.000163   0.000156
    15  H   -0.001124   0.002085   0.000700  -0.001763   0.000128  -0.000120
    16  O    0.004551  -0.004337   0.002590  -0.002597   0.000350   0.000025
    17  O   -0.005653   0.003272  -0.000351   0.000814  -0.000068  -0.000017
    18  H    0.002486  -0.000361   0.002986  -0.004251   0.000558  -0.000083
              7          8          9         10         11         12
     1  C   -0.024374  -0.001852  -0.001120   0.005889  -0.001195   0.000056
     2  C    0.033546  -0.004306   0.003682  -0.002691   0.002113   0.000251
     3  C   -0.014511  -0.004000  -0.003623  -0.006906  -0.000897   0.000067
     4  C   -0.116036   0.008139   0.001671   0.003768   0.000626   0.000102
     5  C    0.020840  -0.001655  -0.000412   0.000452  -0.000603  -0.000181
     6  C   -0.014253   0.000262  -0.000117  -0.000150  -0.000208  -0.000229
     7  C    0.112909   0.003430   0.000496   0.000022   0.000168  -0.000061
     8  O    0.003430   0.004756   0.000168   0.000535   0.000021   0.000000
     9  H    0.000496   0.000168  -0.002301   0.000014  -0.000034  -0.000001
    10  H    0.000022   0.000535   0.000014  -0.003942  -0.000034  -0.000001
    11  H    0.000168   0.000021  -0.000034  -0.000034   0.000004   0.000000
    12  H   -0.000061   0.000000  -0.000001  -0.000001   0.000000   0.000006
    13  H    0.000025   0.000000   0.000000   0.000000   0.000000   0.000002
    14  H    0.000274   0.000001   0.000000   0.000000   0.000000   0.000000
    15  H    0.000110   0.000035   0.000007   0.000001  -0.000001   0.000000
    16  O   -0.000484  -0.009933  -0.000013   0.002638   0.000011   0.000000
    17  O    0.000257   0.003733   0.000969  -0.000876  -0.000019   0.000000
    18  H   -0.000854   0.000139   0.000601   0.000178  -0.000002   0.000000
             13         14         15         16         17         18
     1  C    0.000000  -0.000056  -0.001124   0.004551  -0.005653   0.002486
     2  C   -0.000076  -0.000333   0.002085  -0.004337   0.003272  -0.000361
     3  C    0.000081  -0.000284   0.000700   0.002590  -0.000351   0.002986
     4  C   -0.000065   0.000095  -0.001763  -0.002597   0.000814  -0.004251
     5  C   -0.000010   0.000163   0.000128   0.000350  -0.000068   0.000558
     6  C    0.000031   0.000156  -0.000120   0.000025  -0.000017  -0.000083
     7  C    0.000025   0.000274   0.000110  -0.000484   0.000257  -0.000854
     8  O    0.000000   0.000001   0.000035  -0.009933   0.003733   0.000139
     9  H    0.000000   0.000000   0.000007  -0.000013   0.000969   0.000601
    10  H    0.000000   0.000000   0.000001   0.002638  -0.000876   0.000178
    11  H    0.000000   0.000000  -0.000001   0.000011  -0.000019  -0.000002
    12  H    0.000002   0.000000   0.000000   0.000000   0.000000   0.000000
    13  H   -0.000033   0.000001   0.000000   0.000000   0.000000   0.000000
    14  H    0.000001   0.000002  -0.000007   0.000000   0.000000   0.000000
    15  H    0.000000  -0.000007  -0.000110   0.000012  -0.000007   0.000019
    16  O    0.000000   0.000000   0.000012   1.424682  -0.439205   0.005853
    17  O    0.000000   0.000000  -0.000007  -0.439205   1.448440  -0.000749
    18  H    0.000000   0.000000   0.000019   0.005853  -0.000749  -0.004974
 Mulliken atomic spin densities:
              1
     1  C   -0.002499
     2  C    0.010731
     3  C   -0.008828
     4  C    0.005038
     5  C   -0.000702
     6  C    0.000272
     7  C    0.001505
     8  O   -0.000527
     9  H   -0.000012
    10  H   -0.001103
    11  H   -0.000051
    12  H    0.000011
    13  H   -0.000044
    14  H    0.000011
    15  H   -0.000034
    16  O    0.984143
    17  O    1.010540
    18  H    0.001549
 Sum of Mulliken atomic spin densities =   2.00000
 APT atomic charges:
              1
     1  C    0.473839
     2  C    0.017470
     3  C   -0.077606
     4  C   -0.098958
     5  C   -0.026860
     6  C   -0.070207
     7  C   -0.009450
     8  O   -0.627908
     9  H   -0.047831
    10  H   -0.038366
    11  H    0.037221
    12  H    0.036773
    13  H    0.040452
    14  H    0.035270
    15  H    0.077595
    16  O   -0.020690
    17  O    0.018514
    18  H    0.280741
 Sum of APT charges=   0.00000
 APT Atomic charges with hydrogens summed into heavy atoms:
              1
     1  C    0.387642
     2  C    0.017470
     3  C   -0.040384
     4  C   -0.021363
     5  C    0.009913
     6  C   -0.029755
     7  C    0.025820
     8  O   -0.347167
     9  H    0.000000
    10  H    0.000000
    11  H    0.000000
    12  H    0.000000
    13  H    0.000000
    14  H    0.000000
    15  H    0.000000
    16  O   -0.020690
    17  O    0.018514
    18  H    0.000000
 Sum of APT charges=   0.00000
 Electronic spatial extent (au):  <R**2>=           2242.6991
 Charge=              0.0000 electrons
 Dipole moment (field-independent basis, Debye):
    X=             -0.8647    Y=             -1.1937    Z=             -0.7305  Tot=              1.6451
 Quadrupole moment (field-independent basis, Debye-Ang):
   XX=            -51.6979   YY=            -57.9757   ZZ=            -59.3436
   XY=              0.9458   XZ=              1.6483   YZ=             -4.0816
 Traceless Quadrupole moment (field-independent basis, Debye-Ang):
   XX=              4.6411   YY=             -1.6366   ZZ=             -3.0045
   XY=              0.9458   XZ=              1.6483   YZ=             -4.0816
 Octapole moment (field-independent basis, Debye-Ang**2):
  XXX=            -15.1176  YYY=            -15.7848  ZZZ=            -25.3093  XYY=             -1.1391
  XXY=             -3.5769  XXZ=            -14.8691  XZZ=            -15.8892  YZZ=             -2.3384
  YYZ=             -9.7253  XYZ=             -2.1552
 Hexadecapole moment (field-independent basis, Debye-Ang**3):
 XXXX=          -2121.7603 YYYY=           -345.0209 ZZZZ=           -162.1715 XXXY=             26.1474
 XXXZ=             62.8575 YYYX=             43.4169 YYYZ=             37.9993 ZZZX=             67.6131
 ZZZY=             55.5719 XXYY=           -418.4388 XXZZ=           -415.6382 YYZZ=            -80.9829
 XXYZ=             -6.2899 YYXZ=             28.1523 ZZXY=             10.8170
 N-N= 4.739829455594D+02 E-N=-3.146483456700D+03  KE= 7.395609956860D+02
  Exact polarizability: 115.420  -2.885  90.084  -2.572 -14.418  72.235
 Approx polarizability: 132.274  -1.428 120.326  -2.204 -19.667  99.230
                          Isotropic Fermi Contact Couplings
        Atom                 a.u.       MegaHertz       Gauss      10(-4) cm-1
     1  C(13)              0.00036       0.20058       0.07157       0.06691
     2  C(13)              0.00004       0.02340       0.00835       0.00781
     3  C(13)              0.00007       0.03810       0.01359       0.01271
     4  C(13)              0.00005       0.02630       0.00938       0.00877
     5  C(13)             -0.00005      -0.02947      -0.01052      -0.00983
     6  C(13)              0.00007       0.04202       0.01499       0.01402
     7  C(13)             -0.00007      -0.03978      -0.01419      -0.01327
     8  O(17)             -0.00038       0.11416       0.04073       0.03808
     9  H(1)              -0.00004      -0.08416      -0.03003      -0.02807
    10  H(1)               0.00022       0.50073       0.17867       0.16703
    11  H(1)              -0.00001      -0.01884      -0.00672      -0.00629
    12  H(1)               0.00000       0.00697       0.00249       0.00233
    13  H(1)              -0.00001      -0.01913      -0.00683      -0.00638
    14  H(1)               0.00000       0.00917       0.00327       0.00306
    15  H(1)              -0.00001      -0.02357      -0.00841      -0.00786
    16  O(17)              0.18180     -55.10345     -19.66228     -18.38053
    17  O(17)              0.18647     -56.51814     -20.16708     -18.85242
    18  H(1)              -0.00012      -0.27256      -0.09726      -0.09092
 --------------------------------------------------------
       Center         ----  Spin Dipole Couplings  ----
                      3XX-RR        3YY-RR        3ZZ-RR
 --------------------------------------------------------
     1   Atom        0.014455     -0.010582     -0.003873
     2   Atom        0.005886     -0.002839     -0.003048
     3   Atom        0.003232     -0.001834     -0.001398
     4   Atom        0.002644     -0.001416     -0.001229
     5   Atom        0.001922     -0.000837     -0.001085
     6   Atom        0.001148     -0.000892     -0.000255
     7   Atom        0.001736     -0.000761     -0.000975
     8   Atom        0.021098     -0.006927     -0.014170
     9   Atom        0.017623     -0.010021     -0.007602
    10   Atom        0.020122     -0.011744     -0.008378
    11   Atom        0.003491     -0.001385     -0.002106
    12   Atom        0.001270     -0.000566     -0.000703
    13   Atom        0.000986     -0.000513     -0.000473
    14   Atom        0.001099     -0.000524     -0.000575
    15   Atom        0.002510     -0.001008     -0.001502
    16   Atom        1.232172      1.226055     -2.458228
    17   Atom        1.269334      1.247976     -2.517310
    18   Atom        0.009080     -0.003486     -0.005594
 --------------------------------------------------------
                        XY            XZ            YZ
 --------------------------------------------------------
     1   Atom        0.001760     -0.002782      0.000459
     2   Atom        0.000175     -0.000851     -0.000230
     3   Atom       -0.000964      0.000133      0.000247
     4   Atom        0.001080     -0.000677      0.000235
     5   Atom       -0.000453     -0.000041     -0.000115
     6   Atom        0.000021     -0.000080      0.000294
     7   Atom        0.000394     -0.000389     -0.000182
     8   Atom        0.018141      0.001928     -0.000114
     9   Atom       -0.005675     -0.008095      0.001826
    10   Atom        0.000399      0.005465     -0.000578
    11   Atom       -0.002164      0.000493     -0.000221
    12   Atom       -0.000537      0.000077     -0.000027
    13   Atom       -0.000022     -0.000106      0.000014
    14   Atom        0.000447     -0.000325     -0.000090
    15   Atom        0.001842     -0.001051     -0.000489
    16   Atom        0.026175     -0.277399      0.428698
    17   Atom        0.034273     -0.292411      0.441631
    18   Atom        0.015742     -0.010217     -0.008150
 --------------------------------------------------------


 ---------------------------------------------------------------------------------
              Anisotropic Spin Dipole Couplings in Principal Axis System
 ---------------------------------------------------------------------------------

       Atom             a.u.   MegaHertz   Gauss  10(-4) cm-1        Axes

              Baa    -0.0108    -1.445    -0.516    -0.482 -0.0801  0.9919 -0.0984
     1 C(13)  Bbb    -0.0042    -0.565    -0.202    -0.188  0.1365  0.1087  0.9847
              Bcc     0.0150     2.010     0.717     0.670  0.9874  0.0654 -0.1441
 
              Baa    -0.0032    -0.435    -0.155    -0.145  0.0730  0.4707  0.8793
     2 C(13)  Bbb    -0.0027    -0.366    -0.131    -0.122 -0.0640  0.8820 -0.4669
              Bcc     0.0060     0.801     0.286     0.267  0.9953  0.0222 -0.0945
 
              Baa    -0.0021    -0.283    -0.101    -0.095  0.1747  0.9199 -0.3511
     3 C(13)  Bbb    -0.0013    -0.174    -0.062    -0.058  0.0467  0.3485  0.9362
              Bcc     0.0034     0.458     0.163     0.153  0.9835 -0.1800  0.0180
 
              Baa    -0.0019    -0.259    -0.092    -0.086 -0.2683  0.8052 -0.5288
     4 C(13)  Bbb    -0.0011    -0.144    -0.051    -0.048 -0.0066  0.5474  0.8369
              Bcc     0.0030     0.402     0.144     0.134  0.9633  0.2280 -0.1416
 
              Baa    -0.0011    -0.154    -0.055    -0.051  0.0778  0.4458  0.8917
     5 C(13)  Bbb    -0.0008    -0.114    -0.041    -0.038  0.1372  0.8811 -0.4525
              Bcc     0.0020     0.268     0.096     0.089  0.9875 -0.1576 -0.0074
 
              Baa    -0.0010    -0.135    -0.048    -0.045 -0.0226  0.9304 -0.3658
     6 C(13)  Bbb    -0.0001    -0.019    -0.007    -0.006  0.0516  0.3665  0.9290
              Bcc     0.0012     0.155     0.055     0.052  0.9984  0.0021 -0.0563
 
              Baa    -0.0011    -0.146    -0.052    -0.049  0.0653  0.4245  0.9031
     7 C(13)  Bbb    -0.0008    -0.103    -0.037    -0.034 -0.2030  0.8917 -0.4045
              Bcc     0.0019     0.249     0.089     0.083  0.9770  0.1569 -0.1444
 
              Baa    -0.0163     1.178     0.420     0.393 -0.4134  0.8071  0.4215
     8 O(17)  Bbb    -0.0138     0.998     0.356     0.333  0.1548 -0.3939  0.9060
              Bcc     0.0301    -2.176    -0.776    -0.726  0.8973  0.4398  0.0380
 
              Baa    -0.0112    -5.965    -2.129    -1.990  0.1434  0.9744 -0.1730
     9 H(1)   Bbb    -0.0100    -5.312    -1.896    -1.772  0.3027  0.1233  0.9451
              Bcc     0.0211    11.278     4.024     3.762  0.9422 -0.1879 -0.2773
 
              Baa    -0.0119    -6.354    -2.267    -2.120 -0.0532  0.9691  0.2409
    10 H(1)   Bbb    -0.0092    -4.923    -1.757    -1.642 -0.1742 -0.2466  0.9533
              Bcc     0.0211    11.277     4.024     3.762  0.9833  0.0087  0.1819
 
              Baa    -0.0022    -1.185    -0.423    -0.395  0.2924  0.8647  0.4083
    11 H(1)   Bbb    -0.0021    -1.140    -0.407    -0.380 -0.2165 -0.3560  0.9090
              Bcc     0.0044     2.325     0.830     0.776  0.9315 -0.3542  0.0831
 
              Baa    -0.0007    -0.382    -0.136    -0.127  0.1988  0.8140  0.5458
    12 H(1)   Bbb    -0.0007    -0.375    -0.134    -0.125 -0.1740 -0.5188  0.8370
              Bcc     0.0014     0.757     0.270     0.252  0.9645 -0.2614  0.0385
 
              Baa    -0.0005    -0.276    -0.098    -0.092 -0.0080  0.9507 -0.3099
    13 H(1)   Bbb    -0.0005    -0.254    -0.091    -0.085  0.0732  0.3096  0.9480
              Bcc     0.0010     0.530     0.189     0.177  0.9973 -0.0151 -0.0721
 
              Baa    -0.0006    -0.344    -0.123    -0.115 -0.0881  0.7878  0.6096
    14 H(1)   Bbb    -0.0006    -0.337    -0.120    -0.112  0.2910 -0.5649  0.7722
              Bcc     0.0013     0.680     0.243     0.227  0.9527  0.2454 -0.1794
 
              Baa    -0.0018    -0.971    -0.346    -0.324 -0.2156  0.8142  0.5391
    15 H(1)   Bbb    -0.0017    -0.930    -0.332    -0.310  0.3891 -0.4347  0.8122
              Bcc     0.0036     1.901     0.678     0.634  0.8956  0.3848 -0.2231
 
              Baa    -2.5281   182.931    65.274    61.019  0.0739 -0.1137  0.9908
    16 O(17)  Bbb     1.2515   -90.556   -32.313   -30.206  0.9705  0.2367 -0.0452
              Bcc     1.2766   -92.375   -32.962   -30.813 -0.2294  0.9649  0.1278
 
              Baa    -2.5909   187.474    66.895    62.534  0.0760 -0.1146  0.9905
    17 O(17)  Bbb     1.2918   -93.471   -33.353   -31.179  0.9954 -0.0497 -0.0822
              Bcc     1.2991   -94.002   -33.542   -31.356  0.0587  0.9922  0.1103
 
              Baa    -0.0144    -7.694    -2.745    -2.566 -0.4598  0.8510  0.2536
    18 H(1)   Bbb    -0.0108    -5.781    -2.063    -1.928  0.4645 -0.0129  0.8855
              Bcc     0.0253    13.475     4.808     4.495  0.7568  0.5250 -0.3894
 

 ---------------------------------------------------------------------------------

 Calling FoFJK, ICntrl=    100127 FMM=F ISym2X=0 I1Cent= 0 IOpClX= 1 NMat=1 NMatS=1 NMatT=0.
 -------------------------------------------------------------------
 Center     Atomic                   Forces (Hartrees/Bohr)
 Number     Number              X              Y              Z
 -------------------------------------------------------------------
      1        6           0.000074495    0.000044189    0.000063052
      2        6          -0.000021801    0.000254599   -0.000121919
      3        6           0.000090453   -0.000065153   -0.000035313
      4        6          -0.000133202   -0.000169489    0.000161017
      5        6           0.000122286    0.000154202   -0.000179694
      6        6          -0.000119408   -0.000194416    0.000101543
      7        6          -0.000025709    0.000040896    0.000032723
      8        8          -0.000087431   -0.000063525    0.000162898
      9        1           0.000083683   -0.000037266   -0.000040874
     10        1          -0.000076319    0.000036940   -0.000011833
     11        1           0.000026523   -0.000031838    0.000034670
     12        1          -0.000039921   -0.000031001    0.000030685
     13        1           0.000091842   -0.000040147   -0.000002821
     14        1          -0.000027927    0.000017379    0.000000727
     15        1           0.000025182   -0.000003770   -0.000019998
     16        8           0.000061157    0.000003708   -0.000141715
     17        8          -0.000064723    0.000008361    0.000127966
     18        1           0.000020821    0.000076332   -0.000161114
 -------------------------------------------------------------------
 Cartesian Forces:  Max     0.000254599 RMS     0.000092836
 IRC-IRC-IRC-IRC-IRC-IRC-IRC-IRC-IRC-IRC-IRC-IRC-IRC-IRC-IRC-IRC-IRC-IRC
          ******** Start new reaction path calculation ********
 WARNING: TS HAS MORE THAN 1 IMAGINARY FREQUENCY!
 Supplied step size of   0.1000 bohr.
    Integration on MW PES will use step size of   0.1066 sqrt(amu)*bohr.
 Point Number:   0          Path Number:   1
 Calculating another point on the path.
 IRC-IRC-IRC-IRC-IRC-IRC-IRC-IRC-IRC-IRC-IRC-IRC-IRC-IRC-IRC-IRC-IRC-IRC
                          Input orientation:                          
 ---------------------------------------------------------------------
 Center     Atomic      Atomic             Coordinates (Angstroms)
 Number     Number       Type             X           Y           Z
 ---------------------------------------------------------------------
      1          6           0       -0.825658   -0.003522    0.076315
      2          6           0        0.679811   -0.067821   -0.020204
      3          6           0        1.337101   -1.208868    0.432299
      4          6           0        1.422725    0.976412   -0.552210
      5          6           0        2.715939   -1.309593    0.346473
      6          6           0        3.456656   -0.262950   -0.190443
      7          6           0        2.806925    0.877268   -0.636261
      8          8           0       -1.322209    1.276257   -0.257255
      9          1           0       -1.257483   -0.769155   -0.575403
     10          1           0       -1.127145   -0.248721    1.099801
     11          1           0        0.762070   -2.023983    0.857396
     12          1           0        3.215092   -2.201593    0.700464
     13          1           0        4.533502   -0.337391   -0.256102
     14          1           0        3.377956    1.697473   -1.050617
     15          1           0        0.910624    1.865849   -0.890215
     16          8           0       -3.999099   -0.170563   -0.223077
     17          8           0       -3.906747   -0.304297    0.954255
     18          1           0       -2.000487    1.194577   -0.929139
 ---------------------------------------------------------------------
                    Distance matrix (angstroms):
                    1          2          3          4          5
     1  C    0.000000
     2  C    1.509930   0.000000
     3  C    2.501421   1.392399   0.000000
     4  C    2.531905   1.387579   2.398341   0.000000
     5  C    3.784404   2.412937   1.385173   2.775942   0.000000
     6  C    4.298450   2.788892   2.403140   2.409101   1.390109
     7  C    3.805157   2.407765   2.766616   1.390290   2.399251
     8  O    1.412680   2.422978   3.704491   2.776971   4.832985
     9  H    1.094260   2.133829   2.817920   3.198603   4.114609
    10  H    1.094779   2.133595   2.727627   3.275963   4.057369
    11  H    2.685746   2.145581   1.084334   3.380211   2.142194
    12  H    4.642063   3.391164   2.141091   3.857654   1.081725
    13  H    5.379830   3.870303   3.383837   3.389793   2.147513
    14  H    4.672658   3.384967   3.848500   2.142724   3.381209
    15  H    2.728261   2.132903   3.374139   1.080552   3.856422
    16  O    3.191906   4.684433   5.475639   5.551581   6.834728
    17  O    3.217818   4.694892   5.346834   5.684446   6.726068
    18  H    1.956170   3.099002   4.332384   3.450805   5.490239
                    6          7          8          9         10
     6  C    0.000000
     7  C    1.386001   0.000000
     8  O    5.021072   4.165643   0.000000
     9  H    4.756841   4.385639   2.071019   0.000000
    10  H    4.761950   4.445073   2.050661   1.759020   0.000000
    11  H    3.385262   3.850935   4.059341   2.775987   2.603738
    12  H    2.147186   3.381245   5.796531   4.866585   4.777888
    13  H    1.081412   2.144991   6.073978   5.815830   5.821449
    14  H    2.142277   1.081898   4.785227   5.272322   5.357976
    15  H    3.391717   2.153542   2.394536   3.426813   3.547404
    16  O    7.456398   6.898597   3.043057   2.828233   3.162947
    17  O    7.451963   6.999946   3.262782   3.094277   2.783965
    18  H    5.696531   4.826767   0.958207   2.129185   2.638642
                   11         12         13         14         15
    11  H    0.000000
    12  H    2.464445   0.000000
    13  H    4.278805   2.475575   0.000000
    14  H    4.932810   4.277327   2.471278   0.000000
    15  H    4.266968   4.938109   4.287378   2.478267   0.000000
    16  O    5.222195   7.551329   8.534296   7.654758   5.356998
    17  O    4.976401   7.374602   8.526657   7.816233   5.596309
    18  H    4.602452   6.433650   6.744844   5.403269   2.987757
                   16         17         18
    16  O    0.000000
    17  O    1.188497   0.000000
    18  H    2.521226   3.070444   0.000000
 Symmetry turned off by external request.
 Stoichiometry    C7H8O3(3)
 Framework group  C1[X(C7H8O3)]
 Deg. of freedom    48
 Full point group                 C1      NOp   1
 Rotational constants (GHZ):      3.7399873      0.5153922      0.4619604
 Standard basis: 6-311+G(2df,2p) (5D, 7F)
 Integral buffers will be    131072 words long.
 Raffenetti 2 integral format.
 Two-electron integral symmetry is turned off.
   412 basis functions,   608 primitive gaussians,   462 cartesian basis functions
    38 alpha electrons       36 beta electrons
       nuclear repulsion energy       474.0249945620 Hartrees.
 NAtoms=   18 NActive=   18 NUniq=   18 SFac= 1.00D+00 NAtFMM=   50 NAOKFM=F Big=F
 One-electron integrals computed using PRISM.
 NBasis=   412 RedAO= T  NBF=   412
 NBsUse=   412 1.00D-06 NBFU=   412
 Initial guess read from the read-write file.
 B after Tr=     0.000000    0.000000    0.000000
         Rot=    1.000000    0.000000    0.000000    0.000000 Ang=   0.00 deg.
 Initial guess <Sx>= 0.0000 <Sy>= 0.0000 <Sz>= 1.0000 <S**2>= 2.0124 S= 1.0041
 Harris functional with IExCor= 1009 diagonalized for initial guess.
 ExpMin= 4.38D-02 ExpMax= 8.59D+03 ExpMxC= 1.30D+03 IAcc=2 IRadAn=         0 AccDes= 0.00D+00
 HarFok:  IExCor= 1009 AccDes= 0.00D+00 IRadAn=         0 IDoV= 1
 ScaDFX=  1.000000  1.000000  1.000000  1.000000
 FoFCou: FMM=F IPFlag=           0 FMFlag=      100000 FMFlg1=           0
         NFxFlg=           0 DoJE=T BraDBF=F KetDBF=T FulRan=T
         Omega=  0.000000  0.000000  1.000000  0.000000  0.000000 ICntrl=     500 IOpCl=  0
         NMat0=    1 NMatS0=    1 NMatT0=    0 NMatD0=    1 NMtDS0=    0 NMtDT0=    0
         I1Cent=           4 NGrid=           0.
 Symmetry not used in FoFCou.
 Requested convergence on RMS density matrix=1.00D-08 within 128 cycles.
 Requested convergence on MAX density matrix=1.00D-06.
 Requested convergence on             energy=1.00D-06.
 No special actions if energy rises.
 SCF Done:  E(UM062X) =  -497.059963855     A.U. after   11 cycles
             Convg  =    0.8855D-08             -V/T =  2.0034
 <Sx>= 0.0000 <Sy>= 0.0000 <Sz>= 1.0000 <S**2>= 2.0125 S= 1.0042
 <L.S>= 0.000000000000E+00
 Annihilation of the first spin contaminant:
 S**2 before annihilation     2.0125,   after     2.0001
 Range of M.O.s used for correlation:     1   412
 NBasis=   412 NAE=    38 NBE=    36 NFC=     0 NFV=     0
 NROrb=    412 NOA=    38 NOB=    36 NVA=   374 NVB=   376

 **** Warning!!: The largest alpha MO coefficient is  0.18528184D+03


 **** Warning!!: The largest beta MO coefficient is  0.17661495D+03

 Symmetrizing basis deriv contribution to polar:
 IMax=3 JMax=2 DiffMx= 0.00D+00
 G2DrvN: will do    19 centers at a time, making    1 passes doing MaxLOS=3.
 Calling FoFCou, ICntrl=  3107 FMM=F I1Cent=   0 AccDes= 0.00D+00.
 FoFDir/FoFCou used for L=0 through L=3.
 End of G2Drv Frequency-dependent properties file   721 does not exist.
 End of G2Drv Frequency-dependent properties file   722 does not exist.
          IDoAtm=111111111111111111
          Differentiating once with respect to electric field.
                with respect to dipole field.
          Differentiating once with respect to nuclear coordinates.
          There are    57 degrees of freedom in the 1st order CPHF.  IDoFFX=5.
     54 vectors produced by pass  0 Test12= 4.87D-14 1.75D-09 XBig12= 1.40D+02 2.99D+00.
 AX will form    54 AO Fock derivatives at one time.
     54 vectors produced by pass  1 Test12= 4.87D-14 1.75D-09 XBig12= 1.82D+01 1.12D+00.
     54 vectors produced by pass  2 Test12= 4.87D-14 1.75D-09 XBig12= 1.89D+00 3.40D-01.
     54 vectors produced by pass  3 Test12= 4.87D-14 1.75D-09 XBig12= 3.90D-02 5.08D-02.
     54 vectors produced by pass  4 Test12= 4.87D-14 1.75D-09 XBig12= 4.30D-04 3.77D-03.
     54 vectors produced by pass  5 Test12= 4.87D-14 1.75D-09 XBig12= 5.84D-06 3.93D-04.
     54 vectors produced by pass  6 Test12= 4.87D-14 1.75D-09 XBig12= 5.96D-08 2.53D-05.
     24 vectors produced by pass  7 Test12= 4.87D-14 1.75D-09 XBig12= 4.45D-10 2.13D-06.
      6 vectors produced by pass  8 Test12= 4.87D-14 1.75D-09 XBig12= 6.64D-12 2.40D-07.
      6 vectors produced by pass  9 Test12= 4.87D-14 1.75D-09 XBig12= 6.01D-13 8.77D-08.
      6 vectors produced by pass 10 Test12= 4.87D-14 1.75D-09 XBig12= 7.67D-14 3.80D-08.
      6 vectors produced by pass 11 Test12= 4.87D-14 1.75D-09 XBig12= 8.00D-15 9.96D-09.
      6 vectors produced by pass 12 Test12= 4.87D-14 1.75D-09 XBig12= 7.90D-15 1.08D-08.
      6 vectors produced by pass 13 Test12= 4.87D-14 1.75D-09 XBig12= 3.53D-15 6.47D-09.
      6 vectors produced by pass 14 Test12= 4.87D-14 1.75D-09 XBig12= 2.00D-15 4.91D-09.
      6 vectors produced by pass 15 Test12= 4.87D-14 1.75D-09 XBig12= 1.68D-15 5.08D-09.
      6 vectors produced by pass 16 Test12= 4.87D-14 1.75D-09 XBig12= 1.29D-15 5.70D-09.
      6 vectors produced by pass 17 Test12= 4.87D-14 1.75D-09 XBig12= 2.03D-15 5.27D-09.
      6 vectors produced by pass 18 Test12= 4.87D-14 1.75D-09 XBig12= 1.52D-15 3.77D-09.
      6 vectors produced by pass 19 Test12= 4.87D-14 1.75D-09 XBig12= 9.42D-16 3.46D-09.
      6 vectors produced by pass 20 Test12= 4.87D-14 1.75D-09 XBig12= 1.01D-15 3.04D-09.
      6 vectors produced by pass 21 Test12= 4.87D-14 1.75D-09 XBig12= 9.84D-16 3.81D-09.
      6 vectors produced by pass 22 Test12= 4.87D-14 1.75D-09 XBig12= 6.66D-16 2.53D-09.
      6 vectors produced by pass 23 Test12= 4.87D-14 1.75D-09 XBig12= 9.37D-16 3.27D-09.
      5 vectors produced by pass 24 Test12= 4.87D-14 1.75D-09 XBig12= 5.38D-16 2.66D-09.
      5 vectors produced by pass 25 Test12= 4.87D-14 1.75D-09 XBig12= 6.72D-16 2.32D-09.
      4 vectors produced by pass 26 Test12= 4.87D-14 1.75D-09 XBig12= 6.05D-16 2.36D-09.
      1 vectors produced by pass 27 Test12= 4.87D-14 1.75D-09 XBig12= 3.50D-16 1.87D-09.
 Inverted reduced A of dimension   513 with in-core refinement.
 Isotropic polarizability for W=    0.000000       92.63 Bohr**3.
 End of Minotr Frequency-dependent properties file   721 does not exist.
 End of Minotr Frequency-dependent properties file   722 does not exist.
 Calling FoFJK, ICntrl=    100127 FMM=F ISym2X=0 I1Cent= 0 IOpClX= 1 NMat=1 NMatS=1 NMatT=0.
 -------------------------------------------------------------------
 Center     Atomic                   Forces (Hartrees/Bohr)
 Number     Number              X              Y              Z
 -------------------------------------------------------------------
      1        6           0.000089574   -0.000025089   -0.000008607
      2        6          -0.000041087    0.000260904   -0.000106244
      3        6           0.000084757   -0.000054224   -0.000011371
      4        6          -0.000154628   -0.000171468    0.000157047
      5        6           0.000110000    0.000162851   -0.000162512
      6        6          -0.000132504   -0.000188642    0.000111126
      7        6          -0.000038954    0.000043879    0.000037051
      8        8          -0.001012093   -0.000160094   -0.001246192
      9        1           0.000099921   -0.000035693   -0.000053791
     10        1          -0.000083924    0.000027827   -0.000031587
     11        1           0.000025406   -0.000029908    0.000036661
     12        1          -0.000040923   -0.000030196    0.000032505
     13        1           0.000090673   -0.000039631   -0.000002565
     14        1          -0.000029191    0.000017043    0.000000132
     15        1           0.000026339   -0.000001385   -0.000024106
     16        8           0.000066193   -0.000003380   -0.000112397
     17        8          -0.000085735   -0.000008375    0.000129157
     18        1           0.001026175    0.000235580    0.001255695
 -------------------------------------------------------------------
 Cartesian Forces:  Max     0.001255695 RMS     0.000324449
 IRC-IRC-IRC-IRC-IRC-IRC-IRC-IRC-IRC-IRC-IRC-IRC-IRC-IRC-IRC-IRC-IRC-IRC
 Pt  1 Step number   1 out of a maximum of  20
 CORRECTOR INTEGRATION CONVERGENCE:
   Recorrection delta-x convergence threshold:    0.010000
   Delta-x Convergence NOT Met
 IRC-IRC-IRC-IRC-IRC-IRC-IRC-IRC-IRC-IRC-IRC-IRC-IRC-IRC-IRC-IRC-IRC-IRC
                          Input orientation:                          
 ---------------------------------------------------------------------
 Center     Atomic      Atomic             Coordinates (Angstroms)
 Number     Number       Type             X           Y           Z
 ---------------------------------------------------------------------
      1          6           0       -0.825699   -0.003466    0.075654
      2          6           0        0.679781   -0.067516   -0.019736
      3          6           0        1.337244   -1.208901    0.432151
      4          6           0        1.422810    0.976502   -0.551259
      5          6           0        2.716016   -1.309853    0.345746
      6          6           0        3.456836   -0.263356   -0.190714
      7          6           0        2.807016    0.877249   -0.635670
      8          8           0       -1.322779    1.276348   -0.256930
      9          1           0       -1.255931   -0.768809   -0.577507
     10          1           0       -1.128987   -0.249451    1.098353
     11          1           0        0.762627   -2.024207    0.857525
     12          1           0        3.214563   -2.202254    0.699678
     13          1           0        4.533758   -0.338249   -0.256834
     14          1           0        3.377715    1.697754   -1.049880
     15          1           0        0.911151    1.866201   -0.889251
     16          8           0       -3.997958   -0.170892   -0.223262
     17          8           0       -3.908050   -0.303907    0.954404
     18          1           0       -1.995153    1.196822   -0.932904
 ---------------------------------------------------------------------
                    Distance matrix (angstroms):
                    1          2          3          4          5
     1  C    0.000000
     2  C    1.509858   0.000000
     3  C    2.501697   1.392558   0.000000
     4  C    2.531630   1.387293   2.398000   0.000000
     5  C    3.784619   2.413137   1.385160   2.775684   0.000000
     6  C    4.298674   2.789197   2.403058   2.409253   1.389878
     7  C    3.805031   2.407713   2.766314   1.390325   2.398932
     8  O    1.412666   2.423320   3.705000   2.777553   4.833583
     9  H    1.094289   2.133050   2.817382   3.197257   4.113573
    10  H    1.094718   2.134213   2.728858   3.276561   4.058931
    11  H    2.686540   2.145947   1.084367   3.380055   2.141949
    12  H    4.641961   3.391133   2.140713   3.857423   1.081756
    13  H    5.380187   3.870743   3.383850   3.390170   2.147395
    14  H    4.672223   3.384704   3.848192   2.142541   3.381024
    15  H    2.728249   2.132803   3.374005   1.080555   3.856174
    16  O    3.190706   4.683306   5.474615   5.550569   6.833626
    17  O    3.219216   4.696065   5.348352   5.685467   6.727603
    18  H    1.955889   3.096401   4.330791   3.446254   5.487575
                    6          7          8          9         10
     6  C    0.000000
     7  C    1.386084   0.000000
     8  O    5.021931   4.166286   0.000000
     9  H    4.755550   4.384111   2.071209   0.000000
    10  H    4.763576   4.446168   2.049979   1.759078   0.000000
    11  H    3.384991   3.850663   4.060123   2.776673   2.604988
    12  H    2.147282   3.381211   5.796832   4.865314   4.778997
    13  H    1.081547   2.145364   6.075027   5.814526   5.823324
    14  H    2.142517   1.081895   4.785499   5.270460   5.358814
    15  H    3.391678   2.153285   2.395454   3.425888   3.548058
    16  O    7.455438   6.897561   3.041746   2.828729   3.159720
    17  O    7.453488   7.001113   3.263152   3.097842   2.783321
    18  H    5.692728   4.821961   0.956740   2.129898   2.639688
                   11         12         13         14         15
    11  H    0.000000
    12  H    2.463455   0.000000
    13  H    4.278514   2.475825   0.000000
    14  H    4.932532   4.277574   2.471976   0.000000
    15  H    4.267149   4.937888   4.287521   2.477522   0.000000
    16  O    5.221690   7.549749   8.533423   7.653475   5.356551
    17  O    4.978358   7.375651   8.528330   7.817044   5.597600
    18  H    4.602827   6.431189   6.740934   5.397438   2.982713
                   16         17         18
    16  O    0.000000
    17  O    1.188559   0.000000
    18  H    2.526946   3.077871   0.000000
 Symmetry turned off by external request.
 Stoichiometry    C7H8O3(3)
 Framework group  C1[X(C7H8O3)]
 Deg. of freedom    48
 Full point group                 C1      NOp   1
 Rotational constants (GHZ):      3.7400270      0.5153556      0.4619422
 Standard basis: 6-311+G(2df,2p) (5D, 7F)
 Integral buffers will be    131072 words long.
 Raffenetti 2 integral format.
 Two-electron integral symmetry is turned off.
   412 basis functions,   608 primitive gaussians,   462 cartesian basis functions
    38 alpha electrons       36 beta electrons
       nuclear repulsion energy       474.0262799129 Hartrees.
 NAtoms=   18 NActive=   18 NUniq=   18 SFac= 1.00D+00 NAtFMM=   50 NAOKFM=F Big=F
 One-electron integrals computed using PRISM.
 NBasis=   412 RedAO= T  NBF=   412
 NBsUse=   412 1.00D-06 NBFU=   412
 Initial guess read from the read-write file.
 B after Tr=     0.000000    0.000000    0.000000
         Rot=    1.000000    0.000000    0.000000    0.000000 Ang=   0.00 deg.
 Initial guess <Sx>= 0.0000 <Sy>= 0.0000 <Sz>= 1.0000 <S**2>= 2.0125 S= 1.0042
 Harris functional with IExCor= 1009 diagonalized for initial guess.
 ExpMin= 4.38D-02 ExpMax= 8.59D+03 ExpMxC= 1.30D+03 IAcc=2 IRadAn=         0 AccDes= 0.00D+00
 HarFok:  IExCor= 1009 AccDes= 0.00D+00 IRadAn=         0 IDoV= 1
 ScaDFX=  1.000000  1.000000  1.000000  1.000000
 FoFCou: FMM=F IPFlag=           0 FMFlag=      100000 FMFlg1=           0
         NFxFlg=           0 DoJE=T BraDBF=F KetDBF=T FulRan=T
         Omega=  0.000000  0.000000  1.000000  0.000000  0.000000 ICntrl=     500 IOpCl=  0
         NMat0=    1 NMatS0=    1 NMatT0=    0 NMatD0=    1 NMtDS0=    0 NMtDT0=    0
         I1Cent=           4 NGrid=           0.
 Symmetry not used in FoFCou.
 Requested convergence on RMS density matrix=1.00D-08 within 128 cycles.
 Requested convergence on MAX density matrix=1.00D-06.
 Requested convergence on             energy=1.00D-06.
 No special actions if energy rises.
 SCF Done:  E(UM062X) =  -497.059965933     A.U. after   11 cycles
             Convg  =    0.3222D-08             -V/T =  2.0034
 <Sx>= 0.0000 <Sy>= 0.0000 <Sz>= 1.0000 <S**2>= 2.0125 S= 1.0042
 <L.S>= 0.000000000000E+00
 Annihilation of the first spin contaminant:
 S**2 before annihilation     2.0125,   after     2.0001
 Range of M.O.s used for correlation:     1   412
 NBasis=   412 NAE=    38 NBE=    36 NFC=     0 NFV=     0
 NROrb=    412 NOA=    38 NOB=    36 NVA=   374 NVB=   376

 **** Warning!!: The largest alpha MO coefficient is  0.18539887D+03


 **** Warning!!: The largest beta MO coefficient is  0.17684298D+03

 Symmetrizing basis deriv contribution to polar:
 IMax=3 JMax=2 DiffMx= 0.00D+00
 G2DrvN: will do    19 centers at a time, making    1 passes doing MaxLOS=3.
 Calling FoFCou, ICntrl=  3107 FMM=F I1Cent=   0 AccDes= 0.00D+00.
 FoFDir/FoFCou used for L=0 through L=3.
 End of G2Drv Frequency-dependent properties file   721 does not exist.
 End of G2Drv Frequency-dependent properties file   722 does not exist.
          IDoAtm=111111111111111111
          Differentiating once with respect to electric field.
                with respect to dipole field.
          Differentiating once with respect to nuclear coordinates.
          There are    57 degrees of freedom in the 1st order CPHF.  IDoFFX=5.
     54 vectors produced by pass  0 Test12= 4.87D-14 1.75D-09 XBig12= 1.40D+02 2.97D+00.
 AX will form    54 AO Fock derivatives at one time.
     54 vectors produced by pass  1 Test12= 4.87D-14 1.75D-09 XBig12= 1.82D+01 1.12D+00.
     54 vectors produced by pass  2 Test12= 4.87D-14 1.75D-09 XBig12= 1.91D+00 3.44D-01.
     54 vectors produced by pass  3 Test12= 4.87D-14 1.75D-09 XBig12= 3.91D-02 5.11D-02.
     54 vectors produced by pass  4 Test12= 4.87D-14 1.75D-09 XBig12= 4.33D-04 3.79D-03.
     54 vectors produced by pass  5 Test12= 4.87D-14 1.75D-09 XBig12= 5.87D-06 3.94D-04.
     54 vectors produced by pass  6 Test12= 4.87D-14 1.75D-09 XBig12= 6.01D-08 2.52D-05.
     24 vectors produced by pass  7 Test12= 4.87D-14 1.75D-09 XBig12= 4.49D-10 2.16D-06.
      8 vectors produced by pass  8 Test12= 4.87D-14 1.75D-09 XBig12= 6.36D-12 2.22D-07.
      8 vectors produced by pass  9 Test12= 4.87D-14 1.75D-09 XBig12= 5.12D-13 6.50D-08.
      8 vectors produced by pass 10 Test12= 4.87D-14 1.75D-09 XBig12= 6.43D-14 2.25D-08.
      8 vectors produced by pass 11 Test12= 4.87D-14 1.75D-09 XBig12= 8.90D-15 1.30D-08.
      8 vectors produced by pass 12 Test12= 4.87D-14 1.75D-09 XBig12= 3.19D-15 6.42D-09.
      8 vectors produced by pass 13 Test12= 4.87D-14 1.75D-09 XBig12= 2.59D-15 6.52D-09.
      8 vectors produced by pass 14 Test12= 4.87D-14 1.75D-09 XBig12= 1.66D-15 4.01D-09.
      8 vectors produced by pass 15 Test12= 4.87D-14 1.75D-09 XBig12= 1.27D-15 3.43D-09.
      8 vectors produced by pass 16 Test12= 4.87D-14 1.75D-09 XBig12= 1.46D-15 5.55D-09.
      8 vectors produced by pass 17 Test12= 4.87D-14 1.75D-09 XBig12= 9.97D-16 3.28D-09.
      8 vectors produced by pass 18 Test12= 4.87D-14 1.75D-09 XBig12= 1.26D-15 4.22D-09.
      5 vectors produced by pass 19 Test12= 4.87D-14 1.75D-09 XBig12= 7.85D-16 3.92D-09.
      4 vectors produced by pass 20 Test12= 4.87D-14 1.75D-09 XBig12= 9.25D-16 2.87D-09.
      4 vectors produced by pass 21 Test12= 4.87D-14 1.75D-09 XBig12= 7.53D-16 3.77D-09.
      3 vectors produced by pass 22 Test12= 4.87D-14 1.75D-09 XBig12= 9.85D-16 2.71D-09.
      3 vectors produced by pass 23 Test12= 4.87D-14 1.75D-09 XBig12= 7.08D-16 2.51D-09.
      3 vectors produced by pass 24 Test12= 4.87D-14 1.75D-09 XBig12= 6.15D-16 3.03D-09.
      1 vectors produced by pass 25 Test12= 4.87D-14 1.75D-09 XBig12= 5.86D-16 2.98D-09.
 Inverted reduced A of dimension   513 with in-core refinement.
 Isotropic polarizability for W=    0.000000       92.62 Bohr**3.
 End of Minotr Frequency-dependent properties file   721 does not exist.
 End of Minotr Frequency-dependent properties file   722 does not exist.
 Calling FoFJK, ICntrl=    100127 FMM=F ISym2X=0 I1Cent= 0 IOpClX= 1 NMat=1 NMatS=1 NMatT=0.
 -------------------------------------------------------------------
 Center     Atomic                   Forces (Hartrees/Bohr)
 Number     Number              X              Y              Z
 -------------------------------------------------------------------
      1        6          -0.000011266   -0.000037661   -0.000090687
      2        6          -0.000012629    0.000013557    0.000018221
      3        6          -0.000011178    0.000003454    0.000002808
      4        6          -0.000003412    0.000014503    0.000037782
      5        6          -0.000013845   -0.000009394   -0.000013902
      6        6          -0.000006997   -0.000010939    0.000004625
      7        6          -0.000003396    0.000006600    0.000038447
      8        8           0.000092796    0.000026416   -0.000134483
      9        1           0.000011415    0.000007732   -0.000023380
     10        1          -0.000009850   -0.000018121   -0.000015654
     11        1          -0.000000981   -0.000000729   -0.000001429
     12        1          -0.000002940   -0.000002659   -0.000002952
     13        1          -0.000000489   -0.000002496   -0.000000102
     14        1          -0.000000156    0.000001503    0.000005728
     15        1           0.000001124    0.000001504    0.000002134
     16        8           0.000079901   -0.000017858   -0.000002311
     17        8          -0.000095138    0.000010575    0.000010077
     18        1          -0.000012960    0.000014015    0.000165075
 -------------------------------------------------------------------
 Cartesian Forces:  Max     0.000165075 RMS     0.000040116
 IRC-IRC-IRC-IRC-IRC-IRC-IRC-IRC-IRC-IRC-IRC-IRC-IRC-IRC-IRC-IRC-IRC-IRC
 Error in corrector energy =           0.0000004682
 Magnitude of corrector gradient =     0.0002907168
 Magnitude of analytic gradient =      0.0002947913
 Magnitude of difference =             0.0001704084
 Angle between gradients (degrees)=   33.8318
 Pt  1 Step number   2 out of a maximum of  20
 CORRECTOR INTEGRATION CONVERGENCE:
   Recorrection delta-x convergence threshold:    0.010000
   Delta-x Convergence NOT Met
 IRC-IRC-IRC-IRC-IRC-IRC-IRC-IRC-IRC-IRC-IRC-IRC-IRC-IRC-IRC-IRC-IRC-IRC
                          Input orientation:                          
 ---------------------------------------------------------------------
 Center     Atomic      Atomic             Coordinates (Angstroms)
 Number     Number       Type             X           Y           Z
 ---------------------------------------------------------------------
[...]
    13  H    0.485685  -0.006938  -0.000073   0.000000   0.000000   0.000000
    14  H   -0.006938   0.487943  -0.006092   0.000000   0.000000   0.000007
    15  H   -0.000073  -0.006092   0.456567  -0.000011   0.000028  -0.001655
    16  O    0.000000   0.000000  -0.000011   7.629968   0.315720   0.003489
    17  O    0.000000   0.000000   0.000028   0.315720   7.640870  -0.001357
    18  H    0.000000   0.000007  -0.001655   0.003489  -0.001357   0.516562
 Mulliken atomic charges:
              1
     1  C   -0.656518
     2  C    0.468235
     3  C   -0.304826
     4  C   -0.058673
     5  C   -0.104744
     6  C   -0.183471
     7  C   -0.277038
     8  O   -0.280099
     9  H    0.177602
    10  H    0.180711
    11  H    0.153897
    12  H    0.146245
    13  H    0.145454
    14  H    0.147186
    15  H    0.161736
    16  O    0.020685
    17  O    0.031737
    18  H    0.231879
 Sum of Mulliken atomic charges =   0.00000
 Mulliken charges with hydrogens summed into heavy atoms:
              1
     1  C   -0.298205
     2  C    0.468235
     3  C   -0.150929
     4  C    0.103063
     5  C    0.041502
     6  C   -0.038017
     7  C   -0.129852
     8  O   -0.048220
    16  O    0.020685
    17  O    0.031737
 Sum of Mulliken charges with hydrogens summed into heavy atoms =   0.00000
          Atomic-Atomic Spin Densities.
              1          2          3          4          5          6
     1  C    0.273639  -0.267484   0.049943  -0.012311  -0.034683   0.004123
     2  C   -0.267484   0.334182  -0.060678   0.028797   0.006689  -0.025377
     3  C    0.049943  -0.060678   0.064268   0.009559  -0.012881   0.004816
     4  C   -0.012311   0.028797   0.009559   0.067837  -0.051513  -0.003166
     5  C   -0.034683   0.006689  -0.012881  -0.051513   0.078689  -0.001801
     6  C    0.004123  -0.025377   0.004816  -0.003166  -0.001801   0.024164
     7  C   -0.018459  -0.005888  -0.055222  -0.039575   0.015800  -0.002052
     8  O    0.001364  -0.000633  -0.000226  -0.001072  -0.002355  -0.000007
     9  H   -0.003933   0.005631  -0.004135   0.002215   0.000252  -0.000053
    10  H    0.004072  -0.001744  -0.004595   0.002276   0.000487  -0.000067
    11  H   -0.001380   0.002842  -0.001967   0.000940  -0.000311  -0.000271
    12  H    0.000077   0.000136   0.000066   0.000158  -0.000245  -0.000075
    13  H    0.000002  -0.000056   0.000088  -0.000137   0.000062  -0.000013
    14  H   -0.000072  -0.000129  -0.000207  -0.000105   0.000137   0.000038
    15  H   -0.000756   0.000119  -0.000570   0.002008   0.000224  -0.000007
    16  O    0.007358  -0.005835   0.000626  -0.000901   0.000105   0.000066
    17  O   -0.003696  -0.000936   0.001194   0.000939   0.000200  -0.000004
    18  H    0.002489  -0.002774   0.000100   0.001304   0.000600  -0.000058
              7          8          9         10         11         12
     1  C   -0.018459   0.001364  -0.003933   0.004072  -0.001380   0.000077
     2  C   -0.005888  -0.000633   0.005631  -0.001744   0.002842   0.000136
     3  C   -0.055222  -0.000226  -0.004135  -0.004595  -0.001967   0.000066
     4  C   -0.039575  -0.001072   0.002215   0.002276   0.000940   0.000158
     5  C    0.015800  -0.002355   0.000252   0.000487  -0.000311  -0.000245
     6  C   -0.002052  -0.000007  -0.000053  -0.000067  -0.000271  -0.000075
     7  C    0.103475   0.005866  -0.000039  -0.000671   0.000156  -0.000116
     8  O    0.005866  -0.005751   0.001125   0.000583   0.000045   0.000001
     9  H   -0.000039   0.001125  -0.001865   0.000095  -0.000040  -0.000001
    10  H   -0.000671   0.000583   0.000095  -0.002716  -0.000054  -0.000001
    11  H    0.000156   0.000045  -0.000040  -0.000054  -0.000015  -0.000004
    12  H   -0.000116   0.000001  -0.000001  -0.000001  -0.000004   0.000013
    13  H    0.000041   0.000000   0.000000   0.000000   0.000000   0.000001
    14  H    0.000351   0.000001   0.000000   0.000000   0.000000   0.000000
    15  H   -0.000998  -0.000019  -0.000014  -0.000012  -0.000002   0.000000
    16  O   -0.000885  -0.003896  -0.000457   0.001710   0.000008   0.000000
    17  O    0.000318   0.005267   0.000599  -0.000418  -0.000019   0.000000
    18  H   -0.001538   0.000592   0.000228   0.000090  -0.000003   0.000000
             13         14         15         16         17         18
     1  C    0.000002  -0.000072  -0.000756   0.007358  -0.003696   0.002489
     2  C   -0.000056  -0.000129   0.000119  -0.005835  -0.000936  -0.002774
     3  C    0.000088  -0.000207  -0.000570   0.000626   0.001194   0.000100
     4  C   -0.000137  -0.000105   0.002008  -0.000901   0.000939   0.001304
     5  C    0.000062   0.000137   0.000224   0.000105   0.000200   0.000600
     6  C   -0.000013   0.000038  -0.000007   0.000066  -0.000004  -0.000058
     7  C    0.000041   0.000351  -0.000998  -0.000885   0.000318  -0.001538
     8  O    0.000000   0.000001  -0.000019  -0.003896   0.005267   0.000592
     9  H    0.000000   0.000000  -0.000014  -0.000457   0.000599   0.000228
    10  H    0.000000   0.000000  -0.000012   0.001710  -0.000418   0.000090
    11  H    0.000000   0.000000  -0.000002   0.000008  -0.000019  -0.000003
    12  H    0.000001   0.000000   0.000000   0.000000   0.000000   0.000000
    13  H   -0.000026   0.000001   0.000000   0.000000   0.000000   0.000000
    14  H    0.000001  -0.000004  -0.000004   0.000000   0.000000   0.000000
    15  H    0.000000  -0.000004  -0.000132   0.000003  -0.000011  -0.000034
    16  O    0.000000   0.000000   0.000003   1.440749  -0.442434   0.000431
    17  O    0.000000   0.000000  -0.000011  -0.442434   1.437667  -0.000670
    18  H    0.000000   0.000000  -0.000034   0.000431  -0.000670   0.000507
 Mulliken atomic spin densities:
              1
     1  C    0.000293
     2  C    0.006860
     3  C   -0.009821
     4  C    0.007253
     5  C   -0.000544
     6  C    0.000256
     7  C    0.000565
     8  O    0.000884
     9  H   -0.000390
    10  H   -0.000967
    11  H   -0.000073
    12  H    0.000009
    13  H   -0.000037
    14  H    0.000007
    15  H   -0.000203
    16  O    0.996647
    17  O    0.997997
    18  H    0.001264
 Sum of Mulliken atomic spin densities =   2.00000
 APT atomic charges:
              1
     1  C    0.472208
     2  C    0.004136
     3  C   -0.079385
     4  C   -0.103209
     5  C   -0.022456
     6  C   -0.072187
     7  C   -0.008160
     8  O   -0.618870
     9  H   -0.048163
    10  H   -0.016439
    11  H    0.038411
    12  H    0.037449
    13  H    0.041400
    14  H    0.036193
    15  H    0.068177
    16  O   -0.003110
    17  O    0.001310
    18  H    0.272693
 Sum of APT charges=   0.00000
 APT Atomic charges with hydrogens summed into heavy atoms:
              1
     1  C    0.407606
     2  C    0.004136
     3  C   -0.040974
     4  C   -0.035031
     5  C    0.014993
     6  C   -0.030787
     7  C    0.028033
     8  O   -0.346176
     9  H    0.000000
    10  H    0.000000
    11  H    0.000000
    12  H    0.000000
    13  H    0.000000
    14  H    0.000000
    15  H    0.000000
    16  O   -0.003110
    17  O    0.001310
    18  H    0.000000
 Sum of APT charges=   0.00000
 Electronic spatial extent (au):  <R**2>=           2230.8299
 Charge=              0.0000 electrons
 Dipole moment (field-independent basis, Debye):
    X=              0.0344    Y=             -1.0262    Z=             -1.0130  Tot=              1.4424
 Quadrupole moment (field-independent basis, Debye-Ang):
   XX=            -55.2949   YY=            -57.2622   ZZ=            -58.0482
   XY=              1.2396   XZ=              1.5712   YZ=             -4.4750
 Traceless Quadrupole moment (field-independent basis, Debye-Ang):
   XX=              1.5736   YY=             -0.3938   ZZ=             -1.1798
   XY=              1.2396   XZ=              1.5712   YZ=             -4.4750
 Octapole moment (field-independent basis, Debye-Ang**2):
  XXX=            -35.8434  YYY=             -0.0766  ZZZ=              1.6907  XYY=            -12.5901
  XXY=             -1.5908  XXZ=             -4.4349  XZZ=            -29.4788  YZZ=              5.7620
  YYZ=             -0.8108  XYZ=             -3.3211
 Hexadecapole moment (field-independent basis, Debye-Ang**3):
 XXXX=          -2176.7057 YYYY=           -340.5011 ZZZZ=           -152.4111 XXXY=             35.1338
 XXXZ=             59.1932 YYYX=             43.6537 YYYZ=             38.3810 ZZZX=             79.3846
 ZZZY=             53.3029 XXYY=           -424.6750 XXZZ=           -423.5906 YYZZ=            -77.5468
 XXYZ=             -3.7501 YYXZ=             29.7064 ZZXY=             12.0469
 N-N= 4.737891105726D+02 E-N=-3.145993401987D+03  KE= 7.395618413985D+02
  Exact polarizability: 113.971  -2.975  90.263  -2.683 -14.395  72.584
 Approx polarizability: 130.968  -1.683 120.527  -2.731 -19.572  99.895
                          Isotropic Fermi Contact Couplings
        Atom                 a.u.       MegaHertz       Gauss      10(-4) cm-1
     1  C(13)              0.00040       0.22408       0.07996       0.07474
     2  C(13)              0.00006       0.03295       0.01176       0.01099
     3  C(13)              0.00005       0.02960       0.01056       0.00988
     4  C(13)              0.00004       0.02039       0.00728       0.00680
     5  C(13)             -0.00004      -0.02503      -0.00893      -0.00835
     6  C(13)              0.00006       0.03430       0.01224       0.01144
     7  C(13)             -0.00006      -0.03238      -0.01155      -0.01080
     8  O(17)              0.00049      -0.14862      -0.05303      -0.04957
     9  H(1)              -0.00007      -0.14750      -0.05263      -0.04920
    10  H(1)               0.00026       0.57289       0.20442       0.19110
    11  H(1)              -0.00001      -0.01496      -0.00534      -0.00499
    12  H(1)               0.00000       0.00575       0.00205       0.00192
    13  H(1)              -0.00001      -0.01568      -0.00559      -0.00523
    14  H(1)               0.00000       0.00807       0.00288       0.00269
    15  H(1)              -0.00001      -0.02045      -0.00730      -0.00682
    16  O(17)              0.18382     -55.71483     -19.88043     -18.58447
    17  O(17)              0.18536     -56.18085     -20.04672     -18.73991
    18  H(1)               0.00002       0.04201       0.01499       0.01401
 --------------------------------------------------------
       Center         ----  Spin Dipole Couplings  ----
                      3XX-RR        3YY-RR        3ZZ-RR
 --------------------------------------------------------
     1   Atom        0.014637     -0.010420     -0.004217
     2   Atom        0.005890     -0.002866     -0.003024
     3   Atom        0.003270     -0.001812     -0.001458
     4   Atom        0.002694     -0.001423     -0.001271
     5   Atom        0.001902     -0.000841     -0.001060
     6   Atom        0.001193     -0.000860     -0.000333
     7   Atom        0.001718     -0.000770     -0.000948
     8   Atom        0.016839     -0.005237     -0.011602
     9   Atom        0.018490     -0.010297     -0.008193
    10   Atom        0.019401     -0.011435     -0.007966
    11   Atom        0.003484     -0.001382     -0.002102
    12   Atom        0.001267     -0.000565     -0.000702
    13   Atom        0.000976     -0.000506     -0.000470
    14   Atom        0.001097     -0.000523     -0.000574
    15   Atom        0.002496     -0.000991     -0.001505
    16   Atom        1.246768      1.243613     -2.490380
    17   Atom        1.248655      1.246290     -2.494944
    18   Atom        0.006266     -0.003168     -0.003097
 --------------------------------------------------------
                        XY            XZ            YZ
 --------------------------------------------------------
     1   Atom        0.001852     -0.002546      0.000473
     2   Atom        0.000216     -0.000803     -0.000216
     3   Atom       -0.000967      0.000117      0.000204
     4   Atom        0.001089     -0.000657      0.000158
     5   Atom       -0.000454     -0.000043     -0.000095
     6   Atom        0.000014     -0.000097      0.000240
     7   Atom        0.000397     -0.000380     -0.000160
     8   Atom        0.015905     -0.000231     -0.001066
     9   Atom       -0.006310     -0.007684      0.001728
    10   Atom        0.001134      0.005681     -0.000307
    11   Atom       -0.002172      0.000487     -0.000214
    12   Atom       -0.000538      0.000077     -0.000026
    13   Atom       -0.000022     -0.000104      0.000011
    14   Atom        0.000448     -0.000322     -0.000089
    15   Atom        0.001844     -0.001015     -0.000470
    16   Atom        0.044008     -0.310717      0.387390
    17   Atom        0.024173     -0.314157      0.402098
    18   Atom        0.009210     -0.007992     -0.005104
 --------------------------------------------------------


 ---------------------------------------------------------------------------------
              Anisotropic Spin Dipole Couplings in Principal Axis System
 ---------------------------------------------------------------------------------

       Atom             a.u.   MegaHertz   Gauss  10(-4) cm-1        Axes

              Baa    -0.0106    -1.426    -0.509    -0.476 -0.0834  0.9908 -0.1062
     1 C(13)  Bbb    -0.0045    -0.600    -0.214    -0.200  0.1201  0.1158  0.9860
              Bcc     0.0151     2.026     0.723     0.676  0.9893  0.0694 -0.1287
 
              Baa    -0.0032    -0.431    -0.154    -0.144  0.0641  0.5022  0.8623
     2 C(13)  Bbb    -0.0028    -0.370    -0.132    -0.123 -0.0678  0.8643 -0.4983
              Bcc     0.0060     0.801     0.286     0.267  0.9956  0.0265 -0.0895
 
              Baa    -0.0021    -0.278    -0.099    -0.093  0.1747  0.9238 -0.3407
     3 C(13)  Bbb    -0.0014    -0.185    -0.066    -0.062  0.0466  0.3379  0.9400
              Bcc     0.0034     0.463     0.165     0.154  0.9835 -0.1801  0.0160
 
              Baa    -0.0019    -0.252    -0.090    -0.084 -0.2681  0.8203 -0.5053
     4 C(13)  Bbb    -0.0012    -0.157    -0.056    -0.052 -0.0029  0.5238  0.8519
              Bcc     0.0030     0.409     0.146     0.136  0.9634  0.2298 -0.1380
 
              Baa    -0.0011    -0.149    -0.053    -0.050  0.0801  0.4481  0.8904
     5 C(13)  Bbb    -0.0009    -0.116    -0.041    -0.039  0.1375  0.8798 -0.4551
              Bcc     0.0020     0.265     0.095     0.088  0.9873 -0.1588 -0.0089
 
              Baa    -0.0010    -0.128    -0.046    -0.043 -0.0222  0.9312 -0.3639
     6 C(13)  Bbb    -0.0002    -0.033    -0.012    -0.011  0.0590  0.3645  0.9293
              Bcc     0.0012     0.161     0.057     0.054  0.9980 -0.0008 -0.0630
 
              Baa    -0.0010    -0.141    -0.050    -0.047  0.0626  0.4270  0.9021
     7 C(13)  Bbb    -0.0008    -0.106    -0.038    -0.035 -0.2031  0.8904 -0.4074
              Bcc     0.0018     0.247     0.088     0.082  0.9772  0.1577 -0.1424
 
              Baa    -0.0139     1.004     0.358     0.335 -0.4291  0.8335  0.3481
     8 O(17)  Bbb    -0.0113     0.818     0.292     0.273  0.1773 -0.3002  0.9372
              Bcc     0.0252    -1.822    -0.650    -0.608  0.8857  0.4639 -0.0190
 
              Baa    -0.0116    -6.204    -2.214    -2.069  0.1851  0.9796 -0.0788
     9 H(1)   Bbb    -0.0102    -5.467    -1.951    -1.824  0.2639  0.0277  0.9642
              Bcc     0.0219    11.671     4.165     3.893  0.9466 -0.1993 -0.2534
 
              Baa    -0.0116    -6.178    -2.205    -2.061 -0.0717  0.9780  0.1957
    10 H(1)   Bbb    -0.0090    -4.796    -1.711    -1.600 -0.1841 -0.2058  0.9611
              Bcc     0.0206    10.974     3.916     3.661  0.9803  0.0329  0.1948
 
              Baa    -0.0022    -1.184    -0.423    -0.395  0.3098  0.8893  0.3364
    11 H(1)   Bbb    -0.0021    -1.140    -0.407    -0.380 -0.1924 -0.2878  0.9381
              Bcc     0.0044     2.324     0.829     0.775  0.9311 -0.3554  0.0819
 
              Baa    -0.0007    -0.381    -0.136    -0.127  0.2207  0.8743  0.4323
    12 H(1)   Bbb    -0.0007    -0.375    -0.134    -0.125 -0.1470 -0.4084  0.9009
              Bcc     0.0014     0.756     0.270     0.252  0.9642 -0.2624  0.0384
 
              Baa    -0.0005    -0.272    -0.097    -0.091 -0.0069  0.9553 -0.2954
    13 H(1)   Bbb    -0.0005    -0.253    -0.090    -0.085  0.0728  0.2951  0.9527
              Bcc     0.0010     0.525     0.187     0.175  0.9973 -0.0149 -0.0716
 
              Baa    -0.0006    -0.343    -0.122    -0.114 -0.1171  0.8377  0.5335
    14 H(1)   Bbb    -0.0006    -0.337    -0.120    -0.112  0.2807 -0.4873  0.8269
              Bcc     0.0013     0.679     0.242     0.227  0.9526  0.2466 -0.1780
 
              Baa    -0.0018    -0.962    -0.343    -0.321 -0.2427  0.8362  0.4919
    15 H(1)   Bbb    -0.0017    -0.926    -0.330    -0.309  0.3715 -0.3883  0.8433
              Bcc     0.0035     1.888     0.674     0.630  0.8961  0.3874 -0.2165
 
              Baa    -2.5560   184.951    65.995    61.693  0.0822 -0.1020  0.9914
    16 O(17)  Bbb     1.2648   -91.523   -32.658   -30.529  0.8364 -0.5339 -0.1243
              Bcc     1.2912   -93.427   -33.337   -31.164  0.5419  0.8394  0.0415
 
              Baa    -2.5637   185.507    66.194    61.878  0.0823 -0.1051  0.9910
    17 O(17)  Bbb     1.2702   -91.914   -32.797   -30.659  0.8963  0.4425 -0.0275
              Bcc     1.2935   -93.593   -33.396   -31.219 -0.4357  0.8906  0.1307
 
              Baa    -0.0088    -4.708    -1.680    -1.570 -0.4642  0.8757  0.1327
    18 H(1)   Bbb    -0.0077    -4.088    -1.459    -1.364  0.4443  0.1006  0.8902
              Bcc     0.0165     8.796     3.139     2.934  0.7662  0.4722 -0.4358
 

 ---------------------------------------------------------------------------------

 -------------------------------------------------------------------
 Center     Atomic                   Forces (Hartrees/Bohr)
 Number     Number              X              Y              Z
 -------------------------------------------------------------------
      1        6           0.000010673    0.000214045    0.000748593
      2        6          -0.000016466    0.000090791    0.000141357
      3        6          -0.000000106   -0.000072504   -0.000222599
      4        6           0.000057052    0.000085747    0.000209528
      5        6          -0.000014725   -0.000080239   -0.000236972
      6        6           0.000022819   -0.000035427   -0.000124365
      7        6           0.000049272    0.000015133    0.000008518
      8        8          -0.001214432   -0.000573264   -0.001800342
      9        1          -0.000005886   -0.000048749    0.000180368
     10        1           0.000047199    0.000146832    0.000085452
     11        1          -0.000001996   -0.000009997   -0.000033586
     12        1          -0.000003196   -0.000011754   -0.000031130
     13        1           0.000001336   -0.000005108   -0.000013342
     14        1           0.000003832    0.000003556    0.000006241
     15        1           0.000028921    0.000032718    0.000049592
     16        8          -0.000220596   -0.000212122   -0.000107441
     17        8           0.000221807    0.000253722   -0.000113542
     18        1           0.001034492    0.000206618    0.001253669
 -------------------------------------------------------------------
 Cartesian Forces:  Max     0.001800342 RMS     0.000405080

 This type of calculation cannot be archived.


 THOSE WHO TRY TO PASS CHEMISTRY OFF AS A NEW SCIENCE
 SHOW HOW LITTLE KNOWLEDGE THEY HAVE OF THE CHARACTER
 AND LITERATURE OF THE ANCIENTS.
   -- NICOLAS LEFEVRE
 "COURS DE CHYMIE" J.-N.LELOUP, PARIS, 1751
 Job cpu time: 14 days 19 hours  3 minutes 18.4 seconds.
 File lengths (MBytes):  RWF=   2544 Int=      0 D2E=      0 Chk=     48 Scr=     32
 Normal termination of Gaussian 09 at Mon Oct  2 03:24:50 2017.
