 Entering Gaussian System, Link 0=/shared/apps/gaussian/G09_LINUX_LINDA/g09/g09
 Input=/gss_gpfs_scratch/harms.n/QMscratch/[O]CC1C=CC=CC=1+[O]O_OO+[O][CH]C1C=CC=CC=1Est.gjf
 Output=/gss_gpfs_scratch/harms.n/QMscratch/[O]CC1C=CC=CC=1+[O]O_OO+[O][CH]C1C=CC=CC=1Est.log
 Initial command:
 /shared/apps/gaussian/G09_LINUX_LINDA/g09/l1.exe /gss_gpfs_scratch/harms.n/comparerTST/Gau-7331.inp -scrdir=/gss_gpfs_scratch/harms.n/comparerTST/
 Entering Link 1 = /shared/apps/gaussian/G09_LINUX_LINDA/g09/l1.exe PID=      7333.
  
 Copyright (c) 1988,1990,1992,1993,1995,1998,2003,2009,2010,
            Gaussian, Inc.  All Rights Reserved.
  
 This is part of the Gaussian(R) 09 program.  It is based on
 the Gaussian(R) 03 system (copyright 2003, Gaussian, Inc.),
 the Gaussian(R) 98 system (copyright 1998, Gaussian, Inc.),
 the Gaussian(R) 94 system (copyright 1995, Gaussian, Inc.),
 the Gaussian 92(TM) system (copyright 1992, Gaussian, Inc.),
 the Gaussian 90(TM) system (copyright 1990, Gaussian, Inc.),
 the Gaussian 88(TM) system (copyright 1988, Gaussian, Inc.),
 the Gaussian 86(TM) system (copyright 1986, Carnegie Mellon
 University), and the Gaussian 82(TM) system (copyright 1983,
 Carnegie Mellon University). Gaussian is a federally registered
 trademark of Gaussian, Inc.
  
 This software contains proprietary and confidential information,
 including trade secrets, belonging to Gaussian, Inc.
  
 This software is provided under written license and may be
 used, copied, transmitted, or stored only in accord with that
 written license.
  
 The following legend is applicable only to US Government
 contracts under FAR:
  
                    RESTRICTED RIGHTS LEGEND
  
 Use, reproduction and disclosure by the US Government is
 subject to restrictions as set forth in subparagraphs (a)
 and (c) of the Commercial Computer Software - Restricted
 Rights clause in FAR 52.227-19.
  
 Gaussian, Inc.
 340 Quinnipiac St., Bldg. 40, Wallingford CT 06492
  
  
 ---------------------------------------------------------------
 Warning -- This program may not be used in any manner that
 competes with the business of Gaussian, Inc. or will provide
 assistance to any competitor of Gaussian, Inc.  The licensee
 of this program is prohibited from giving any competitor of
 Gaussian, Inc. access to this program.  By using this program,
 the user acknowledges that Gaussian, Inc. is engaged in the
 business of creating and licensing software in the field of
 computational chemistry and represents and warrants to the
 licensee that it is not a competitor of Gaussian, Inc. and that
 it will not use this program in any manner prohibited above.
 ---------------------------------------------------------------
  

 Cite this work as:
 Gaussian 09, Revision B.01,
 M. J. Frisch, G. W. Trucks, H. B. Schlegel, G. E. Scuseria, 
 M. A. Robb, J. R. Cheeseman, G. Scalmani, V. Barone, B. Mennucci, 
 G. A. Petersson, H. Nakatsuji, M. Caricato, X. Li, H. P. Hratchian, 
 A. F. Izmaylov, J. Bloino, G. Zheng, J. L. Sonnenberg, M. Hada, 
 M. Ehara, K. Toyota, R. Fukuda, J. Hasegawa, M. Ishida, T. Nakajima, 
 Y. Honda, O. Kitao, H. Nakai, T. Vreven, J. A. Montgomery, Jr., 
 J. E. Peralta, F. Ogliaro, M. Bearpark, J. J. Heyd, E. Brothers, 
 K. N. Kudin, V. N. Staroverov, T. Keith, R. Kobayashi, J. Normand, 
 K. Raghavachari, A. Rendell, J. C. Burant, S. S. Iyengar, J. Tomasi, 
 M. Cossi, N. Rega, J. M. Millam, M. Klene, J. E. Knox, J. B. Cross, 
 V. Bakken, C. Adamo, J. Jaramillo, R. Gomperts, R. E. Stratmann, 
 O. Yazyev, A. J. Austin, R. Cammi, C. Pomelli, J. W. Ochterski, 
 R. L. Martin, K. Morokuma, V. G. Zakrzewski, G. A. Voth, 
 P. Salvador, J. J. Dannenberg, S. Dapprich, A. D. Daniels, 
 O. Farkas, J. B. Foresman, J. V. Ortiz, J. Cioslowski, 
 and D. J. Fox, Gaussian, Inc., Wallingford CT, 2010.
 
 ******************************************
 Gaussian 09:  EM64L-G09RevB.01 12-Aug-2010
                29-Sep-2017 
 ******************************************
 %nprocshared=20
 Will use up to   20 processors via shared memory.
 %mem=5GB
 ----------------------------------------------------------
 # m062x/6-311+g(2df,2p) Opt=(ModRedun,Loose) Int(Grid=SG1)
 ----------------------------------------------------------
 1/7=-1,14=-1,18=120,19=15,26=2,38=1/1,3;
 2/9=110,12=2,17=6,18=5,40=1/2;
 3/5=4,6=6,7=214,11=2,16=1,25=1,30=1,71=1,74=-55,75=1/1,2,3;
 4//1;
 5/5=2,38=5/2;
 6/7=2,8=2,9=2,10=2,28=1/1;
 7//1,2,3,16;
 1/7=-1,14=-1,18=20,19=15/3(2);
 2/9=110/2;
 99//99;
 2/9=110/2;
 3/5=4,6=6,7=214,11=2,16=1,25=1,30=1,71=1,74=-55,75=1/1,2,3;
 4/5=5,16=3/1;
 5/5=2,38=5/2;
 7//1,2,3,16;
 1/7=-1,14=-1,18=20,19=15/3(-5);
 2/9=110/2;
 6/7=2,8=2,9=2,10=2,19=2,28=1/1;
 99/9=1/99;
 ------------------------------------------
 [O]CC1C=CC=CC=1+[O]O_OO+[O][CH]C1C=CC=CC=1
 ------------------------------------------
 Symbolic Z-matrix:
 Charge =  0 Multiplicity = 3
 C                    -1.244    -1.4434    0.2033 
 C                     0.1489   -0.9969    0.1608 
 C                     0.732    -0.7854   -1.066 
 C                     0.6173   -0.2387    1.2155 
 C                     1.7619    0.1293   -1.2478 
 C                     2.2438    0.8148   -0.1578 
 C                     1.6187    0.712     1.0625 
 O                    -1.726    -1.7384    1.4517 
 H                    -1.915    -0.355    -0.1146 
 H                    -1.5544   -2.1101   -0.6018 
 H                     0.1879   -1.0598   -1.9649 
 H                     2.1166    0.4328   -2.2199 
 H                     3.1013    1.4559   -0.2181 
 H                     2.0406    1.2008    1.9385 
 H                     0.2969   -0.5597    2.2054 
 O                    -2.9612    1.8389   -0.5193 
 O                    -2.6184    0.5583   -0.5507 
 H                    -2.8468    2.1447    0.4233 
 
 The following ModRedundant input section has been read:
 B       1       9 F                                                           
 B       1      17 F                                                           
 B       9      17 F                                                           

 GradGradGradGradGradGradGradGradGradGradGradGradGradGradGradGradGradGrad
 Berny optimization.
 Initialization pass.
                           ----------------------------
                           !    Initial Parameters    !
                           ! (Angstroms and Degrees)  !
 --------------------------                            --------------------------
 ! Name  Definition              Value          Derivative Info.                !
 --------------------------------------------------------------------------------
 ! R1    R(1,2)                  1.4633         estimate D2E/DX2                !
 ! R2    R(1,8)                  1.3703         estimate D2E/DX2                !
 ! R3    R(1,9)                  1.3175         Frozen                          !
 ! R4    R(1,10)                 1.0904         estimate D2E/DX2                !
 ! R5    R(1,17)                 2.5425         Frozen                          !
 ! R6    R(2,3)                  1.3747         estimate D2E/DX2                !
 ! R7    R(2,4)                  1.3808         estimate D2E/DX2                !
 ! R8    R(3,5)                  1.3894         estimate D2E/DX2                !
 ! R9    R(3,11)                 1.086          estimate D2E/DX2                !
 ! R10   R(4,7)                  1.3893         estimate D2E/DX2                !
 ! R11   R(4,15)                 1.0889         estimate D2E/DX2                !
 ! R12   R(5,6)                  1.3749         estimate D2E/DX2                !
 ! R13   R(5,12)                 1.0784         estimate D2E/DX2                !
 ! R14   R(6,7)                  1.3749         estimate D2E/DX2                !
 ! R15   R(6,13)                 1.0724         estimate D2E/DX2                !
 ! R16   R(7,14)                 1.0883         estimate D2E/DX2                !
 ! R17   R(9,17)                 1.2325         Frozen                          !
 ! R18   R(16,17)                1.3261         estimate D2E/DX2                !
 ! R19   R(16,18)                0.9975         estimate D2E/DX2                !
 ! A1    A(2,1,8)              115.2742         estimate D2E/DX2                !
 ! A2    A(2,1,9)              103.0442         estimate D2E/DX2                !
 ! A3    A(2,1,10)             115.8536         estimate D2E/DX2                !
 ! A4    A(8,1,9)              102.6217         estimate D2E/DX2                !
 ! A5    A(8,1,10)             116.1604         estimate D2E/DX2                !
 ! A6    A(9,1,10)             100.4839         estimate D2E/DX2                !
 ! A7    A(1,2,3)              118.4646         estimate D2E/DX2                !
 ! A8    A(1,2,4)              117.9208         estimate D2E/DX2                !
 ! A9    A(3,2,4)              116.9546         estimate D2E/DX2                !
 ! A10   A(2,3,5)              122.173          estimate D2E/DX2                !
 ! A11   A(2,3,11)             119.1625         estimate D2E/DX2                !
 ! A12   A(5,3,11)             115.431          estimate D2E/DX2                !
 ! A13   A(2,4,7)              122.4221         estimate D2E/DX2                !
 ! A14   A(2,4,15)             115.64           estimate D2E/DX2                !
 ! A15   A(7,4,15)             120.9285         estimate D2E/DX2                !
 ! A16   A(3,5,6)              118.9684         estimate D2E/DX2                !
 ! A17   A(3,5,12)             123.1649         estimate D2E/DX2                !
 ! A18   A(6,5,12)             117.3264         estimate D2E/DX2                !
 ! A19   A(5,6,7)              120.4648         estimate D2E/DX2                !
 ! A20   A(5,6,13)             122.2613         estimate D2E/DX2                !
 ! A21   A(7,6,13)             117.268          estimate D2E/DX2                !
 ! A22   A(4,7,6)              118.4649         estimate D2E/DX2                !
 ! A23   A(4,7,14)             119.8789         estimate D2E/DX2                !
 ! A24   A(6,7,14)             120.3039         estimate D2E/DX2                !
 ! A25   A(1,9,17)             171.1748         estimate D2E/DX2                !
 ! A26   A(17,16,18)           106.7845         estimate D2E/DX2                !
 ! A27   A(9,17,16)            148.7335         estimate D2E/DX2                !
 ! D1    D(8,1,2,3)            174.912          estimate D2E/DX2                !
 ! D2    D(8,1,2,4)            -34.5302         estimate D2E/DX2                !
 ! D3    D(9,1,2,3)            -74.1454         estimate D2E/DX2                !
 ! D4    D(9,1,2,4)             76.4124         estimate D2E/DX2                !
 ! D5    D(10,1,2,3)            34.5065         estimate D2E/DX2                !
 ! D6    D(10,1,2,4)          -174.9357         estimate D2E/DX2                !
 ! D7    D(2,1,9,17)           124.1168         estimate D2E/DX2                !
 ! D8    D(8,1,9,17)          -115.8175         estimate D2E/DX2                !
 ! D9    D(10,1,9,17)            4.2428         estimate D2E/DX2                !
 ! D10   D(1,2,3,5)            151.9103         estimate D2E/DX2                !
 ! D11   D(1,2,3,11)            -6.8399         estimate D2E/DX2                !
 ! D12   D(4,2,3,5)              1.071          estimate D2E/DX2                !
 ! D13   D(4,2,3,11)          -157.6793         estimate D2E/DX2                !
 ! D14   D(1,2,4,7)           -150.175          estimate D2E/DX2                !
 ! D15   D(1,2,4,15)            41.2324         estimate D2E/DX2                !
 ! D16   D(3,2,4,7)              0.8265         estimate D2E/DX2                !
 ! D17   D(3,2,4,15)          -167.7661         estimate D2E/DX2                !
 ! D18   D(2,3,5,6)              2.1432         estimate D2E/DX2                !
 ! D19   D(2,3,5,12)          -169.1932         estimate D2E/DX2                !
 ! D20   D(11,3,5,6)           161.6284         estimate D2E/DX2                !
 ! D21   D(11,3,5,12)           -9.708          estimate D2E/DX2                !
 ! D22   D(2,4,7,6)             -5.8721         estimate D2E/DX2                !
 ! D23   D(2,4,7,14)          -172.6408         estimate D2E/DX2                !
 ! D24   D(15,4,7,6)           162.1307         estimate D2E/DX2                !
 ! D25   D(15,4,7,14)           -4.638          estimate D2E/DX2                !
 ! D26   D(3,5,6,7)             -7.3421         estimate D2E/DX2                !
 ! D27   D(3,5,6,13)           173.5608         estimate D2E/DX2                !
 ! D28   D(12,5,6,7)           164.4982         estimate D2E/DX2                !
 ! D29   D(12,5,6,13)          -14.599          estimate D2E/DX2                !
 ! D30   D(5,6,7,4)              9.1057         estimate D2E/DX2                !
 ! D31   D(5,6,7,14)           175.8164         estimate D2E/DX2                !
 ! D32   D(13,6,7,4)          -171.7532         estimate D2E/DX2                !
 ! D33   D(13,6,7,14)           -5.0425         estimate D2E/DX2                !
 ! D34   D(1,9,17,16)         -173.1679         estimate D2E/DX2                !
 ! D35   D(18,16,17,9)         -32.419          estimate D2E/DX2                !
 --------------------------------------------------------------------------------
 Trust Radius=3.00D-01 FncErr=1.00D-05 GrdErr=1.00D-04
 Number of steps in this run=     91 maximum allowed number of steps=    108.
 GradGradGradGradGradGradGradGradGradGradGradGradGradGradGradGradGradGrad

                          Input orientation:                          
 ---------------------------------------------------------------------
 Center     Atomic      Atomic             Coordinates (Angstroms)
 Number     Number       Type             X           Y           Z
 ---------------------------------------------------------------------
      1          6           0       -1.244000   -1.443400    0.203300
      2          6           0        0.148900   -0.996900    0.160800
      3          6           0        0.732000   -0.785400   -1.066000
      4          6           0        0.617300   -0.238700    1.215500
      5          6           0        1.761900    0.129300   -1.247800
      6          6           0        2.243800    0.814800   -0.157800
      7          6           0        1.618700    0.712000    1.062500
      8          8           0       -1.726000   -1.738400    1.451700
      9          1           0       -1.915000   -0.355000   -0.114600
     10          1           0       -1.554400   -2.110100   -0.601800
     11          1           0        0.187900   -1.059800   -1.964900
     12          1           0        2.116600    0.432800   -2.219900
     13          1           0        3.101300    1.455900   -0.218100
     14          1           0        2.040600    1.200800    1.938500
     15          1           0        0.296900   -0.559700    2.205400
     16          8           0       -2.961200    1.838900   -0.519300
     17          8           0       -2.618400    0.558300   -0.550700
     18          1           0       -2.846800    2.144700    0.423300
 ---------------------------------------------------------------------
                    Distance matrix (angstroms):
                    1          2          3          4          5
     1  C    0.000000
     2  C    1.463331   0.000000
     3  C    2.438988   1.374691   0.000000
     4  C    2.437271   1.380818   2.348889   0.000000
     5  C    3.689785   2.419556   1.389396   2.741055   0.000000
     6  C    4.170685   2.787897   2.381388   2.375146   1.374859
     7  C    3.684973   2.427697   2.749356   1.389259   2.386950
     8  O    1.370347   2.394054   3.645379   2.792122   4.789682
     9  H    1.317542   2.178891   2.845525   2.862732   3.877922
    10  H    1.090423   2.173017   2.682897   3.394260   4.053403
    11  H    2.626514   2.126988   1.085984   3.312632   2.098968
    12  H    4.548149   3.403471   2.175457   3.807990   1.078380
    13  H    5.240720   3.857001   3.369858   3.331236   2.148055
    14  H    4.559749   3.401269   3.832029   2.149575   3.373173
    15  H    2.676509   2.096053   3.307916   1.088852   3.813861
    16  O    3.774178   4.263452   4.563503   4.486827   5.075541
    17  O    2.542498   3.253126   3.646402   3.771528   4.456121
    18  H    3.935966   4.348882   4.859147   4.278804   5.300427
                    6          7          8          9         10
     6  C    0.000000
     7  C    1.374936   0.000000
     8  O    4.986846   4.164487   0.000000
     9  H    4.320407   3.874415   2.098288   0.000000
    10  H    4.814405   4.560998   2.093913   1.856818   0.000000
    11  H    3.317599   3.788352   3.974502   2.888346   2.448833
    12  H    2.101038   3.331667   5.741109   4.615920   4.749824
    13  H    1.072358   2.095573   6.024501   5.334167   5.877000
    14  H    2.141205   1.088256   4.802410   4.720435   5.508104
    15  H    3.356246   2.161156   2.459578   3.211978   3.702894
    16  O    5.317094   4.974684   4.267041   2.464044   4.192910
    17  O    4.884788   4.536414   3.175030   1.232506   2.873163
    18  H    5.293441   4.733064   4.170403   2.721413   4.563382
                   11         12         13         14         15
    11  H    0.000000
    12  H    2.452094   0.000000
    13  H    4.227051   2.454296   0.000000
    14  H    4.876407   4.229408   2.416833   0.000000
    15  H    4.201593   4.886680   4.219082   2.492205   0.000000
    16  O    4.517638   5.536534   6.082049   5.609452   4.877754
    17  O    3.534619   5.022171   5.799248   5.321203   4.164731
    18  H    5.018139   5.878133   6.022104   5.203216   4.513592
                   16         17         18
    16  O    0.000000
    17  O    1.326060   0.000000
    18  H    0.997545   1.875502   0.000000
 Stoichiometry    C7H8O3(3)
 Framework group  C1[X(C7H8O3)]
 Deg. of freedom    48
 Full point group                 C1      NOp   1
 Largest Abelian subgroup         C1      NOp   1
 Largest concise Abelian subgroup C1      NOp   1
                         Standard orientation:                         
 ---------------------------------------------------------------------
 Center     Atomic      Atomic             Coordinates (Angstroms)
 Number     Number       Type             X           Y           Z
 ---------------------------------------------------------------------
      1          6           0       -0.934021    1.278492    0.578125
      2          6           0        0.453365    0.865234    0.364307
      3          6           0        1.051074    0.063693    1.307732
      4          6           0        0.896688    0.737447   -0.937151
      5          6           0        2.071370   -0.822861    0.986112
      6          6           0        2.528642   -0.870111   -0.309615
      7          6           0        1.887607   -0.165649   -1.301209
      8          8           0       -1.429861    2.162661   -0.343958
      9          1           0       -1.614643    0.180497    0.319134
     10          1           0       -1.224134    1.451873    1.614849
     11          1           0        0.523494   -0.148279    2.232983
     12          1           0        2.435883   -1.575062    1.667454
     13          1           0        3.378429   -1.458336   -0.595631
     14          1           0        2.290523   -0.150057   -2.312009
     15          1           0        0.566445    1.513578   -1.625744
     16          8           0       -2.683664   -1.915435   -0.412834
     17          8           0       -2.323677   -0.825328    0.250875
     18          1           0       -2.586739   -1.706866   -1.383504
 ---------------------------------------------------------------------
 Rotational constants (GHZ):      1.6551045      0.8840231      0.7384187
 Standard basis: 6-311+G(2df,2p) (5D, 7F)
 There are   412 symmetry adapted basis functions of A   symmetry.
 Integral buffers will be    131072 words long.
 Raffenetti 2 integral format.
 Two-electron integral symmetry is turned on.
   412 basis functions,   608 primitive gaussians,   462 cartesian basis functions
    38 alpha electrons       36 beta electrons
       nuclear repulsion energy       493.9458409388 Hartrees.
 NAtoms=   18 NActive=   18 NUniq=   18 SFac= 1.00D+00 NAtFMM=   50 NAOKFM=F Big=F
 One-electron integrals computed using PRISM.
 NBasis=   412 RedAO= T  NBF=   412
 NBsUse=   412 1.00D-06 NBFU=   412
 Harris functional with IExCor= 1009 diagonalized for initial guess.
 ExpMin= 4.38D-02 ExpMax= 8.59D+03 ExpMxC= 1.30D+03 IAcc=2 IRadAn=         1 AccDes= 0.00D+00
 HarFok:  IExCor= 1009 AccDes= 0.00D+00 IRadAn=         1 IDoV= 1
 ScaDFX=  1.000000  1.000000  1.000000  1.000000
 FoFCou: FMM=F IPFlag=           0 FMFlag=      100000 FMFlg1=           0
         NFxFlg=           0 DoJE=T BraDBF=F KetDBF=T FulRan=T
         Omega=  0.000000  0.000000  1.000000  0.000000  0.000000 ICntrl=     500 IOpCl=  0
         NMat0=    1 NMatS0=    1 NMatT0=    0 NMatD0=    1 NMtDS0=    0 NMtDT0=    0
         I1Cent=           4 NGrid=           0.
 Petite list used in FoFCou.
 Initial guess orbital symmetries:
 Alpha Orbitals:
       Occupied  (A) (A) (A) (A) (A) (A) (A) (A) (A) (A) (A) (A)
                 (A) (A) (A) (A) (A) (A) (A) (A) (A) (A) (A) (A)
                 (A) (A) (A) (A) (A) (A) (A) (A) (A) (A) (A) (A)
                 (A) (A)
       Virtual   (A) (A) (A) (A) (A) (A) (A) (A) (A) (A) (A) (A)
                 (A) (A) (A) (A) (A) (A) (A) (A) (A) (A) (A) (A)
                 (A) (A) (A) (A) (A) (A) (A) (A) (A) (A) (A) (A)
                 (A) (A) (A) (A) (A) (A) (A) (A) (A) (A) (A) (A)
                 (A) (A) (A) (A) (A) (A) (A) (A) (A) (A) (A) (A)
                 (A) (A) (A) (A) (A) (A) (A) (A) (A) (A) (A) (A)
                 (A) (A) (A) (A) (A) (A) (A) (A) (A) (A) (A) (A)
                 (A) (A) (A) (A) (A) (A) (A) (A) (A) (A) (A) (A)
                 (A) (A) (A) (A) (A) (A) (A) (A) (A) (A) (A) (A)
                 (A) (A) (A) (A) (A) (A) (A) (A) (A) (A) (A) (A)
                 (A) (A) (A) (A) (A) (A) (A) (A) (A) (A) (A) (A)
                 (A) (A) (A) (A) (A) (A) (A) (A) (A) (A) (A) (A)
                 (A) (A) (A) (A) (A) (A) (A) (A) (A) (A) (A) (A)
                 (A) (A) (A) (A) (A) (A) (A) (A) (A) (A) (A) (A)
                 (A) (A) (A) (A) (A) (A) (A) (A) (A) (A) (A) (A)
                 (A) (A) (A) (A) (A) (A) (A) (A) (A) (A) (A) (A)
                 (A) (A) (A) (A) (A) (A) (A) (A) (A) (A) (A) (A)
                 (A) (A) (A) (A) (A) (A) (A) (A) (A) (A) (A) (A)
                 (A) (A) (A) (A) (A) (A) (A) (A) (A) (A) (A) (A)
                 (A) (A) (A) (A) (A) (A) (A) (A) (A) (A) (A) (A)
                 (A) (A) (A) (A) (A) (A) (A) (A) (A) (A) (A) (A)
                 (A) (A) (A) (A) (A) (A) (A) (A) (A) (A) (A) (A)
                 (A) (A) (A) (A) (A) (A) (A) (A) (A) (A) (A) (A)
                 (A) (A) (A) (A) (A) (A) (A) (A) (A) (A) (A) (A)
                 (A) (A) (A) (A) (A) (A) (A) (A) (A) (A) (A) (A)
                 (A) (A) (A) (A) (A) (A) (A) (A) (A) (A) (A) (A)
                 (A) (A) (A) (A) (A) (A) (A) (A) (A) (A) (A) (A)
                 (A) (A) (A) (A) (A) (A) (A) (A) (A) (A) (A) (A)
                 (A) (A) (A) (A) (A) (A) (A) (A) (A) (A) (A) (A)
                 (A) (A) (A) (A) (A) (A) (A) (A) (A) (A) (A) (A)
                 (A) (A) (A) (A) (A) (A) (A) (A) (A) (A) (A) (A)
                 (A) (A)
 Beta  Orbitals:
       Occupied  (A) (A) (A) (A) (A) (A) (A) (A) (A) (A) (A) (A)
                 (A) (A) (A) (A) (A) (A) (A) (A) (A) (A) (A) (A)
                 (A) (A) (A) (A) (A) (A) (A) (A) (A) (A) (A) (A)
       Virtual   (A) (A) (A) (A) (A) (A) (A) (A) (A) (A) (A) (A)
                 (A) (A) (A) (A) (A) (A) (A) (A) (A) (A) (A) (A)
                 (A) (A) (A) (A) (A) (A) (A) (A) (A) (A) (A) (A)
                 (A) (A) (A) (A) (A) (A) (A) (A) (A) (A) (A) (A)
                 (A) (A) (A) (A) (A) (A) (A) (A) (A) (A) (A) (A)
                 (A) (A) (A) (A) (A) (A) (A) (A) (A) (A) (A) (A)
                 (A) (A) (A) (A) (A) (A) (A) (A) (A) (A) (A) (A)
                 (A) (A) (A) (A) (A) (A) (A) (A) (A) (A) (A) (A)
                 (A) (A) (A) (A) (A) (A) (A) (A) (A) (A) (A) (A)
                 (A) (A) (A) (A) (A) (A) (A) (A) (A) (A) (A) (A)
                 (A) (A) (A) (A) (A) (A) (A) (A) (A) (A) (A) (A)
                 (A) (A) (A) (A) (A) (A) (A) (A) (A) (A) (A) (A)
                 (A) (A) (A) (A) (A) (A) (A) (A) (A) (A) (A) (A)
                 (A) (A) (A) (A) (A) (A) (A) (A) (A) (A) (A) (A)
                 (A) (A) (A) (A) (A) (A) (A) (A) (A) (A) (A) (A)
                 (A) (A) (A) (A) (A) (A) (A) (A) (A) (A) (A) (A)
                 (A) (A) (A) (A) (A) (A) (A) (A) (A) (A) (A) (A)
                 (A) (A) (A) (A) (A) (A) (A) (A) (A) (A) (A) (A)
                 (A) (A) (A) (A) (A) (A) (A) (A) (A) (A) (A) (A)
                 (A) (A) (A) (A) (A) (A) (A) (A) (A) (A) (A) (A)
                 (A) (A) (A) (A) (A) (A) (A) (A) (A) (A) (A) (A)
                 (A) (A) (A) (A) (A) (A) (A) (A) (A) (A) (A) (A)
                 (A) (A) (A) (A) (A) (A) (A) (A) (A) (A) (A) (A)
                 (A) (A) (A) (A) (A) (A) (A) (A) (A) (A) (A) (A)
                 (A) (A) (A) (A) (A) (A) (A) (A) (A) (A) (A) (A)
                 (A) (A) (A) (A) (A) (A) (A) (A) (A) (A) (A) (A)
                 (A) (A) (A) (A) (A) (A) (A) (A) (A) (A) (A) (A)
                 (A) (A) (A) (A) (A) (A) (A) (A) (A) (A) (A) (A)
                 (A) (A) (A) (A) (A) (A) (A) (A) (A) (A) (A) (A)
                 (A) (A) (A) (A) (A) (A) (A) (A) (A) (A) (A) (A)
                 (A) (A) (A) (A) (A) (A) (A) (A) (A) (A) (A) (A)
                 (A) (A) (A) (A)
 The electronic state of the initial guess is 3-A.
 Initial guess <Sx>= 0.0000 <Sy>= 0.0000 <Sz>= 1.0000 <S**2>= 2.0000 S= 1.0000
 Requested convergence on RMS density matrix=1.00D-08 within 128 cycles.
 Requested convergence on MAX density matrix=1.00D-06.
 Requested convergence on             energy=1.00D-06.
 No special actions if energy rises.
 Restarting incremental Fock formation.
 SCF Done:  E(UM062X) =  -496.890693749     A.U. after   26 cycles
             Convg  =    0.9438D-08             -V/T =  2.0030
 <Sx>= 0.0000 <Sy>= 0.0000 <Sz>= 1.0000 <S**2>= 2.0147 S= 1.0049
 <L.S>= 0.000000000000E+00
 Annihilation of the first spin contaminant:
 S**2 before annihilation     2.0147,   after     2.0001

 **********************************************************************

            Population analysis using the SCF density.

 **********************************************************************

 Orbital symmetries:
 Alpha Orbitals:
       Occupied  (A) (A) (A) (A) (A) (A) (A) (A) (A) (A) (A) (A)
                 (A) (A) (A) (A) (A) (A) (A) (A) (A) (A) (A) (A)
                 (A) (A) (A) (A) (A) (A) (A) (A) (A) (A) (A) (A)
                 (A) (A)
       Virtual   (A) (A) (A) (A) (A) (A) (A) (A) (A) (A) (A) (A)
                 (A) (A) (A) (A) (A) (A) (A) (A) (A) (A) (A) (A)
                 (A) (A) (A) (A) (A) (A) (A) (A) (A) (A) (A) (A)
                 (A) (A) (A) (A) (A) (A) (A) (A) (A) (A) (A) (A)
                 (A) (A) (A) (A) (A) (A) (A) (A) (A) (A) (A) (A)
                 (A) (A) (A) (A) (A) (A) (A) (A) (A) (A) (A) (A)
                 (A) (A) (A) (A) (A) (A) (A) (A) (A) (A) (A) (A)
                 (A) (A) (A) (A) (A) (A) (A) (A) (A) (A) (A) (A)
                 (A) (A) (A) (A) (A) (A) (A) (A) (A) (A) (A) (A)
                 (A) (A) (A) (A) (A) (A) (A) (A) (A) (A) (A) (A)
                 (A) (A) (A) (A) (A) (A) (A) (A) (A) (A) (A) (A)
                 (A) (A) (A) (A) (A) (A) (A) (A) (A) (A) (A) (A)
                 (A) (A) (A) (A) (A) (A) (A) (A) (A) (A) (A) (A)
                 (A) (A) (A) (A) (A) (A) (A) (A) (A) (A) (A) (A)
                 (A) (A) (A) (A) (A) (A) (A) (A) (A) (A) (A) (A)
                 (A) (A) (A) (A) (A) (A) (A) (A) (A) (A) (A) (A)
                 (A) (A) (A) (A) (A) (A) (A) (A) (A) (A) (A) (A)
                 (A) (A) (A) (A) (A) (A) (A) (A) (A) (A) (A) (A)
                 (A) (A) (A) (A) (A) (A) (A) (A) (A) (A) (A) (A)
                 (A) (A) (A) (A) (A) (A) (A) (A) (A) (A) (A) (A)
                 (A) (A) (A) (A) (A) (A) (A) (A) (A) (A) (A) (A)
                 (A) (A) (A) (A) (A) (A) (A) (A) (A) (A) (A) (A)
                 (A) (A) (A) (A) (A) (A) (A) (A) (A) (A) (A) (A)
                 (A) (A) (A) (A) (A) (A) (A) (A) (A) (A) (A) (A)
                 (A) (A) (A) (A) (A) (A) (A) (A) (A) (A) (A) (A)
                 (A) (A) (A) (A) (A) (A) (A) (A) (A) (A) (A) (A)
                 (A) (A) (A) (A) (A) (A) (A) (A) (A) (A) (A) (A)
                 (A) (A) (A) (A) (A) (A) (A) (A) (A) (A) (A) (A)
                 (A) (A) (A) (A) (A) (A) (A) (A) (A) (A) (A) (A)
                 (A) (A) (A) (A) (A) (A) (A) (A) (A) (A) (A) (A)
                 (A) (A) (A) (A) (A) (A) (A) (A) (A) (A) (A) (A)
                 (A) (A)
 Beta  Orbitals:
       Occupied  (A) (A) (A) (A) (A) (A) (A) (A) (A) (A) (A) (A)
                 (A) (A) (A) (A) (A) (A) (A) (A) (A) (A) (A) (A)
                 (A) (A) (A) (A) (A) (A) (A) (A) (A) (A) (A) (A)
       Virtual   (A) (A) (A) (A) (A) (A) (A) (A) (A) (A) (A) (A)
                 (A) (A) (A) (A) (A) (A) (A) (A) (A) (A) (A) (A)
                 (A) (A) (A) (A) (A) (A) (A) (A) (A) (A) (A) (A)
                 (A) (A) (A) (A) (A) (A) (A) (A) (A) (A) (A) (A)
                 (A) (A) (A) (A) (A) (A) (A) (A) (A) (A) (A) (A)
                 (A) (A) (A) (A) (A) (A) (A) (A) (A) (A) (A) (A)
                 (A) (A) (A) (A) (A) (A) (A) (A) (A) (A) (A) (A)
                 (A) (A) (A) (A) (A) (A) (A) (A) (A) (A) (A) (A)
                 (A) (A) (A) (A) (A) (A) (A) (A) (A) (A) (A) (A)
                 (A) (A) (A) (A) (A) (A) (A) (A) (A) (A) (A) (A)
                 (A) (A) (A) (A) (A) (A) (A) (A) (A) (A) (A) (A)
                 (A) (A) (A) (A) (A) (A) (A) (A) (A) (A) (A) (A)
                 (A) (A) (A) (A) (A) (A) (A) (A) (A) (A) (A) (A)
                 (A) (A) (A) (A) (A) (A) (A) (A) (A) (A) (A) (A)
                 (A) (A) (A) (A) (A) (A) (A) (A) (A) (A) (A) (A)
                 (A) (A) (A) (A) (A) (A) (A) (A) (A) (A) (A) (A)
                 (A) (A) (A) (A) (A) (A) (A) (A) (A) (A) (A) (A)
                 (A) (A) (A) (A) (A) (A) (A) (A) (A) (A) (A) (A)
                 (A) (A) (A) (A) (A) (A) (A) (A) (A) (A) (A) (A)
                 (A) (A) (A) (A) (A) (A) (A) (A) (A) (A) (A) (A)
                 (A) (A) (A) (A) (A) (A) (A) (A) (A) (A) (A) (A)
                 (A) (A) (A) (A) (A) (A) (A) (A) (A) (A) (A) (A)
                 (A) (A) (A) (A) (A) (A) (A) (A) (A) (A) (A) (A)
                 (A) (A) (A) (A) (A) (A) (A) (A) (A) (A) (A) (A)
                 (A) (A) (A) (A) (A) (A) (A) (A) (A) (A) (A) (A)
                 (A) (A) (A) (A) (A) (A) (A) (A) (A) (A) (A) (A)
                 (A) (A) (A) (A) (A) (A) (A) (A) (A) (A) (A) (A)
                 (A) (A) (A) (A) (A) (A) (A) (A) (A) (A) (A) (A)
                 (A) (A) (A) (A) (A) (A) (A) (A) (A) (A) (A) (A)
                 (A) (A) (A) (A) (A) (A) (A) (A) (A) (A) (A) (A)
                 (A) (A) (A) (A) (A) (A) (A) (A) (A) (A) (A) (A)
                 (A) (A) (A) (A)
 The electronic state is 3-A.
 Alpha  occ. eigenvalues --  -19.81833 -19.78342 -19.61896 -10.57280 -10.53971
 Alpha  occ. eigenvalues --  -10.53941 -10.53829 -10.53707 -10.53491 -10.53171
 Alpha  occ. eigenvalues --   -1.40057  -1.11037  -1.07824  -0.96936  -0.86786
 Alpha  occ. eigenvalues --   -0.84175  -0.77295  -0.72815  -0.69179  -0.66491
 Alpha  occ. eigenvalues --   -0.65465  -0.64180  -0.59005  -0.53952  -0.52452
 Alpha  occ. eigenvalues --   -0.51681  -0.49637  -0.48704  -0.47416  -0.46462
 Alpha  occ. eigenvalues --   -0.45762  -0.43270  -0.41336  -0.39534  -0.34317
 Alpha  occ. eigenvalues --   -0.33416  -0.30640  -0.27095
 Alpha virt. eigenvalues --   -0.01016   0.00740   0.01232   0.01814   0.02710
 Alpha virt. eigenvalues --    0.03800   0.04835   0.05295   0.06446   0.06869
 Alpha virt. eigenvalues --    0.07711   0.07753   0.08459   0.08964   0.10493
 Alpha virt. eigenvalues --    0.11573   0.12601   0.13287   0.13456   0.14321
 Alpha virt. eigenvalues --    0.14611   0.14696   0.15747   0.16805   0.17081
 Alpha virt. eigenvalues --    0.17209   0.18574   0.18956   0.19421   0.19602
 Alpha virt. eigenvalues --    0.20439   0.20606   0.21693   0.22081   0.22268
 Alpha virt. eigenvalues --    0.23244   0.23436   0.24426   0.24457   0.25411
 Alpha virt. eigenvalues --    0.25760   0.26557   0.26937   0.28069   0.29414
 Alpha virt. eigenvalues --    0.30811   0.31923   0.32972   0.34731   0.35742
 Alpha virt. eigenvalues --    0.36341   0.36653   0.37113   0.38512   0.38980
 Alpha virt. eigenvalues --    0.40132   0.42236   0.43134   0.46388   0.49042
 Alpha virt. eigenvalues --    0.49680   0.50743   0.52766   0.54731   0.54987
 Alpha virt. eigenvalues --    0.55755   0.56887   0.57733   0.58078   0.58729
 Alpha virt. eigenvalues --    0.60017   0.61494   0.63385   0.63831   0.64119
 Alpha virt. eigenvalues --    0.64773   0.65884   0.66841   0.67412   0.68029
 Alpha virt. eigenvalues --    0.68581   0.68871   0.69242   0.70632   0.71085
 Alpha virt. eigenvalues --    0.72071   0.72641   0.73208   0.74775   0.75659
 Alpha virt. eigenvalues --    0.77207   0.77466   0.79650   0.80377   0.81088
 Alpha virt. eigenvalues --    0.84328   0.85375   0.86246   0.87868   0.88269
 Alpha virt. eigenvalues --    0.90948   0.91366   0.94050   0.94869   0.98161
 Alpha virt. eigenvalues --    0.98708   0.99137   1.00821   1.02679   1.03648
 Alpha virt. eigenvalues --    1.05077   1.06637   1.08663   1.10129   1.11731
 Alpha virt. eigenvalues --    1.12761   1.14037   1.15722   1.16301   1.17013
 Alpha virt. eigenvalues --    1.17830   1.20387   1.21426   1.22226   1.22759
 Alpha virt. eigenvalues --    1.24132   1.25186   1.25733   1.28218   1.28538
 Alpha virt. eigenvalues --    1.30684   1.31996   1.33056   1.34014   1.36049
 Alpha virt. eigenvalues --    1.36310   1.36851   1.37835   1.39064   1.40510
 Alpha virt. eigenvalues --    1.41568   1.42871   1.44335   1.45582   1.46707
 Alpha virt. eigenvalues --    1.49007   1.50159   1.50718   1.52480   1.53180
 Alpha virt. eigenvalues --    1.54443   1.55902   1.59764   1.60256   1.63292
 Alpha virt. eigenvalues --    1.65038   1.67624   1.70633   1.72508   1.72608
 Alpha virt. eigenvalues --    1.73561   1.74576   1.77270   1.77852   1.78655
 Alpha virt. eigenvalues --    1.85625   1.86392   1.88145   1.95596   1.96923
 Alpha virt. eigenvalues --    2.00220   2.02219   2.03448   2.09323   2.10744
 Alpha virt. eigenvalues --    2.18093   2.19693   2.23696   2.29687   2.41418
 Alpha virt. eigenvalues --    2.42815   2.52144   2.53825   2.57552   2.59492
 Alpha virt. eigenvalues --    2.59940   2.60462   2.64572   2.66803   2.67459
 Alpha virt. eigenvalues --    2.71146   2.72321   2.75875   2.77024   2.78718
 Alpha virt. eigenvalues --    2.80664   2.81301   2.81826   2.82940   2.84113
 Alpha virt. eigenvalues --    2.84716   2.86465   2.88204   2.89141   2.89895
 Alpha virt. eigenvalues --    2.90937   2.91749   2.95630   2.96788   2.98388
 Alpha virt. eigenvalues --    3.01787   3.02555   3.08006   3.10133   3.11919
 Alpha virt. eigenvalues --    3.12671   3.13416   3.15187   3.15270   3.18109
 Alpha virt. eigenvalues --    3.20092   3.22133   3.23139   3.24998   3.26990
 Alpha virt. eigenvalues --    3.29947   3.30938   3.31532   3.33446   3.35481
 Alpha virt. eigenvalues --    3.36599   3.37148   3.38782   3.39961   3.42363
 Alpha virt. eigenvalues --    3.44194   3.45776   3.46578   3.47571   3.49705
 Alpha virt. eigenvalues --    3.51896   3.53314   3.53875   3.55342   3.57172
 Alpha virt. eigenvalues --    3.58769   3.59204   3.62109   3.64553   3.64940
 Alpha virt. eigenvalues --    3.67664   3.69277   3.70572   3.71879   3.73605
 Alpha virt. eigenvalues --    3.74948   3.76565   3.78063   3.78716   3.82187
 Alpha virt. eigenvalues --    3.82786   3.84173   3.85885   3.90034   3.93671
 Alpha virt. eigenvalues --    3.94637   3.97228   3.98981   3.99888   4.00937
 Alpha virt. eigenvalues --    4.02222   4.04820   4.06769   4.09867   4.12407
 Alpha virt. eigenvalues --    4.14781   4.17752   4.18016   4.21624   4.22638
 Alpha virt. eigenvalues --    4.28372   4.29108   4.34286   4.36500   4.37915
 Alpha virt. eigenvalues --    4.39802   4.43091   4.43923   4.45238   4.46674
 Alpha virt. eigenvalues --    4.49041   4.50222   4.51810   4.54825   4.55740
 Alpha virt. eigenvalues --    4.56730   4.60696   4.61323   4.63607   4.65727
 Alpha virt. eigenvalues --    4.68123   4.69729   4.70840   4.78160   4.79450
 Alpha virt. eigenvalues --    4.85403   4.91116   4.92797   4.95344   4.96169
 Alpha virt. eigenvalues --    4.98242   5.02238   5.04978   5.06313   5.07702
 Alpha virt. eigenvalues --    5.08195   5.09047   5.10227   5.10661   5.13207
 Alpha virt. eigenvalues --    5.15651   5.17052   5.20001   5.24742   5.26802
 Alpha virt. eigenvalues --    5.28791   5.32674   5.33569   5.38529   5.43088
 Alpha virt. eigenvalues --    5.46255   5.49543   5.53668   5.55606   5.67676
 Alpha virt. eigenvalues --    5.68915   5.74570   5.77350   5.78849   5.81893
 Alpha virt. eigenvalues --    5.92846   6.05295   6.11849   6.23830   6.52522
 Alpha virt. eigenvalues --    6.52925   6.61215   6.67792   6.69842   6.78698
 Alpha virt. eigenvalues --    6.80286   6.82598   6.85455   6.87510   6.94922
 Alpha virt. eigenvalues --    7.01705   7.20340   7.26042   7.31405   7.40897
 Alpha virt. eigenvalues --    7.48563   7.61801   7.79760   7.95560  23.91408
 Alpha virt. eigenvalues --   24.47263  24.52398  24.57918  24.78403  24.83566
 Alpha virt. eigenvalues --   25.24061  49.86112  49.95987  50.13826
  Beta  occ. eigenvalues --  -19.80860 -19.76787 -19.60603 -10.57273 -10.53975
  Beta  occ. eigenvalues --  -10.53946 -10.53824 -10.53695 -10.53480 -10.53162
  Beta  occ. eigenvalues --   -1.36116  -1.06801  -1.02502  -0.96763  -0.86353
  Beta  occ. eigenvalues --   -0.84142  -0.75095  -0.71554  -0.69117  -0.64795
  Beta  occ. eigenvalues --   -0.62211  -0.58665  -0.55038  -0.53303  -0.52148
  Beta  occ. eigenvalues --   -0.49485  -0.48688  -0.47618  -0.45381  -0.43862
  Beta  occ. eigenvalues --   -0.40991  -0.39429  -0.38683  -0.31591  -0.30907
  Beta  occ. eigenvalues --   -0.28491
  Beta virt. eigenvalues --   -0.14953  -0.05955  -0.00423   0.01358   0.01451
  Beta virt. eigenvalues --    0.01877   0.02748   0.03866   0.04856   0.05410
  Beta virt. eigenvalues --    0.06565   0.07187   0.07843   0.08150   0.08524
  Beta virt. eigenvalues --    0.09145   0.10810   0.11838   0.12821   0.13417
  Beta virt. eigenvalues --    0.13836   0.14412   0.14708   0.15246   0.16518
  Beta virt. eigenvalues --    0.17044   0.17162   0.17386   0.18685   0.18963
  Beta virt. eigenvalues --    0.19552   0.19771   0.20623   0.20766   0.21753
  Beta virt. eigenvalues --    0.22141   0.22276   0.23353   0.23470   0.24504
  Beta virt. eigenvalues --    0.24565   0.25489   0.25837   0.26660   0.27181
  Beta virt. eigenvalues --    0.28223   0.29510   0.30964   0.31958   0.33116
  Beta virt. eigenvalues --    0.34755   0.36002   0.36423   0.36790   0.37387
  Beta virt. eigenvalues --    0.38662   0.39511   0.40292   0.42592   0.43304
  Beta virt. eigenvalues --    0.46733   0.49088   0.49843   0.50985   0.52908
  Beta virt. eigenvalues --    0.54839   0.55085   0.55784   0.56914   0.57802
  Beta virt. eigenvalues --    0.58361   0.58788   0.60152   0.61549   0.63465
  Beta virt. eigenvalues --    0.63999   0.64257   0.65043   0.65888   0.66894
  Beta virt. eigenvalues --    0.67481   0.68168   0.68616   0.68990   0.69383
  Beta virt. eigenvalues --    0.70792   0.71231   0.72127   0.72628   0.73234
  Beta virt. eigenvalues --    0.74823   0.75681   0.77282   0.77586   0.79790
  Beta virt. eigenvalues --    0.80474   0.81226   0.84411   0.85469   0.86385
  Beta virt. eigenvalues --    0.88153   0.88343   0.91181   0.91486   0.94210
  Beta virt. eigenvalues --    0.95397   0.98295   0.98912   0.99745   1.02330
  Beta virt. eigenvalues --    1.02797   1.03914   1.05642   1.07610   1.08818
  Beta virt. eigenvalues --    1.10197   1.11983   1.12935   1.15846   1.16595
  Beta virt. eigenvalues --    1.16825   1.17370   1.18095   1.20640   1.21633
  Beta virt. eigenvalues --    1.23193   1.23773   1.24616   1.25292   1.26158
  Beta virt. eigenvalues --    1.28739   1.28875   1.31051   1.32725   1.33636
  Beta virt. eigenvalues --    1.34334   1.36252   1.36761   1.37613   1.38289
  Beta virt. eigenvalues --    1.39272   1.40979   1.41735   1.42958   1.44586
  Beta virt. eigenvalues --    1.45626   1.46889   1.49209   1.50294   1.51047
  Beta virt. eigenvalues --    1.52741   1.54085   1.55148   1.56801   1.60126
  Beta virt. eigenvalues --    1.60723   1.63664   1.65890   1.68406   1.71162
  Beta virt. eigenvalues --    1.72671   1.73170   1.74157   1.74809   1.78002
  Beta virt. eigenvalues --    1.79419   1.80289   1.86080   1.88045   1.88893
  Beta virt. eigenvalues --    1.96242   1.97321   2.00542   2.02316   2.03719
  Beta virt. eigenvalues --    2.09867   2.11461   2.18771   2.20949   2.24216
  Beta virt. eigenvalues --    2.30888   2.41833   2.43484   2.52227   2.54036
  Beta virt. eigenvalues --    2.57819   2.59621   2.60185   2.60622   2.64769
  Beta virt. eigenvalues --    2.66941   2.67922   2.71360   2.72392   2.75975
  Beta virt. eigenvalues --    2.77145   2.78811   2.80749   2.81481   2.81925
  Beta virt. eigenvalues --    2.83108   2.84274   2.84791   2.86558   2.88275
  Beta virt. eigenvalues --    2.89176   2.90405   2.90996   2.91855   2.95674
  Beta virt. eigenvalues --    2.96995   2.98466   3.01823   3.02695   3.08013
  Beta virt. eigenvalues --    3.10150   3.11916   3.12721   3.13427   3.15268
  Beta virt. eigenvalues --    3.15295   3.18092   3.20080   3.22132   3.23068
  Beta virt. eigenvalues --    3.24973   3.27156   3.29957   3.31006   3.31505
  Beta virt. eigenvalues --    3.33517   3.35496   3.36700   3.37114   3.38911
  Beta virt. eigenvalues --    3.39983   3.42463   3.44171   3.45851   3.46634
  Beta virt. eigenvalues --    3.47572   3.49745   3.52065   3.53302   3.54267
  Beta virt. eigenvalues --    3.55224   3.57259   3.58917   3.59170   3.62317
  Beta virt. eigenvalues --    3.64543   3.65045   3.68062   3.69283   3.70533
  Beta virt. eigenvalues --    3.71975   3.73593   3.74973   3.76701   3.78217
  Beta virt. eigenvalues --    3.79262   3.82273   3.82692   3.84275   3.85921
  Beta virt. eigenvalues --    3.89833   3.93543   3.94633   3.97011   3.98655
  Beta virt. eigenvalues --    3.99722   4.00903   4.02270   4.04505   4.06548
  Beta virt. eigenvalues --    4.09543   4.12351   4.14499   4.17782   4.17951
  Beta virt. eigenvalues --    4.21323   4.22261   4.28360   4.29125   4.34285
  Beta virt. eigenvalues --    4.36515   4.37861   4.39853   4.42991   4.44058
  Beta virt. eigenvalues --    4.46328   4.47647   4.49651   4.50356   4.51733
  Beta virt. eigenvalues --    4.55057   4.56128   4.57309   4.60780   4.61435
  Beta virt. eigenvalues --    4.63708   4.66098   4.68291   4.69863   4.71252
  Beta virt. eigenvalues --    4.78814   4.79605   4.85647   4.91989   4.95018
  Beta virt. eigenvalues --    4.97373   4.98478   4.99551   5.02453   5.06056
  Beta virt. eigenvalues --    5.08046   5.08498   5.09976   5.10451   5.12291
  Beta virt. eigenvalues --    5.14437   5.15257   5.16541   5.17886   5.23068
  Beta virt. eigenvalues --    5.27579   5.28397   5.30733   5.34052   5.34910
  Beta virt. eigenvalues --    5.40119   5.44273   5.47443   5.50240   5.54287
  Beta virt. eigenvalues --    5.56009   5.68123   5.68925   5.74828   5.77594
  Beta virt. eigenvalues --    5.79018   5.82046   5.95688   6.05781   6.12018
  Beta virt. eigenvalues --    6.25911   6.52686   6.53937   6.68441   6.71057
  Beta virt. eigenvalues --    6.76095   6.81519   6.84814   6.89637   6.93921
  Beta virt. eigenvalues --    6.97996   6.98796   7.05696   7.26161   7.34014
  Beta virt. eigenvalues --    7.36446   7.42876   7.49343   7.66202   7.79934
  Beta virt. eigenvalues --    7.97936  23.91418  24.47239  24.52405  24.57816
  Beta virt. eigenvalues --   24.78431  24.83573  25.24087  49.85459  49.95475
  Beta virt. eigenvalues --   50.13220
          Condensed to atoms (all electrons):
              1          2          3          4          5          6
     1  C    5.868480  -0.423410  -0.147540  -0.246364   0.032572  -0.001043
     2  C   -0.423410   8.235091  -0.952973  -0.981350   0.533482  -0.675340
     3  C   -0.147540  -0.952973   8.496798  -0.167505  -1.248848   0.545049
     4  C   -0.246364  -0.981350  -0.167505   8.129689  -0.432386   0.397428
     5  C    0.032572   0.533482  -1.248848  -0.432386   6.488089  -0.019115
     6  C   -0.001043  -0.675340   0.545049   0.397428  -0.019115   5.351435
     7  C    0.278689   0.023725  -0.691028  -0.645274   0.518898   0.090196
     8  O    0.359113  -0.183322   0.039452  -0.093559   0.012402  -0.006235
     9  H    0.442735  -0.163498  -0.039592   0.045467  -0.042114   0.003801
    10  H    0.437069  -0.111155   0.066695  -0.043584   0.039367   0.000322
    11  H    0.037831   0.006457   0.306179  -0.026716   0.041846  -0.013849
    12  H    0.002063  -0.017932   0.047428  -0.003963   0.314898   0.042004
    13  H    0.001448   0.017506  -0.021360  -0.020850   0.042583   0.335010
    14  H   -0.000607   0.004071  -0.005488  -0.008115   0.001517   0.022648
    15  H   -0.017319   0.087177   0.009987   0.319441  -0.005048  -0.006842
    16  O    0.037706  -0.024167   0.023732   0.000324  -0.008969   0.005086
    17  O   -0.093905   0.197196  -0.020900  -0.068632   0.033032  -0.016143
    18  H    0.000620  -0.000843   0.000840   0.001275  -0.002753   0.000972
              7          8          9         10         11         12
     1  C    0.278689   0.359113   0.442735   0.437069   0.037831   0.002063
     2  C    0.023725  -0.183322  -0.163498  -0.111155   0.006457  -0.017932
     3  C   -0.691028   0.039452  -0.039592   0.066695   0.306179   0.047428
     4  C   -0.645274  -0.093559   0.045467  -0.043584  -0.026716  -0.003963
     5  C    0.518898   0.012402  -0.042114   0.039367   0.041846   0.314898
     6  C    0.090196  -0.006235   0.003801   0.000322  -0.013849   0.042004
     7  C    6.274448   0.058416   0.027220  -0.005250   0.011183  -0.006966
     8  O    0.058416   8.147050  -0.010720  -0.029047   0.000659   0.000007
     9  H    0.027220  -0.010720   0.647410  -0.047268  -0.001505   0.000005
    10  H   -0.005250  -0.029047  -0.047268   0.509799   0.001553  -0.000004
    11  H    0.011183   0.000659  -0.001505   0.001553   0.505488  -0.007477
    12  H   -0.006966   0.000007   0.000005  -0.000004  -0.007477   0.491097
    13  H    0.026404   0.000004  -0.000019  -0.000001  -0.000126  -0.006945
    14  H    0.366735   0.000075   0.000020   0.000012   0.000050  -0.000109
    15  H   -0.017002  -0.003287   0.000291  -0.000278  -0.000119   0.000060
    16  O   -0.006458  -0.008522   0.057746  -0.003137  -0.000365   0.000003
    17  O   -0.020294   0.012589  -0.333488   0.014668   0.000392  -0.000037
    18  H    0.002124   0.000022   0.000287  -0.000050  -0.000028   0.000001
             13         14         15         16         17         18
     1  C    0.001448  -0.000607  -0.017319   0.037706  -0.093905   0.000620
     2  C    0.017506   0.004071   0.087177  -0.024167   0.197196  -0.000843
     3  C   -0.021360  -0.005488   0.009987   0.023732  -0.020900   0.000840
     4  C   -0.020850  -0.008115   0.319441   0.000324  -0.068632   0.001275
     5  C    0.042583   0.001517  -0.005048  -0.008969   0.033032  -0.002753
     6  C    0.335010   0.022648  -0.006842   0.005086  -0.016143   0.000972
     7  C    0.026404   0.366735  -0.017002  -0.006458  -0.020294   0.002124
     8  O    0.000004   0.000075  -0.003287  -0.008522   0.012589   0.000022
     9  H   -0.000019   0.000020   0.000291   0.057746  -0.333488   0.000287
    10  H   -0.000001   0.000012  -0.000278  -0.003137   0.014668  -0.000050
    11  H   -0.000126   0.000050  -0.000119  -0.000365   0.000392  -0.000028
    12  H   -0.006945  -0.000109   0.000060   0.000003  -0.000037   0.000001
    13  H    0.488982  -0.007266  -0.000102  -0.000001   0.000009   0.000000
    14  H   -0.007266   0.484222  -0.005905   0.000013  -0.000062  -0.000001
    15  H   -0.000102  -0.005905   0.451448  -0.000055  -0.000183   0.000026
    16  O   -0.000001   0.000013  -0.000055   7.670976   0.022103   0.255230
    17  O    0.000009  -0.000062  -0.000183   0.022103   8.477149  -0.047739
    18  H    0.000000  -0.000001   0.000026   0.255230  -0.047739   0.490760
 Mulliken atomic charges:
              1
     1  C   -0.568139
     2  C    0.429286
     3  C   -0.240926
     4  C   -0.155324
     5  C   -0.299454
     6  C   -0.055385
     7  C   -0.285767
     8  O   -0.295098
     9  H    0.413220
    10  H    0.170290
    11  H    0.138547
    12  H    0.145866
    13  H    0.144724
    14  H    0.148189
    15  H    0.187709
    16  O   -0.021242
    17  O   -0.155754
    18  H    0.299258
 Sum of Mulliken atomic charges =   0.00000
 Mulliken charges with hydrogens summed into heavy atoms:
              1
     1  C   -0.397850
     2  C    0.429286
     3  C   -0.102378
     4  C    0.032385
     5  C   -0.153588
     6  C    0.089339
     7  C   -0.137577
     8  O   -0.295098
    16  O    0.278016
    17  O    0.257466
 Sum of Mulliken charges with hydrogens summed into heavy atoms =   0.00000
          Atomic-Atomic Spin Densities.
              1          2          3          4          5          6
     1  C   -0.016403   0.186496   0.039292  -0.155445  -0.015951  -0.015847
     2  C    0.186496   0.084075  -0.159037  -0.068128   0.017301  -0.007867
     3  C    0.039292  -0.159037   0.750734  -0.319272  -0.262301   0.072385
     4  C   -0.155445  -0.068128  -0.319272   0.398264   0.074579  -0.015556
     5  C   -0.015951   0.017301  -0.262301   0.074579   0.178067  -0.054631
     6  C   -0.015847  -0.007867   0.072385  -0.015556  -0.054631   0.046826
     7  C    0.005978  -0.037080  -0.089022   0.084893   0.044657  -0.007479
     8  O   -0.079644  -0.008082  -0.000189   0.019992   0.003889  -0.000774
     9  H    0.132899   0.029690   0.026529  -0.087411  -0.025043   0.001320
    10  H   -0.025553   0.006203  -0.015289   0.029226   0.008388   0.000044
    11  H    0.003224   0.002178  -0.002536  -0.002060   0.000461  -0.000909
    12  H   -0.000173  -0.000260  -0.000840  -0.000164   0.000974   0.000105
    13  H   -0.000168  -0.000604  -0.000402   0.001023   0.000192   0.000344
    14  H   -0.000027  -0.001423  -0.000869   0.001609   0.000716   0.000179
    15  H    0.002891   0.005630   0.001019  -0.010098  -0.000334  -0.001342
    16  O    0.031911   0.005076   0.007953  -0.025478  -0.008556   0.000620
    17  O   -0.068559  -0.040156  -0.004824   0.073910   0.010944   0.003633
    18  H   -0.002152   0.001837   0.000076  -0.000336  -0.000074   0.000028
              7          8          9         10         11         12
     1  C    0.005978  -0.079644   0.132899  -0.025553   0.003224  -0.000173
     2  C   -0.037080  -0.008082   0.029690   0.006203   0.002178  -0.000260
     3  C   -0.089022  -0.000189   0.026529  -0.015289  -0.002536  -0.000840
     4  C    0.084893   0.019992  -0.087411   0.029226  -0.002060  -0.000164
     5  C    0.044657   0.003889  -0.025043   0.008388   0.000461   0.000974
     6  C   -0.007479  -0.000774   0.001320   0.000044  -0.000909   0.000105
     7  C   -0.004135  -0.002803   0.001976  -0.000359  -0.000146   0.000254
     8  O   -0.002803   0.825019  -0.055196   0.001140  -0.000056  -0.000001
     9  H    0.001976  -0.055196   0.249944  -0.033900   0.000518  -0.000013
    10  H   -0.000359   0.001140  -0.033900   0.049240  -0.000691   0.000005
    11  H   -0.000146  -0.000056   0.000518  -0.000691  -0.000169  -0.000014
    12  H    0.000254  -0.000001  -0.000013   0.000005  -0.000014   0.000531
    13  H   -0.000387   0.000000  -0.000002   0.000000  -0.000001   0.000008
    14  H   -0.000265  -0.000007  -0.000006   0.000000   0.000000  -0.000002
    15  H    0.002001  -0.000426   0.000660  -0.000097   0.000009   0.000000
    16  O    0.002564  -0.008791   0.055116  -0.003204   0.000151  -0.000004
    17  O   -0.005451   0.032346  -0.165201   0.011553  -0.000800   0.000021
    18  H   -0.000177   0.000005  -0.001321   0.000031   0.000000   0.000000
             13         14         15         16         17         18
     1  C   -0.000168  -0.000027   0.002891   0.031911  -0.068559  -0.002152
     2  C   -0.000604  -0.001423   0.005630   0.005076  -0.040156   0.001837
     3  C   -0.000402  -0.000869   0.001019   0.007953  -0.004824   0.000076
     4  C    0.001023   0.001609  -0.010098  -0.025478   0.073910  -0.000336
     5  C    0.000192   0.000716  -0.000334  -0.008556   0.010944  -0.000074
     6  C    0.000344   0.000179  -0.001342   0.000620   0.003633   0.000028
     7  C   -0.000387  -0.000265   0.002001   0.002564  -0.005451  -0.000177
     8  O    0.000000  -0.000007  -0.000426  -0.008791   0.032346   0.000005
     9  H   -0.000002  -0.000006   0.000660   0.055116  -0.165201  -0.001321
    10  H    0.000000   0.000000  -0.000097  -0.003204   0.011553   0.000031
    11  H   -0.000001   0.000000   0.000009   0.000151  -0.000800   0.000000
    12  H    0.000008  -0.000002   0.000000  -0.000004   0.000021   0.000000
    13  H   -0.001459   0.000001  -0.000001   0.000000   0.000002   0.000000
    14  H    0.000001   0.000396  -0.000017  -0.000003   0.000011   0.000000
    15  H   -0.000001  -0.000017  -0.000777   0.000104  -0.000373   0.000000
    16  O    0.000000  -0.000003   0.000104   0.604942  -0.294976   0.004258
    17  O    0.000002   0.000011  -0.000373  -0.294976   1.135079   0.003968
    18  H    0.000000   0.000000   0.000000   0.004258   0.003968  -0.020893
 Mulliken atomic spin densities:
              1
     1  C    0.022769
     2  C    0.015849
     3  C    0.043405
     4  C   -0.000452
     5  C   -0.026723
     6  C    0.021081
     7  C   -0.004981
     8  O    0.726422
     9  H    0.130558
    10  H    0.026737
    11  H   -0.000841
    12  H    0.000427
    13  H   -0.001454
    14  H    0.000293
    15  H   -0.001149
    16  O    0.371683
    17  O    0.691126
    18  H   -0.014750
 Sum of Mulliken atomic spin densities =   2.00000
 Electronic spatial extent (au):  <R**2>=           1640.7901
 Charge=              0.0000 electrons
 Dipole moment (field-independent basis, Debye):
    X=             -0.9352    Y=             -4.4480    Z=             -1.3579  Tot=              4.7437
 Quadrupole moment (field-independent basis, Debye-Ang):
   XX=            -55.3944   YY=            -64.4485   ZZ=            -52.5437
   XY=              5.8369   XZ=              2.8440   YZ=              4.6098
 Traceless Quadrupole moment (field-independent basis, Debye-Ang):
   XX=              2.0678   YY=             -6.9863   ZZ=              4.9185
   XY=              5.8369   XZ=              2.8440   YZ=              4.6098
 Octapole moment (field-independent basis, Debye-Ang**2):
  XXX=            -39.6732  YYY=            -26.9345  ZZZ=            -10.1918  XYY=             -1.3717
  XXY=            -29.4486  XXZ=            -20.6048  XZZ=            -17.1378  YZZ=             -9.9660
  YYZ=             -2.5165  XYZ=            -16.5696
 Hexadecapole moment (field-independent basis, Debye-Ang**3):
 XXXX=          -1178.7888 YYYY=           -586.5126 ZZZZ=           -320.5780 XXXY=             29.2402
 XXXZ=             30.0503 YYYX=             57.6560 YYYZ=             17.0211 ZZZX=              9.4011
 ZZZY=              6.2179 XXYY=           -299.6580 XXZZ=           -225.6984 YYZZ=           -134.1481
 XXYZ=             30.4521 YYXZ=             15.7450 ZZXY=             19.2921
 N-N= 4.939458409388D+02 E-N=-3.205588894086D+03  KE= 7.400498694247D+02
                          Isotropic Fermi Contact Couplings
        Atom                 a.u.       MegaHertz       Gauss      10(-4) cm-1
     1  C(13)             -0.02410     -13.54619      -4.83362      -4.51852
     2  C(13)              0.00564       3.17285       1.13215       1.05835
     3  C(13)              0.00311       1.74828       0.62383       0.58316
     4  C(13)              0.00066       0.36862       0.13153       0.12296
     5  C(13)             -0.00099      -0.55443      -0.19783      -0.18494
     6  C(13)              0.00180       1.01132       0.36086       0.33734
     7  C(13)             -0.00163      -0.91681      -0.32714      -0.30582
     8  O(17)              0.10903     -33.04659     -11.79185     -11.02316
     9  H(1)               0.06936     155.01143      55.31193      51.70625
    10  H(1)               0.01564      34.95663      12.47339      11.66028
    11  H(1)              -0.00030      -0.67288      -0.24010      -0.22445
    12  H(1)               0.00006       0.12323       0.04397       0.04111
    13  H(1)              -0.00025      -0.56752      -0.20250      -0.18930
    14  H(1)               0.00003       0.07173       0.02560       0.02393
    15  H(1)              -0.00021      -0.47546      -0.16966      -0.15860
    16  O(17)              0.10689     -32.39722     -11.56013     -10.80655
    17  O(17)              0.36676    -111.16359     -39.66593     -37.08018
    18  H(1)              -0.00859     -19.20200      -6.85175      -6.40510
 --------------------------------------------------------
       Center         ----  Spin Dipole Couplings  ----
                      3XX-RR        3YY-RR        3ZZ-RR
 --------------------------------------------------------
     1   Atom       -0.039974      0.080713     -0.040739
     2   Atom        0.024507     -0.012754     -0.011753
     3   Atom        0.003481      0.007740     -0.011220
     4   Atom        0.014952     -0.001125     -0.013827
     5   Atom        0.004641     -0.003823     -0.000818
     6   Atom        0.004999      0.006392     -0.011390
     7   Atom        0.003473     -0.003075     -0.000397
     8   Atom       -0.396047      1.212280     -0.816234
     9   Atom       -0.012880      0.080973     -0.068093
    10   Atom       -0.011696     -0.006466      0.018163
    11   Atom        0.002805     -0.003785      0.000980
    12   Atom        0.002563     -0.001168     -0.001395
    13   Atom        0.002928     -0.000349     -0.002579
    14   Atom        0.002142     -0.001408     -0.000734
    15   Atom        0.006738     -0.005094     -0.001643
    16   Atom        1.330443     -0.409102     -0.921341
    17   Atom        2.300229     -0.926916     -1.373313
    18   Atom       -0.038085     -0.044545      0.082630
 --------------------------------------------------------
                        XY            XZ            YZ
 --------------------------------------------------------
     1   Atom        0.067642      0.044947      0.035330
     2   Atom       -0.014110     -0.002501     -0.004131
     3   Atom        0.012433      0.010039      0.008696
     4   Atom        0.010414     -0.002818      0.003124
     5   Atom       -0.007360     -0.001159     -0.002528
     6   Atom        0.011327      0.001273      0.002589
     7   Atom       -0.004443     -0.003287     -0.000637
     8   Atom        1.676424      0.787208      1.298322
     9   Atom        0.069722      0.012541      0.010353
    10   Atom        0.006664     -0.002093      0.001008
    11   Atom        0.000016      0.006420     -0.001796
    12   Atom       -0.001754      0.001391     -0.000370
    13   Atom       -0.001683     -0.000805      0.000597
    14   Atom       -0.000801     -0.002249      0.000217
    15   Atom       -0.000853     -0.009836      0.000190
    16   Atom       -0.835184      0.140000      0.002427
    17   Atom       -1.631977      0.279006     -0.208390
    18   Atom       -0.001621     -0.008823     -0.009669
 --------------------------------------------------------


 ---------------------------------------------------------------------------------
              Anisotropic Spin Dipole Couplings in Principal Axis System
 ---------------------------------------------------------------------------------

       Atom             a.u.   MegaHertz   Gauss  10(-4) cm-1        Axes

              Baa    -0.0898   -12.044    -4.298    -4.018  0.7883 -0.1916 -0.5847
     1 C(13)  Bbb    -0.0369    -4.952    -1.767    -1.652  0.4434 -0.4820  0.7557
              Bcc     0.1267    16.996     6.065     5.669  0.4266  0.8550  0.2950
 
              Baa    -0.0201    -2.703    -0.965    -0.902  0.2874  0.8227  0.4905
     2 C(13)  Bbb    -0.0091    -1.225    -0.437    -0.409 -0.1335 -0.4727  0.8710
              Bcc     0.0293     3.928     1.402     1.310  0.9484 -0.3159 -0.0260
 
              Baa    -0.0166    -2.229    -0.795    -0.743 -0.3738 -0.1368  0.9174
     3 C(13)  Bbb    -0.0066    -0.890    -0.318    -0.297 -0.6892  0.7028 -0.1761
              Bcc     0.0232     3.119     1.113     1.040  0.6206  0.6981  0.3570
 
              Baa    -0.0156    -2.095    -0.748    -0.699  0.2014 -0.3426  0.9176
     4 C(13)  Bbb    -0.0045    -0.603    -0.215    -0.201 -0.3882  0.8322  0.3959
              Bcc     0.0201     2.698     0.963     0.900  0.8993  0.4360 -0.0346
 
              Baa    -0.0090    -1.210    -0.432    -0.404  0.4703  0.8224  0.3201
     5 C(13)  Bbb     0.0001     0.015     0.005     0.005 -0.1848 -0.2629  0.9470
              Bcc     0.0089     1.195     0.426     0.399  0.8629 -0.5046  0.0283
 
              Baa    -0.0118    -1.580    -0.564    -0.527  0.0347 -0.1622  0.9861
     6 C(13)  Bbb    -0.0055    -0.743    -0.265    -0.248  0.7330 -0.6666 -0.1354
              Bcc     0.0173     2.323     0.829     0.775  0.6793  0.7276  0.0958
 
              Baa    -0.0061    -0.824    -0.294    -0.275  0.4910  0.7892  0.3688
     7 C(13)  Bbb    -0.0006    -0.082    -0.029    -0.027  0.1514 -0.4943  0.8560
              Bcc     0.0067     0.906     0.323     0.302  0.8579 -0.3645 -0.3622
 
              Baa    -1.4691   106.300    37.931    35.458 -0.5525  0.6169 -0.5606
     8 O(17)  Bbb    -1.4203   102.775    36.673    34.282 -0.6735  0.0658  0.7362
              Bcc     2.8894  -209.075   -74.603   -69.740  0.4910  0.7843  0.3791
 
              Baa    -0.0711   -37.941   -13.538   -12.656 -0.2839  0.0650  0.9567
     9 H(1)   Bbb    -0.0482   -25.710    -9.174    -8.576  0.8352 -0.4733  0.2800
              Bcc     0.1193    63.651    22.712    21.232  0.4710  0.8785  0.0801
 
              Baa    -0.0164    -8.746    -3.121    -2.918  0.8253 -0.5608  0.0663
    10 H(1)   Bbb    -0.0019    -1.029    -0.367    -0.343  0.5610  0.8276  0.0169
              Bcc     0.0183     9.775     3.488     3.261 -0.0644  0.0232  0.9977
 
              Baa    -0.0056    -3.014    -1.075    -1.005 -0.4794  0.6111  0.6298
    11 H(1)   Bbb    -0.0028    -1.515    -0.541    -0.505  0.4635  0.7858 -0.4096
              Bcc     0.0085     4.529     1.616     1.511  0.7452 -0.0956  0.6600
 
              Baa    -0.0020    -1.065    -0.380    -0.355  0.4396  0.6577 -0.6118
    12 H(1)   Bbb    -0.0017    -0.889    -0.317    -0.297  0.0331  0.6688  0.7427
              Bcc     0.0037     1.954     0.697     0.652  0.8976 -0.3467  0.2722
 
              Baa    -0.0028    -1.473    -0.526    -0.491  0.0843 -0.1836  0.9794
    13 H(1)   Bbb    -0.0010    -0.548    -0.196    -0.183  0.4109  0.9018  0.1337
              Bcc     0.0038     2.021     0.721     0.674  0.9078 -0.3911 -0.1514
 
              Baa    -0.0020    -1.088    -0.388    -0.363  0.4946  0.3546  0.7934
    14 H(1)   Bbb    -0.0015    -0.783    -0.279    -0.261 -0.0376  0.9208 -0.3882
              Bcc     0.0035     1.871     0.667     0.624  0.8683 -0.1622 -0.4688
 
              Baa    -0.0082    -4.362    -1.557    -1.455  0.5518  0.1017  0.8278
    15 H(1)   Bbb    -0.0051    -2.720    -0.971    -0.907 -0.0192  0.9938 -0.1093
              Bcc     0.0133     7.083     2.527     2.363  0.8338 -0.0444 -0.5503
 
              Baa    -0.9428    68.217    24.342    22.755 -0.1433 -0.2287  0.9629
    16 O(17)  Bbb    -0.7302    52.834    18.853    17.624  0.3466  0.8997  0.2653
              Bcc     1.6729  -121.051   -43.194   -40.378  0.9270 -0.3718  0.0497
 
              Baa    -1.6383   118.543    42.299    39.542  0.3408  0.8793  0.3327
    17 O(17)  Bbb    -1.3694    99.091    35.358    33.053 -0.1959 -0.2797  0.9399
              Bcc     3.0077  -217.635   -77.657   -72.595  0.9195 -0.3855  0.0769
 
              Baa    -0.0460   -24.536    -8.755    -8.184  0.2975  0.9503  0.0918
    18 H(1)   Bbb    -0.0380   -20.270    -7.233    -6.761  0.9521 -0.3025  0.0454
              Bcc     0.0840    44.806    15.988    14.946 -0.0709 -0.0739  0.9947
 

 ---------------------------------------------------------------------------------

 Calling FoFJK, ICntrl=      2127 FMM=F ISym2X=0 I1Cent= 0 IOpClX= 1 NMat=1 NMatS=1 NMatT=0.
 ***** Axes restored to original set *****
 -------------------------------------------------------------------
 Center     Atomic                   Forces (Hartrees/Bohr)
 Number     Number              X              Y              Z
 -------------------------------------------------------------------
      1        6          -0.034158725   -0.011077984    0.044574698
      2        6          -0.000457455    0.031665698   -0.016366021
      3        6          -0.006877739    0.019364789   -0.030110953
      4        6           0.017066636   -0.007197270    0.031203070
      5        6           0.001022007   -0.001359570    0.001231283
      6        6           0.006447759    0.014267902    0.001876260
      7        6           0.006176361   -0.027562069    0.017915440
      8        8           0.005479507    0.007439001   -0.042116893
      9        1           0.043158708   -0.066310712    0.036967974
     10        1          -0.002013123   -0.005969069   -0.001162483
     11        1           0.003855444   -0.012752485    0.000547787
     12        1           0.002449926   -0.009436749   -0.004582194
     13        1           0.003201339    0.007448260   -0.006934496
     14        1          -0.004786650    0.001493421   -0.004044177
     15        1          -0.008196928    0.013921199   -0.001553763
     16        8           0.002259248   -0.004994223    0.020114413
     17        8          -0.036053156    0.058420593   -0.029991276
     18        1           0.001426840   -0.007360731   -0.017568669
 -------------------------------------------------------------------
 Cartesian Forces:  Max     0.066310712 RMS     0.021609208

 GradGradGradGradGradGradGradGradGradGradGradGradGradGradGradGradGradGrad
 Berny optimization.
 Internal  Forces:  Max     0.049593417 RMS     0.011587513
 Search for a local minimum.
 Step number   1 out of a maximum of   91
 All quantities printed in internal units (Hartrees-Bohrs-Radians)
 Mixed Optimization -- RFO/linear search
 Second derivative matrix not updated -- first step.
 ITU=  0
     Eigenvalues ---    0.00230   0.00230   0.01251   0.02273   0.02284
     Eigenvalues ---    0.02310   0.02378   0.02390   0.02417   0.02421
     Eigenvalues ---    0.02438   0.02480   0.02600   0.05934   0.07948
     Eigenvalues ---    0.11883   0.15124   0.15526   0.15528   0.15767
     Eigenvalues ---    0.15856   0.15999   0.16000   0.16000   0.17681
     Eigenvalues ---    0.21869   0.21966   0.22204   0.22356   0.34764
     Eigenvalues ---    0.34946   0.35015   0.35281   0.36191   0.36550
     Eigenvalues ---    0.36934   0.43228   0.44772   0.47434   0.48123
     Eigenvalues ---    0.48964   0.49720   0.50046   0.50910   0.60446
     Eigenvalues --- 1000.000001000.000001000.000001000.000001000.00000
     Eigenvalues --- 1000.000001000.000001000.000001000.000001000.00000
     Eigenvalues --- 1000.000001000.000001000.000001000.000001000.00000
     Eigenvalues --- 1000.000001000.000001000.000001000.000001000.00000
     Eigenvalues --- 1000.000001000.000001000.000001000.000001000.00000
     Eigenvalues --- 1000.000001000.000001000.000001000.000001000.00000
     Eigenvalues --- 1000.000001000.000001000.000001000.000001000.00000
     Eigenvalues --- 1000.00000
 RFO step:  Lambda=-3.36532320D-02 EMin= 2.30000000D-03
 Linear search not attempted -- first point.
 Iteration  1 RMS(Cart)=  0.09619019 RMS(Int)=  0.00540686
 Iteration  2 RMS(Cart)=  0.00691472 RMS(Int)=  0.00163276
 Iteration  3 RMS(Cart)=  0.00004648 RMS(Int)=  0.00163249
 Iteration  4 RMS(Cart)=  0.00000005 RMS(Int)=  0.00163249
 Iteration  1 RMS(Cart)=  0.00000000 RMS(Int)=  0.00000000
 Variable       Old X    -DE/DX   Delta X   Delta X   Delta X     New X
                                 (Linear)    (Quad)   (Total)
    R1        2.76530   0.02838   0.00000   0.07111   0.07111   2.83641
    R2        2.58958  -0.04190   0.00000  -0.07719  -0.07719   2.51239
    R3        2.48979  -0.03727   0.00000   0.00000   0.00000   2.48979
    R4        2.06060   0.00508   0.00000   0.01332   0.01332   2.07392
    R5        4.80462   0.01276   0.00000   0.00000   0.00000   4.80462
    R6        2.59779   0.02171   0.00000   0.03889   0.04001   2.63780
    R7        2.60937   0.02416   0.00000   0.04475   0.04569   2.65506
    R8        2.62558   0.00166   0.00000   0.00291   0.00309   2.62867
    R9        2.05221   0.00083   0.00000   0.00215   0.00215   2.05436
   R10        2.62532  -0.00197   0.00000  -0.00358  -0.00376   2.62156
   R11        2.05763  -0.00310   0.00000  -0.00810  -0.00810   2.04953
   R12        2.59811   0.01347   0.00000   0.02663   0.02568   2.62379
   R13        2.03784   0.00228   0.00000   0.00576   0.00576   2.04360
   R14        2.59825   0.01785   0.00000   0.03520   0.03407   2.63233
   R15        2.02646   0.00741   0.00000   0.01838   0.01838   2.04484
   R16        2.05651  -0.00444   0.00000  -0.01156  -0.01156   2.04495
   R17        2.32910   0.04959   0.00000   0.00000   0.00000   2.32910
   R18        2.50589  -0.01285   0.00000  -0.02014  -0.02014   2.48575
   R19        1.88509  -0.01871   0.00000  -0.03635  -0.03635   1.84874
    A1        2.01191   0.01324   0.00000   0.06317   0.06292   2.07484
    A2        1.79846  -0.00591   0.00000  -0.02827  -0.02788   1.77058
    A3        2.02203  -0.00200   0.00000  -0.00334  -0.00355   2.01847
    A4        1.79109  -0.00471   0.00000  -0.02969  -0.02893   1.76216
    A5        2.02738  -0.00703   0.00000  -0.03432  -0.03467   1.99271
    A6        1.75377   0.00415   0.00000   0.01918   0.01919   1.77296
    A7        2.06760  -0.00260   0.00000   0.01530   0.00821   2.07581
    A8        2.05811   0.00646   0.00000   0.05019   0.04393   2.10203
    A9        2.04124   0.00092   0.00000   0.01584   0.01421   2.05545
   A10        2.13232  -0.00146   0.00000  -0.00677  -0.00780   2.12452
   A11        2.07978  -0.00152   0.00000   0.00960   0.00386   2.08364
   A12        2.01465   0.00612   0.00000   0.04946   0.04415   2.05880
   A13        2.13667  -0.00599   0.00000  -0.02907  -0.02746   2.10921
   A14        2.01830   0.00803   0.00000   0.04586   0.04396   2.06226
   A15        2.11060  -0.00133   0.00000  -0.00348  -0.00561   2.10499
   A16        2.07639   0.00285   0.00000   0.00938   0.00977   2.08616
   A17        2.14963  -0.00848   0.00000  -0.03887  -0.03987   2.10977
   A18        2.04773   0.00607   0.00000   0.03670   0.03591   2.08365
   A19        2.10251  -0.00313   0.00000  -0.01091  -0.01146   2.09105
   A20        2.13386  -0.00395   0.00000  -0.02288  -0.02276   2.11111
   A21        2.04671   0.00710   0.00000   0.03414   0.03425   2.08097
   A22        2.06760   0.00748   0.00000   0.03278   0.03065   2.09825
   A23        2.09228  -0.00341   0.00000  -0.00580  -0.00834   2.08394
   A24        2.09970  -0.00246   0.00000  -0.00114  -0.00369   2.09601
   A25        2.98756   0.00261   0.00000   0.00000   0.00000   2.98756
   A26        1.86374  -0.00492   0.00000  -0.02541  -0.02541   1.83833
   A27        2.59589  -0.01069   0.00000  -0.05519  -0.05519   2.54069
    D1        3.05279  -0.00295   0.00000  -0.07017  -0.07064   2.98215
    D2       -0.60267   0.00711   0.00000   0.10048   0.10183  -0.50083
    D3       -1.29408  -0.00637   0.00000  -0.09509  -0.09636  -1.39044
    D4        1.33365   0.00369   0.00000   0.07555   0.07611   1.40976
    D5        0.60225  -0.00576   0.00000  -0.09042  -0.09142   0.51083
    D6       -3.05320   0.00430   0.00000   0.08022   0.08105  -2.97215
    D7        2.16625  -0.00417   0.00000  -0.01269  -0.01300   2.15325
    D8       -2.02140   0.00620   0.00000   0.03383   0.03407  -1.98732
    D9        0.07405  -0.00150   0.00000  -0.00644  -0.00637   0.06768
   D10        2.65134   0.01137   0.00000   0.17424   0.17226   2.82360
   D11       -0.11938   0.00017   0.00000  -0.00158  -0.00202  -0.12140
   D12        0.01869  -0.00023   0.00000  -0.00480  -0.00438   0.01431
   D13       -2.75202  -0.01143   0.00000  -0.18062  -0.17866  -2.93068
   D14       -2.62105  -0.00959   0.00000  -0.17604  -0.17637  -2.79742
   D15        0.71964  -0.01353   0.00000  -0.25052  -0.25186   0.46778
   D16        0.01443  -0.00075   0.00000  -0.00834  -0.00776   0.00667
   D17       -2.92807  -0.00469   0.00000  -0.08282  -0.08325  -3.01132
   D18        0.03741  -0.00152   0.00000  -0.03035  -0.03150   0.00591
   D19       -2.95298  -0.00550   0.00000  -0.09104  -0.09095  -3.04393
   D20        2.82095   0.00785   0.00000   0.13203   0.13264   2.95359
   D21       -0.16944   0.00387   0.00000   0.07134   0.07319  -0.09624
   D22       -0.10249   0.00330   0.00000   0.05482   0.05465  -0.04784
   D23       -3.01315  -0.00415   0.00000  -0.06953  -0.06927  -3.08242
   D24        2.82971   0.00844   0.00000   0.13838   0.13741   2.96712
   D25       -0.08095   0.00099   0.00000   0.01403   0.01349  -0.06746
   D26       -0.12814   0.00488   0.00000   0.08135   0.08105  -0.04709
   D27        3.02921   0.00336   0.00000   0.05346   0.05323   3.08244
   D28        2.87103   0.00738   0.00000   0.13211   0.13309   3.00413
   D29       -0.25480   0.00586   0.00000   0.10421   0.10528  -0.14953
   D30        0.15893  -0.00513   0.00000  -0.09054  -0.09085   0.06807
   D31        3.06857   0.00223   0.00000   0.03374   0.03333   3.10191
   D32       -2.99766  -0.00377   0.00000  -0.06449  -0.06401  -3.06167
   D33       -0.08801   0.00359   0.00000   0.05980   0.06017  -0.02783
   D34       -3.02235   0.00161   0.00000   0.04483   0.04483  -2.97752
   D35       -0.56582   0.00528   0.00000   0.09360   0.09360  -0.47222
         Item               Value     Threshold  Converged?
 Maximum Force            0.041896     0.002500     NO 
 RMS     Force            0.009377     0.001667     NO 
 Maximum Displacement     0.327263     0.010000     NO 
 RMS     Displacement     0.098331     0.006667     NO 
 Predicted change in Energy=-2.332987D-02
 GradGradGradGradGradGradGradGradGradGradGradGradGradGradGradGradGradGrad

                          Input orientation:                          
 ---------------------------------------------------------------------
 Center     Atomic      Atomic             Coordinates (Angstroms)
 Number     Number       Type             X           Y           Z
 ---------------------------------------------------------------------
      1          6           0       -1.287596   -1.438455    0.187817
      2          6           0        0.103964   -0.877780    0.142097
      3          6           0        0.721159   -0.702759   -1.097610
      4          6           0        0.620230   -0.164393    1.236886
      5          6           0        1.821820    0.133103   -1.255254
      6          6           0        2.330601    0.809527   -0.154626
      7          6           0        1.702265    0.689997    1.082816
      8          8           0       -1.805239   -1.776680    1.364770
      9          1           0       -2.007736   -0.375087   -0.106397
     10          1           0       -1.553102   -2.118113   -0.631951
     11          1           0        0.233731   -1.078205   -1.993872
     12          1           0        2.234050    0.329083   -2.235635
     13          1           0        3.218182    1.422630   -0.239537
     14          1           0        2.115823    1.185466    1.951439
     15          1           0        0.228110   -0.386520    2.223385
     16          8           0       -3.080972    1.785119   -0.431249
     17          8           0       -2.750823    0.515195   -0.523881
     18          1           0       -2.844369    2.047972    0.480902
 ---------------------------------------------------------------------
                    Distance matrix (angstroms):
                    1          2          3          4          5
     1  C    0.000000
     2  C    1.500962   0.000000
     3  C    2.495730   1.395864   0.000000
     4  C    2.522614   1.404996   2.397894   0.000000
     5  C    3.771037   2.434236   1.391033   2.782640   0.000000
     6  C    4.273411   2.809441   2.401361   2.410435   1.388449
     7  C    3.777645   2.428465   2.767056   1.387271   2.406449
     8  O    1.329499   2.438853   3.687723   2.915256   4.864910
     9  H    1.317542   2.184886   2.921770   2.958886   4.030339
    10  H    1.097474   2.209852   2.718884   3.468854   4.104459
    11  H    2.684023   2.149273   1.087120   3.379679   2.129519
    12  H    4.625938   3.412828   2.156071   3.860873   1.081429
    13  H    5.354482   3.890486   3.389497   3.383463   2.155084
    14  H    4.645276   3.402687   3.848010   2.137641   3.387741
    15  H    2.747266   2.142080   3.372256   1.084564   3.861457
    16  O    3.740437   4.190891   4.592360   4.503572   5.238846
    17  O    2.542498   3.245568   3.723874   3.863436   4.646500
    18  H    3.829441   4.167431   4.771919   4.179655   5.334256
                    6          7          8          9         10
     6  C    0.000000
     7  C    1.392967   0.000000
     8  O    5.109031   4.297275   0.000000
     9  H    4.497423   4.038904   2.042009   0.000000
    10  H    4.886928   4.628534   2.041334   1.876444   0.000000
    11  H    3.367970   3.840461   3.990706   3.013489   2.475684
    12  H    2.137931   3.380114   5.806290   4.798152   4.785718
    13  H    1.082083   2.140881   6.167993   5.528086   5.954494
    14  H    2.150109   1.082139   4.949062   4.865569   5.572123
    15  H    3.392040   2.152422   2.608500   3.229090   3.784716
    16  O    5.505762   5.135274   4.188029   2.433896   4.196414
    17  O    5.103317   4.737302   3.116700   1.232506   2.894914
    18  H    5.358914   4.783125   4.060662   2.629846   4.501342
                   11         12         13         14         15
    11  H    0.000000
    12  H    2.457679   0.000000
    13  H    4.270692   2.479671   0.000000
    14  H    4.922596   4.275390   2.464105   0.000000
    15  H    4.273607   4.941533   4.275458   2.471550   0.000000
    16  O    4.650555   5.798733   6.312486   5.748344   4.765828
    17  O    3.688815   5.273869   6.044279   5.500974   4.151457
    18  H    5.037081   6.010365   6.137149   5.244988   4.289886
                   16         17         18
    16  O    0.000000
    17  O    1.315403   0.000000
    18  H    0.978311   1.835142   0.000000
 Stoichiometry    C7H8O3(3)
 Framework group  C1[X(C7H8O3)]
 Deg. of freedom    48
 Full point group                 C1      NOp   1
 Largest Abelian subgroup         C1      NOp   1
 Largest concise Abelian subgroup C1      NOp   1
                         Standard orientation:                         
 ---------------------------------------------------------------------
 Center     Atomic      Atomic             Coordinates (Angstroms)
[...]
    11  H    0.005661   0.000242  -0.000443   0.000863   0.467886  -0.006907
    12  H   -0.007856  -0.000006   0.000035  -0.000003  -0.006907   0.482232
    13  H    0.033142   0.000000  -0.000003  -0.000001  -0.000066  -0.006877
    14  H    0.341365   0.000072  -0.000003   0.000008   0.000044  -0.000055
    15  H   -0.008828   0.001769   0.002145  -0.000294  -0.000048   0.000035
    16  O   -0.023326   0.005559  -0.004311   0.001539  -0.000095   0.000052
    17  O   -0.006344   0.032603  -0.159389   0.007868  -0.000004  -0.000070
    18  H   -0.007329   0.001346   0.007584   0.000687   0.000276  -0.000076
             13         14         15         16         17         18
     1  C    0.001522   0.006333   0.014984   0.050689  -0.125988   0.032251
     2  C    0.019586  -0.006909   0.043649  -0.145733   0.134077  -0.049773
     3  C   -0.022373  -0.003823   0.016145   0.064583  -0.082857  -0.017394
     4  C   -0.022524   0.008502   0.327363   0.053096   0.089340   0.057049
     5  C    0.036803  -0.006553  -0.004169  -0.011780  -0.020269   0.010313
     6  C    0.336801   0.039973  -0.010363   0.013329  -0.002436  -0.002473
     7  C    0.033142   0.341365  -0.008828  -0.023326  -0.006344  -0.007329
     8  O    0.000000   0.000072   0.001769   0.005559   0.032603   0.001346
     9  H   -0.000003  -0.000003   0.002145  -0.004311  -0.159389   0.007584
    10  H   -0.000001   0.000008  -0.000294   0.001539   0.007868   0.000687
    11  H   -0.000066   0.000044  -0.000048  -0.000095  -0.000004   0.000276
    12  H   -0.006877  -0.000055   0.000035   0.000052  -0.000070  -0.000076
    13  H    0.480275  -0.006877  -0.000034   0.000002  -0.000005   0.000001
    14  H   -0.006877   0.475380  -0.005671  -0.000190   0.000052   0.000214
    15  H   -0.000034  -0.005671   0.407110   0.000110  -0.001812   0.000130
    16  O    0.000002  -0.000190   0.000110   7.545683   0.230932   0.251614
    17  O   -0.000005   0.000052  -0.001812   0.230932   8.003317  -0.073152
    18  H    0.000001   0.000214   0.000130   0.251614  -0.073152   0.405344
 Mulliken atomic charges:
              1
     1  C   -0.537987
     2  C    0.579841
     3  C   -0.445393
     4  C   -0.456789
     5  C   -0.096831
     6  C   -0.232090
     7  C   -0.073717
     8  O   -0.401076
     9  H    0.333168
    10  H    0.164257
    11  H    0.164368
    12  H    0.149935
    13  H    0.150629
    14  H    0.158136
    15  H    0.217779
    16  O   -0.031754
    17  O   -0.025864
    18  H    0.383387
 Sum of Mulliken atomic charges =   0.00000
 Mulliken charges with hydrogens summed into heavy atoms:
              1
     1  C   -0.373730
     2  C    0.579841
     3  C   -0.281025
     4  C   -0.239009
     5  C    0.053104
     6  C   -0.081462
     7  C    0.084419
     8  O   -0.401076
    16  O    0.351633
    17  O    0.307304
 Sum of Mulliken charges with hydrogens summed into heavy atoms =   0.00000
          Atomic-Atomic Spin Densities.
              1          2          3          4          5          6
     1  C    0.293203   0.101053   0.112772  -0.294607  -0.056956  -0.007506
     2  C    0.101053   0.302203  -0.218759  -0.378334   0.173185  -0.173007
     3  C    0.112772  -0.218759   0.474574  -0.259278  -0.113540   0.025324
     4  C   -0.294607  -0.378334  -0.259278   1.071256  -0.070450   0.185334
     5  C   -0.056956   0.173185  -0.113540  -0.070450   0.055880  -0.046756
     6  C   -0.007506  -0.173007   0.025324   0.185334  -0.046756   0.172337
     7  C    0.019618   0.126171   0.023613  -0.144702   0.029838  -0.089617
     8  O   -0.131883   0.010596  -0.002328   0.025217   0.003036  -0.000902
     9  H    0.310474  -0.094973   0.080526  -0.155624  -0.016058  -0.000161
    10  H   -0.072718   0.063027  -0.025816   0.031300   0.004868   0.000594
    11  H    0.006001  -0.004272   0.006042  -0.012488   0.003803  -0.001412
    12  H    0.000280  -0.001134   0.001292   0.000225  -0.001196   0.000421
    13  H   -0.000159   0.001284  -0.001875  -0.000904   0.001886  -0.001874
    14  H    0.000515  -0.000261   0.001237  -0.000706  -0.000917   0.000845
    15  H    0.007528   0.015913  -0.000039  -0.026999   0.001083  -0.004333
    16  O   -0.002532   0.021036  -0.010437  -0.014298   0.010105  -0.006451
    17  O   -0.147478  -0.006713  -0.027221   0.128180   0.003532   0.004846
    18  H    0.009905   0.021044   0.005936  -0.039141  -0.002966  -0.000939
              7          8          9         10         11         12
     1  C    0.019618  -0.131883   0.310474  -0.072718   0.006001   0.000280
     2  C    0.126171   0.010596  -0.094973   0.063027  -0.004272  -0.001134
     3  C    0.023613  -0.002328   0.080526  -0.025816   0.006042   0.001292
     4  C   -0.144702   0.025217  -0.155624   0.031300  -0.012488   0.000225
     5  C    0.029838   0.003036  -0.016058   0.004868   0.003803  -0.001196
     6  C   -0.089617  -0.000902  -0.000161   0.000594  -0.001412   0.000421
     7  C    0.009867  -0.011728   0.009048  -0.001574   0.001693  -0.000237
     8  O   -0.011728   0.720798  -0.087757   0.004704  -0.000142  -0.000001
     9  H    0.009048  -0.087757   0.331393  -0.038324   0.001293   0.000012
    10  H   -0.001574   0.004704  -0.038324   0.029997  -0.000890  -0.000005
    11  H    0.001693  -0.000142   0.001293  -0.000890  -0.001216  -0.000018
    12  H   -0.000237  -0.000001   0.000012  -0.000005  -0.000018   0.001657
    13  H    0.001598   0.000000  -0.000003   0.000001   0.000004  -0.000009
    14  H   -0.001096  -0.000012   0.000024  -0.000003   0.000000   0.000001
    15  H    0.004939  -0.000506   0.001437  -0.000196   0.000033  -0.000001
    16  O    0.008524  -0.004816   0.017979  -0.001083   0.000319  -0.000010
    17  O   -0.014784   0.052291  -0.234513   0.016490  -0.001428  -0.000003
    18  H    0.005286  -0.004853   0.016722  -0.000783   0.000118   0.000003
             13         14         15         16         17         18
     1  C   -0.000159   0.000515   0.007528  -0.002532  -0.147478   0.009905
     2  C    0.001284  -0.000261   0.015913   0.021036  -0.006713   0.021044
     3  C   -0.001875   0.001237  -0.000039  -0.010437  -0.027221   0.005936
     4  C   -0.000904  -0.000706  -0.026999  -0.014298   0.128180  -0.039141
     5  C    0.001886  -0.000917   0.001083   0.010105   0.003532  -0.002966
     6  C   -0.001874   0.000845  -0.004333  -0.006451   0.004846  -0.000939
     7  C    0.001598  -0.001096   0.004939   0.008524  -0.014784   0.005286
     8  O    0.000000  -0.000012  -0.000506  -0.004816   0.052291  -0.004853
     9  H   -0.000003   0.000024   0.001437   0.017979  -0.234513   0.016722
    10  H    0.000001  -0.000003  -0.000196  -0.001083   0.016490  -0.000783
    11  H    0.000004   0.000000   0.000033   0.000319  -0.001428   0.000118
    12  H   -0.000009   0.000001  -0.000001  -0.000010  -0.000003   0.000003
    13  H   -0.004532  -0.000033   0.000005   0.000004   0.000002  -0.000003
    14  H   -0.000033   0.001604   0.000074   0.000010  -0.000027   0.000032
    15  H    0.000005   0.000074  -0.002819  -0.000185  -0.000916   0.000571
    16  O    0.000004   0.000010  -0.000185   0.548879  -0.184886  -0.002458
    17  O    0.000002  -0.000027  -0.000916  -0.184886   1.112163  -0.011650
    18  H   -0.000003   0.000032   0.000571  -0.002458  -0.011650  -0.011350
 Mulliken atomic spin densities:
              1
     1  C    0.147509
     2  C   -0.041939
     3  C    0.072025
     4  C    0.043980
     5  C   -0.021625
     6  C    0.056745
     7  C   -0.023542
     8  O    0.571714
     9  H    0.141497
    10  H    0.009587
    11  H   -0.002559
    12  H    0.001280
    13  H   -0.004608
    14  H    0.001286
    15  H   -0.004411
    16  O    0.379701
    17  O    0.687886
    18  H   -0.014526
 Sum of Mulliken atomic spin densities =   2.00000
 Electronic spatial extent (au):  <R**2>=           1457.7447
 Charge=              0.0000 electrons
 Dipole moment (field-independent basis, Debye):
    X=             -2.6977    Y=              3.0942    Z=              0.2839  Tot=              4.1149
 Quadrupole moment (field-independent basis, Debye-Ang):
   XX=            -62.1030   YY=            -65.9288   ZZ=            -53.6371
   XY=              4.0423   XZ=              2.5220   YZ=              0.3026
 Traceless Quadrupole moment (field-independent basis, Debye-Ang):
   XX=             -1.5467   YY=             -5.3725   ZZ=              6.9192
   XY=              4.0423   XZ=              2.5220   YZ=              0.3026
 Octapole moment (field-independent basis, Debye-Ang**2):
  XXX=             -6.6612  YYY=             16.5787  ZZZ=             -3.2518  XYY=             -3.0871
  XXY=             23.3487  XXZ=              0.1889  XZZ=              4.5814  YZZ=              2.6140
  YYZ=              0.2055  XYZ=             -6.2134
 Hexadecapole moment (field-independent basis, Debye-Ang**3):
 XXXX=          -1117.1203 YYYY=           -426.7785 ZZZZ=           -328.8796 XXXY=             17.8503
 XXXZ=              9.9738 YYYX=             30.8911 YYYZ=             -4.5885 ZZZX=              1.2912
 ZZZY=              5.5616 XXYY=           -293.2018 XXZZ=           -230.6686 YYZZ=           -124.4355
 XXYZ=              1.6899 YYXZ=              0.9437 ZZXY=              1.2291
 N-N= 5.116530483623D+02 E-N=-3.256663625506D+03  KE= 7.399632324678D+02
                          Isotropic Fermi Contact Couplings
        Atom                 a.u.       MegaHertz       Gauss      10(-4) cm-1
     1  C(13)              0.00285       1.60355       0.57219       0.53489
     2  C(13)              0.01059       5.95388       2.12449       1.98600
     3  C(13)              0.00559       3.14397       1.12185       1.04871
     4  C(13)              0.00454       2.55452       0.91152       0.85210
     5  C(13)             -0.00452      -2.54004      -0.90635      -0.84727
     6  C(13)              0.00618       3.47229       1.23900       1.15823
     7  C(13)             -0.00482      -2.71019      -0.96706      -0.90402
     8  O(17)              0.10650     -32.27922     -11.51803     -10.76719
     9  H(1)               0.05908     132.03011      47.11163      44.04050
    10  H(1)               0.00813      18.17746       6.48617       6.06335
    11  H(1)              -0.00050      -1.12746      -0.40231      -0.37608
    12  H(1)               0.00024       0.54707       0.19521       0.18248
    13  H(1)              -0.00085      -1.89942      -0.67776      -0.63358
    14  H(1)               0.00028       0.62608       0.22340       0.20884
    15  H(1)              -0.00064      -1.43732      -0.51287      -0.47944
    16  O(17)              0.08291     -25.13043      -8.96716      -8.38261
    17  O(17)              0.23803     -72.14598     -25.74348     -24.06531
    18  H(1)              -0.00674     -15.05463      -5.37187      -5.02168
 --------------------------------------------------------
       Center         ----  Spin Dipole Couplings  ----
                      3XX-RR        3YY-RR        3ZZ-RR
 --------------------------------------------------------
     1   Atom       -0.063972      0.178040     -0.114069
     2   Atom        0.038899     -0.029798     -0.009100
     3   Atom       -0.011895      0.036373     -0.024478
     4   Atom       -0.010148      0.028617     -0.018469
     5   Atom        0.013425     -0.017249      0.003824
     6   Atom       -0.010691      0.035335     -0.024643
     7   Atom        0.010652     -0.014014      0.003362
     8   Atom       -0.431023      1.481639     -1.050616
     9   Atom       -0.046209      0.099996     -0.053787
    10   Atom       -0.017562     -0.006850      0.024412
    11   Atom        0.001130     -0.004643      0.003513
    12   Atom        0.003377     -0.002220     -0.001157
    13   Atom        0.006082     -0.001283     -0.004798
    14   Atom        0.002988     -0.001644     -0.001343
    15   Atom        0.002433     -0.002021     -0.000412
    16   Atom        0.017335     -0.099598      0.082263
    17   Atom       -0.000825      0.001523     -0.000698
    18   Atom        0.029344      0.013885     -0.043229
 --------------------------------------------------------
                        XY            XZ            YZ
 --------------------------------------------------------
     1   Atom        0.136501     -0.048670     -0.046786
     2   Atom       -0.034039      0.015655      0.006829
     3   Atom        0.022092     -0.010892     -0.019858
     4   Atom        0.026375     -0.006738     -0.028122
     5   Atom       -0.008655      0.002122      0.007993
     6   Atom        0.028361     -0.008820     -0.022080
     7   Atom       -0.009091      0.005203      0.007681
     8   Atom        1.428406     -0.282802     -0.618944
     9   Atom        0.069476     -0.030404     -0.055625
    10   Atom        0.006748      0.005012     -0.007818
    11   Atom        0.001237     -0.005493      0.000847
    12   Atom       -0.000783     -0.000919      0.000014
    13   Atom       -0.001520      0.001504     -0.001669
    14   Atom        0.000105      0.001842      0.000759
    15   Atom        0.001662      0.006685      0.002959
    16   Atom       -0.907485     -1.064348      0.971576
    17   Atom       -1.073307     -1.672103      1.239356
    18   Atom        0.055799      0.012402      0.013153
 --------------------------------------------------------


 ---------------------------------------------------------------------------------
              Anisotropic Spin Dipole Couplings in Principal Axis System
 ---------------------------------------------------------------------------------

       Atom             a.u.   MegaHertz   Gauss  10(-4) cm-1        Axes

              Baa    -0.1500   -20.123    -7.180    -6.712  0.6944 -0.1900  0.6940
     1 C(13)  Bbb    -0.1003   -13.460    -4.803    -4.490 -0.5881  0.4060  0.6996
              Bcc     0.2503    33.583    11.983    11.202  0.4147  0.8939 -0.1702
 
              Baa    -0.0478    -6.420    -2.291    -2.141  0.3953  0.8639 -0.3120
     2 C(13)  Bbb    -0.0073    -0.982    -0.350    -0.327 -0.0507  0.3597  0.9317
              Bcc     0.0552     7.401     2.641     2.469  0.9171 -0.3525  0.1860
 
              Baa    -0.0318    -4.270    -1.524    -1.424  0.3252  0.1658  0.9310
     3 C(13)  Bbb    -0.0198    -2.654    -0.947    -0.885  0.8752 -0.4256 -0.2299
              Bcc     0.0516     6.924     2.471     2.309  0.3582  0.8896 -0.2835
 
              Baa    -0.0335    -4.489    -1.602    -1.497 -0.3415  0.5044  0.7930
     4 C(13)  Bbb    -0.0197    -2.638    -0.941    -0.880  0.8547 -0.1843  0.4853
              Bcc     0.0531     7.127     2.543     2.377  0.3909  0.8436 -0.3682
 
              Baa    -0.0222    -2.973    -1.061    -0.992  0.2423  0.9216 -0.3033
     5 C(13)  Bbb     0.0065     0.866     0.309     0.289  0.0749  0.2939  0.9529
              Bcc     0.0157     2.107     0.752     0.703  0.9673 -0.2536  0.0022
 
              Baa    -0.0319    -4.283    -1.528    -1.429 -0.0499  0.3305  0.9425
     6 C(13)  Bbb    -0.0239    -3.210    -1.146    -1.071  0.9118 -0.3700  0.1781
              Bcc     0.0558     7.493     2.674     2.500  0.4076  0.8682 -0.2829
 
              Baa    -0.0204    -2.735    -0.976    -0.912  0.3171  0.8798 -0.3541
     7 C(13)  Bbb     0.0060     0.802     0.286     0.268 -0.1730  0.4208  0.8905
              Bcc     0.0144     1.933     0.690     0.645  0.9325 -0.2211  0.2856
 
              Baa    -1.2309    89.066    31.781    29.709 -0.5947  0.4631  0.6572
     8 O(17)  Bbb    -1.1479    83.065    29.639    27.707  0.6593 -0.1867  0.7283
              Bcc     2.3788  -172.130   -61.420   -57.416  0.4600  0.8664 -0.1943
 
              Baa    -0.0810   -43.211   -15.419   -14.413  0.7424 -0.0806  0.6651
     9 H(1)   Bbb    -0.0665   -35.462   -12.654   -11.829 -0.5628  0.4636  0.6844
              Bcc     0.1475    78.673    28.072    26.242  0.3635  0.8824 -0.2988
 
              Baa    -0.0222   -11.846    -4.227    -3.951  0.8667 -0.4684 -0.1717
    10 H(1)   Bbb    -0.0043    -2.303    -0.822    -0.768  0.4927  0.8576  0.1474
              Bcc     0.0265    14.149     5.049     4.720  0.0782 -0.2124  0.9740
 
              Baa    -0.0056    -2.993    -1.068    -0.998 -0.4273  0.8397 -0.3352
    11 H(1)   Bbb    -0.0023    -1.245    -0.444    -0.415  0.6498  0.5430  0.5319
              Bcc     0.0079     4.238     1.512     1.414 -0.6286 -0.0095  0.7776
 
              Baa    -0.0023    -1.248    -0.445    -0.416  0.1516  0.9828  0.1058
    12 H(1)   Bbb    -0.0013    -0.703    -0.251    -0.235  0.1692 -0.1313  0.9768
              Bcc     0.0037     1.951     0.696     0.651  0.9738 -0.1302 -0.1862
 
              Baa    -0.0055    -2.950    -1.053    -0.984 -0.0767  0.3410  0.9369
    13 H(1)   Bbb    -0.0011    -0.609    -0.217    -0.203  0.2574  0.9146 -0.3118
              Bcc     0.0067     3.559     1.270     1.187  0.9633 -0.2173  0.1579
 
              Baa    -0.0025    -1.356    -0.484    -0.452 -0.2398 -0.6104  0.7549
    14 H(1)   Bbb    -0.0011    -0.612    -0.218    -0.204 -0.2666  0.7891  0.5534
              Bcc     0.0037     1.969     0.702     0.657  0.9335  0.0686  0.3519
 
              Baa    -0.0063    -3.344    -1.193    -1.116 -0.5337 -0.3329  0.7774
    15 H(1)   Bbb    -0.0025    -1.338    -0.477    -0.446 -0.4271  0.8995  0.0920
              Bcc     0.0088     4.682     1.671     1.562  0.7299  0.2829  0.6222
 
              Baa    -1.0217    73.926    26.379    24.659  0.5763 -0.2519  0.7774
    16 O(17)  Bbb    -0.9472    68.542    24.458    22.863  0.5732  0.8026 -0.1649
              Bcc     1.9689  -142.468   -50.836   -47.522 -0.5825  0.5406  0.6070
 
              Baa    -1.6883   122.163    43.591    40.749  0.6550 -0.1299  0.7444
    17 O(17)  Bbb    -0.9851    71.283    25.435    23.777  0.4685  0.8427 -0.2651
              Bcc     2.6734  -193.446   -69.026   -64.526 -0.5929  0.5224  0.6128
 
              Baa    -0.0461   -24.604    -8.779    -8.207 -0.0071 -0.2079  0.9781
    18 H(1)   Bbb    -0.0344   -18.380    -6.558    -6.131 -0.6673  0.7295  0.1502
              Bcc     0.0806    42.984    15.338    14.338  0.7448  0.6516  0.1439
 

 ---------------------------------------------------------------------------------

 1\1\GINC-COMPUTE-3-045\FOpt\UM062X\6-311+G(2df,2p)\C7H8O3(3)\ROOT\29-S
 ep-2017\0\\# m062x/6-311+g(2df,2p) Opt=(ModRedun,Loose) Int(Grid=SG1)\
 \[O]CC1C=CC=CC=1+[O]O_OO+[O][CH]C1C=CC=CC=1\\0,3\C,-1.3890479372,-1.46
 63126385,0.1852296864\C,-0.1035990829,-0.6935017065,0.0765735064\C,0.5
 223745453,-0.5115871266,-1.1600606353\C,0.4175119336,-0.0434254029,1.2
 006360106\C,1.6417748481,0.2971660209,-1.2701521128\C,2.1513907892,0.9
 473066908,-0.1498681234\C,1.538471044,0.7720545235,1.0831778517\O,-1.8
 996304088,-1.6825157282,1.3523133646\H,-2.1731362874,-0.5014713016,-0.
 2509009569\H,-1.5121603148,-2.2327414076,-0.59865722\H,0.125770058,-1.
 0152555109,-2.0334264613\H,2.1197686085,0.4270182582,-2.2310498243\H,3
 .0219173561,1.581251823,-0.2421713325\H,1.9379425059,1.2644350789,1.95
 89696769\H,-0.061857532,-0.2134597233,2.1558604731\O,-2.1862073544,1.4
 721273269,0.0549930736\O,-2.8175737767,0.5107791011,-0.5321978536\H,-1
 .3336089941,1.0882317229,0.4008308767\\Version=EM64L-G09RevB.01\State=
 3-A\HF=-496.9433904\S2=2.014447\S2-1=0.\S2A=2.000115\RMSD=4.275e-09\RM
 SF=7.888e-03\Dipole=0.7407077,1.1459145,-0.8712707\Quadrupole=-0.02488
 39,-1.8420255,1.8669095,-0.7137805,2.5335694,4.9092238\PG=C01 [X(C7H8O
 3)]\\@


 ACCORDING TO HEN3RY, LIFE IS MUCH LIKE A SEWER........
 YOU GET OUT OF IT JUST WHAT YOU PUT INTO IT...........
                         TOM LEHRER - (THE 3 IS SILENT)
 Job cpu time:  2 days  2 hours  8 minutes 24.4 seconds.
 File lengths (MBytes):  RWF=   1312 Int=      0 D2E=      0 Chk=     32 Scr=     32
 Normal termination of Gaussian 09 at Fri Sep 29 10:50:30 2017.
