 Entering Gaussian System, Link 0=/shared/apps/gaussian/G09_LINUX_LINDA/g09/g09
 Input=/gss_gpfs_scratch/harms.n/QMscratch/[O]O+[O]O_OO+[O][O]Est.gjf
 Output=/gss_gpfs_scratch/harms.n/QMscratch/[O]O+[O]O_OO+[O][O]Est.log
 Initial command:
 /shared/apps/gaussian/G09_LINUX_LINDA/g09/l1.exe /home/harms.n/Code/OOHabstraction/Biofuels/results/Gau-36454.inp -scrdir=/home/harms.n/Code/OOHabstraction/Biofuels/results/
 Entering Link 1 = /shared/apps/gaussian/G09_LINUX_LINDA/g09/l1.exe PID=     36455.
  
 Copyright (c) 1988,1990,1992,1993,1995,1998,2003,2009,2010,
            Gaussian, Inc.  All Rights Reserved.
  
 This is part of the Gaussian(R) 09 program.  It is based on
 the Gaussian(R) 03 system (copyright 2003, Gaussian, Inc.),
 the Gaussian(R) 98 system (copyright 1998, Gaussian, Inc.),
 the Gaussian(R) 94 system (copyright 1995, Gaussian, Inc.),
 the Gaussian 92(TM) system (copyright 1992, Gaussian, Inc.),
 the Gaussian 90(TM) system (copyright 1990, Gaussian, Inc.),
 the Gaussian 88(TM) system (copyright 1988, Gaussian, Inc.),
 the Gaussian 86(TM) system (copyright 1986, Carnegie Mellon
 University), and the Gaussian 82(TM) system (copyright 1983,
 Carnegie Mellon University). Gaussian is a federally registered
 trademark of Gaussian, Inc.
  
 This software contains proprietary and confidential information,
 including trade secrets, belonging to Gaussian, Inc.
  
 This software is provided under written license and may be
 used, copied, transmitted, or stored only in accord with that
 written license.
  
 The following legend is applicable only to US Government
 contracts under FAR:
  
                    RESTRICTED RIGHTS LEGEND
  
 Use, reproduction and disclosure by the US Government is
 subject to restrictions as set forth in subparagraphs (a)
 and (c) of the Commercial Computer Software - Restricted
 Rights clause in FAR 52.227-19.
  
 Gaussian, Inc.
 340 Quinnipiac St., Bldg. 40, Wallingford CT 06492
  
  
 ---------------------------------------------------------------
 Warning -- This program may not be used in any manner that
 competes with the business of Gaussian, Inc. or will provide
 assistance to any competitor of Gaussian, Inc.  The licensee
 of this program is prohibited from giving any competitor of
 Gaussian, Inc. access to this program.  By using this program,
 the user acknowledges that Gaussian, Inc. is engaged in the
 business of creating and licensing software in the field of
 computational chemistry and represents and warrants to the
 licensee that it is not a competitor of Gaussian, Inc. and that
 it will not use this program in any manner prohibited above.
 ---------------------------------------------------------------
  

 Cite this work as:
 Gaussian 09, Revision B.01,
 M. J. Frisch, G. W. Trucks, H. B. Schlegel, G. E. Scuseria, 
 M. A. Robb, J. R. Cheeseman, G. Scalmani, V. Barone, B. Mennucci, 
 G. A. Petersson, H. Nakatsuji, M. Caricato, X. Li, H. P. Hratchian, 
 A. F. Izmaylov, J. Bloino, G. Zheng, J. L. Sonnenberg, M. Hada, 
 M. Ehara, K. Toyota, R. Fukuda, J. Hasegawa, M. Ishida, T. Nakajima, 
 Y. Honda, O. Kitao, H. Nakai, T. Vreven, J. A. Montgomery, Jr., 
 J. E. Peralta, F. Ogliaro, M. Bearpark, J. J. Heyd, E. Brothers, 
 K. N. Kudin, V. N. Staroverov, T. Keith, R. Kobayashi, J. Normand, 
 K. Raghavachari, A. Rendell, J. C. Burant, S. S. Iyengar, J. Tomasi, 
 M. Cossi, N. Rega, J. M. Millam, M. Klene, J. E. Knox, J. B. Cross, 
 V. Bakken, C. Adamo, J. Jaramillo, R. Gomperts, R. E. Stratmann, 
 O. Yazyev, A. J. Austin, R. Cammi, C. Pomelli, J. W. Ochterski, 
 R. L. Martin, K. Morokuma, V. G. Zakrzewski, G. A. Voth, 
 P. Salvador, J. J. Dannenberg, S. Dapprich, A. D. Daniels, 
 O. Farkas, J. B. Foresman, J. V. Ortiz, J. Cioslowski, 
 and D. J. Fox, Gaussian, Inc., Wallingford CT, 2010.
 
 ******************************************
 Gaussian 09:  EM64L-G09RevB.01 12-Aug-2010
                11-May-2017 
 ******************************************
 %nprocshared=20
 Will use up to   20 processors via shared memory.
 %mem=5GB
 ----------------------------------------------------------
 # m062x/6-311+g(2df,2p) Opt=(ModRedun,Loose) Int(Grid=SG1)
 ----------------------------------------------------------
 1/7=-1,14=-1,18=120,19=15,26=2,38=1/1,3;
 2/9=110,12=2,17=6,18=5,40=1/2;
 3/5=4,6=6,7=214,11=2,16=1,25=1,30=1,71=1,74=-55,75=1/1,2,3;
 4//1;
 5/5=2,38=5/2;
 6/7=2,8=2,9=2,10=2,28=1/1;
 7//1,2,3,16;
 1/7=-1,14=-1,18=20,19=15/3(2);
 2/9=110/2;
 99//99;
 2/9=110/2;
 3/5=4,6=6,7=214,11=2,16=1,25=1,30=1,71=1,74=-55,75=1/1,2,3;
 4/5=5,16=3/1;
 5/5=2,38=5/2;
 7//1,2,3,16;
 1/7=-1,14=-1,18=20,19=15/3(-5);
 2/9=110/2;
 6/7=2,8=2,9=2,10=2,19=2,28=1/1;
 99/9=1/99;
 -------------------
 [O]O+[O]O_OO+[O][O]
 -------------------
 Symbolic Z-matrix:
 Charge =  0 Multiplicity = 3
 O                     1.5257   -0.0103    0.5864 
 O                     2.1782    0.3727   -0.4978 
 H                     0.5321   -0.4595    0.0706 
 O                    -1.8646   -0.1174   -0.1109 
 O                    -0.6492   -0.6463   -0.0713 
 H                    -1.7222    0.8607    0.023 
 
 The following ModRedundant input section has been read:
 B       1       3 F                                                           
 B       1       5 F                                                           
 B       3       5 F                                                           

 GradGradGradGradGradGradGradGradGradGradGradGradGradGradGradGradGradGrad
 Berny optimization.
 Initialization pass.
                           ----------------------------
                           !    Initial Parameters    !
                           ! (Angstroms and Degrees)  !
 --------------------------                            --------------------------
 ! Name  Definition              Value          Derivative Info.                !
 --------------------------------------------------------------------------------
 ! R1    R(1,2)                  1.3221         estimate D2E/DX2                !
 ! R2    R(1,3)                  1.2063         Frozen                          !
 ! R3    R(1,5)                  2.3595         Frozen                          !
 ! R4    R(3,5)                  1.2044         Frozen                          !
 ! R5    R(4,5)                  1.3261         estimate D2E/DX2                !
 ! R6    R(4,6)                  0.9974         estimate D2E/DX2                !
 ! A1    A(2,1,3)               99.4242         estimate D2E/DX2                !
 ! A2    A(1,3,5)              156.3572         estimate D2E/DX2                !
 ! A3    A(5,4,6)              104.8478         estimate D2E/DX2                !
 ! A4    A(3,5,4)              147.2073         estimate D2E/DX2                !
 ! D1    D(2,1,3,5)           -135.545          estimate D2E/DX2                !
 ! D2    D(1,3,5,4)             45.9988         estimate D2E/DX2                !
 ! D3    D(6,4,5,3)              1.4164         estimate D2E/DX2                !
 --------------------------------------------------------------------------------
 Trust Radius=3.00D-01 FncErr=1.00D-05 GrdErr=1.00D-04
 Number of steps in this run=     23 maximum allowed number of steps=    100.
 GradGradGradGradGradGradGradGradGradGradGradGradGradGradGradGradGradGrad

                          Input orientation:                          
 ---------------------------------------------------------------------
 Center     Atomic      Atomic             Coordinates (Angstroms)
 Number     Number       Type             X           Y           Z
 ---------------------------------------------------------------------
      1          8           0        1.525700   -0.010300    0.586400
      2          8           0        2.178200    0.372700   -0.497800
      3          1           0        0.532100   -0.459500    0.070600
      4          8           0       -1.864600   -0.117400   -0.110900
      5          8           0       -0.649200   -0.646300   -0.071300
      6          1           0       -1.722200    0.860700    0.023000
 ---------------------------------------------------------------------
                    Distance matrix (angstroms):
                    1          2          3          4          5
     1  O    0.000000
     2  O    1.322095   0.000000
     3  H    1.206263   1.930099   0.000000
     4  O    3.462922   4.090736   2.427786   0.000000
     5  O    2.359503   3.035532   1.204367   1.326085   0.000000
     6  H    3.409533   3.965160   2.612865   0.997440   1.852369
                    6
     6  H    0.000000
 Stoichiometry    H2O4(3)
 Framework group  C1[X(H2O4)]
 Deg. of freedom    12
 Full point group                 C1      NOp   1
 Largest Abelian subgroup         C1      NOp   1
 Largest concise Abelian subgroup C1      NOp   1
                         Standard orientation:                         
 ---------------------------------------------------------------------
 Center     Atomic      Atomic             Coordinates (Angstroms)
 Number     Number       Type             X           Y           Z
 ---------------------------------------------------------------------
      1          8           0        1.283640   -0.537393    0.275106
      2          8           0        1.971282    0.525773   -0.105370
      3          1           0        0.239567   -0.307689   -0.283659
      4          8           0       -2.098662    0.192466    0.136666
      5          8           0       -0.956540   -0.221503   -0.395016
      6          1           0       -1.837332    0.632946    0.992569
 ---------------------------------------------------------------------
 Rotational constants (GHZ):     31.3220182      2.7740308      2.6875663
 Standard basis: 6-311+G(2df,2p) (5D, 7F)
 There are   154 symmetry adapted basis functions of A   symmetry.
 Integral buffers will be    131072 words long.
 Raffenetti 2 integral format.
 Two-electron integral symmetry is turned on.
   154 basis functions,   230 primitive gaussians,   174 cartesian basis functions
    18 alpha electrons       16 beta electrons
       nuclear repulsion energy       114.7285607516 Hartrees.
 NAtoms=    6 NActive=    6 NUniq=    6 SFac= 1.00D+00 NAtFMM=   50 NAOKFM=F Big=F
 One-electron integrals computed using PRISM.
 NBasis=   154 RedAO= T  NBF=   154
 NBsUse=   154 1.00D-06 NBFU=   154
 Harris functional with IExCor= 1009 diagonalized for initial guess.
 ExpMin= 8.45D-02 ExpMax= 8.59D+03 ExpMxC= 1.30D+03 IAcc=2 IRadAn=         1 AccDes= 0.00D+00
 HarFok:  IExCor= 1009 AccDes= 0.00D+00 IRadAn=         1 IDoV= 1
 ScaDFX=  1.000000  1.000000  1.000000  1.000000
 FoFCou: FMM=F IPFlag=           0 FMFlag=      100000 FMFlg1=           0
         NFxFlg=           0 DoJE=T BraDBF=F KetDBF=T FulRan=T
         Omega=  0.000000  0.000000  1.000000  0.000000  0.000000 ICntrl=     500 IOpCl=  0
         NMat0=    1 NMatS0=    1 NMatT0=    0 NMatD0=    1 NMtDS0=    0 NMtDT0=    0
         I1Cent=           4 NGrid=           0.
 Petite list used in FoFCou.
 Initial guess orbital symmetries:
 Alpha Orbitals:
       Occupied  (A) (A) (A) (A) (A) (A) (A) (A) (A) (A) (A) (A)
                 (A) (A) (A) (A) (A) (A)
       Virtual   (A) (A) (A) (A) (A) (A) (A) (A) (A) (A) (A) (A)
                 (A) (A) (A) (A) (A) (A) (A) (A) (A) (A) (A) (A)
                 (A) (A) (A) (A) (A) (A) (A) (A) (A) (A) (A) (A)
                 (A) (A) (A) (A) (A) (A) (A) (A) (A) (A) (A) (A)
                 (A) (A) (A) (A) (A) (A) (A) (A) (A) (A) (A) (A)
                 (A) (A) (A) (A) (A) (A) (A) (A) (A) (A) (A) (A)
                 (A) (A) (A) (A) (A) (A) (A) (A) (A) (A) (A) (A)
                 (A) (A) (A) (A) (A) (A) (A) (A) (A) (A) (A) (A)
                 (A) (A) (A) (A) (A) (A) (A) (A) (A) (A) (A) (A)
                 (A) (A) (A) (A) (A) (A) (A) (A) (A) (A) (A) (A)
                 (A) (A) (A) (A) (A) (A) (A) (A) (A) (A) (A) (A)
                 (A) (A) (A) (A)
 Beta  Orbitals:
       Occupied  (A) (A) (A) (A) (A) (A) (A) (A) (A) (A) (A) (A)
                 (A) (A) (A) (A)
       Virtual   (A) (A) (A) (A) (A) (A) (A) (A) (A) (A) (A) (A)
                 (A) (A) (A) (A) (A) (A) (A) (A) (A) (A) (A) (A)
                 (A) (A) (A) (A) (A) (A) (A) (A) (A) (A) (A) (A)
                 (A) (A) (A) (A) (A) (A) (A) (A) (A) (A) (A) (A)
                 (A) (A) (A) (A) (A) (A) (A) (A) (A) (A) (A) (A)
                 (A) (A) (A) (A) (A) (A) (A) (A) (A) (A) (A) (A)
                 (A) (A) (A) (A) (A) (A) (A) (A) (A) (A) (A) (A)
                 (A) (A) (A) (A) (A) (A) (A) (A) (A) (A) (A) (A)
                 (A) (A) (A) (A) (A) (A) (A) (A) (A) (A) (A) (A)
                 (A) (A) (A) (A) (A) (A) (A) (A) (A) (A) (A) (A)
                 (A) (A) (A) (A) (A) (A) (A) (A) (A) (A) (A) (A)
                 (A) (A) (A) (A) (A) (A)
 The electronic state of the initial guess is 3-A.
 Initial guess <Sx>= 0.0000 <Sy>= 0.0000 <Sz>= 1.0000 <S**2>= 2.0000 S= 1.0000
 Requested convergence on RMS density matrix=1.00D-08 within 128 cycles.
 Requested convergence on MAX density matrix=1.00D-06.
 Requested convergence on             energy=1.00D-06.
 No special actions if energy rises.
 Keep R1 and R2 ints in memory in canonical form, NReq=234629891.
 SCF Done:  E(UM062X) =  -301.758168310     A.U. after   25 cycles
             Convg  =    0.1492D-08             -V/T =  2.0030
 <Sx>= 0.0000 <Sy>= 0.0000 <Sz>= 1.0000 <S**2>= 2.0144 S= 1.0048
 <L.S>= 0.000000000000E+00
 Annihilation of the first spin contaminant:
 S**2 before annihilation     2.0144,   after     2.0001

 **********************************************************************

            Population analysis using the SCF density.

 **********************************************************************

 Orbital symmetries:
 Alpha Orbitals:
       Occupied  (A) (A) (A) (A) (A) (A) (A) (A) (A) (A) (A) (A)
                 (A) (A) (A) (A) (A) (A)
       Virtual   (A) (A) (A) (A) (A) (A) (A) (A) (A) (A) (A) (A)
                 (A) (A) (A) (A) (A) (A) (A) (A) (A) (A) (A) (A)
                 (A) (A) (A) (A) (A) (A) (A) (A) (A) (A) (A) (A)
                 (A) (A) (A) (A) (A) (A) (A) (A) (A) (A) (A) (A)
                 (A) (A) (A) (A) (A) (A) (A) (A) (A) (A) (A) (A)
                 (A) (A) (A) (A) (A) (A) (A) (A) (A) (A) (A) (A)
                 (A) (A) (A) (A) (A) (A) (A) (A) (A) (A) (A) (A)
                 (A) (A) (A) (A) (A) (A) (A) (A) (A) (A) (A) (A)
                 (A) (A) (A) (A) (A) (A) (A) (A) (A) (A) (A) (A)
                 (A) (A) (A) (A) (A) (A) (A) (A) (A) (A) (A) (A)
                 (A) (A) (A) (A) (A) (A) (A) (A) (A) (A) (A) (A)
                 (A) (A) (A) (A)
 Beta  Orbitals:
       Occupied  (A) (A) (A) (A) (A) (A) (A) (A) (A) (A) (A) (A)
                 (A) (A) (A) (A)
       Virtual   (A) (A) (A) (A) (A) (A) (A) (A) (A) (A) (A) (A)
                 (A) (A) (A) (A) (A) (A) (A) (A) (A) (A) (A) (A)
                 (A) (A) (A) (A) (A) (A) (A) (A) (A) (A) (A) (A)
                 (A) (A) (A) (A) (A) (A) (A) (A) (A) (A) (A) (A)
                 (A) (A) (A) (A) (A) (A) (A) (A) (A) (A) (A) (A)
                 (A) (A) (A) (A) (A) (A) (A) (A) (A) (A) (A) (A)
                 (A) (A) (A) (A) (A) (A) (A) (A) (A) (A) (A) (A)
                 (A) (A) (A) (A) (A) (A) (A) (A) (A) (A) (A) (A)
                 (A) (A) (A) (A) (A) (A) (A) (A) (A) (A) (A) (A)
                 (A) (A) (A) (A) (A) (A) (A) (A) (A) (A) (A) (A)
                 (A) (A) (A) (A) (A) (A) (A) (A) (A) (A) (A) (A)
                 (A) (A) (A) (A) (A) (A)
 The electronic state is 3-A.
 Alpha  occ. eigenvalues --  -19.81813 -19.78015 -19.71307 -19.69142  -1.39967
 Alpha  occ. eigenvalues --   -1.29509  -1.07862  -0.93354  -0.75859  -0.65731
 Alpha  occ. eigenvalues --   -0.64715  -0.57721  -0.56441  -0.54350  -0.47420
 Alpha  occ. eigenvalues --   -0.45153  -0.35899  -0.34655
 Alpha virt. eigenvalues --   -0.00054   0.04398   0.09683   0.10753   0.12991
 Alpha virt. eigenvalues --    0.13840   0.14875   0.16248   0.18096   0.20198
 Alpha virt. eigenvalues --    0.21533   0.22846   0.24280   0.24699   0.26046
 Alpha virt. eigenvalues --    0.29619   0.33026   0.33695   0.36695   0.37915
 Alpha virt. eigenvalues --    0.44236   0.57134   0.65238   0.72316   0.73413
 Alpha virt. eigenvalues --    0.77663   0.87286   0.94605   0.95675   0.96967
 Alpha virt. eigenvalues --    1.03553   1.05431   1.08114   1.08576   1.10634
 Alpha virt. eigenvalues --    1.11687   1.12886   1.18149   1.23273   1.27815
 Alpha virt. eigenvalues --    1.29609   1.34605   1.37905   1.41712   1.45132
 Alpha virt. eigenvalues --    1.50551   1.53943   1.56880   1.62227   1.64196
 Alpha virt. eigenvalues --    1.73992   1.75913   1.82993   2.02532   2.10106
 Alpha virt. eigenvalues --    2.12008   2.16478   2.20370   2.23038   2.28741
 Alpha virt. eigenvalues --    2.39322   2.52134   2.54852   2.65249   2.71015
 Alpha virt. eigenvalues --    2.79881   3.52138   3.63495   3.72303   3.79031
 Alpha virt. eigenvalues --    3.94011   3.99830   4.39822   4.47396   4.54369
 Alpha virt. eigenvalues --    4.55008   4.63497   4.65594   4.69309   4.71679
 Alpha virt. eigenvalues --    4.79506   4.89423   4.93150   4.94132   4.95559
 Alpha virt. eigenvalues --    4.99798   5.00553   5.02165   5.03726   5.04603
 Alpha virt. eigenvalues --    5.07768   5.09615   5.10563   5.12927   5.13952
 Alpha virt. eigenvalues --    5.15907   5.20257   5.27659   5.30426   5.35576
 Alpha virt. eigenvalues --    5.45568   5.48940   5.55058   5.60425   5.96316
 Alpha virt. eigenvalues --    6.23281   6.31579   6.34045   6.59562   6.62576
 Alpha virt. eigenvalues --    6.66841   6.70084   6.74518   6.78326   6.79197
 Alpha virt. eigenvalues --    6.80616   6.80985   6.86172   6.95122   6.95543
 Alpha virt. eigenvalues --    6.99313   7.05781   7.20474   7.26605   7.28130
 Alpha virt. eigenvalues --    7.40607   7.43586   7.54690   7.76690   7.81649
 Alpha virt. eigenvalues --    7.89897   8.00211  49.85332  49.89305  49.93968
 Alpha virt. eigenvalues --   50.00779
  Beta  occ. eigenvalues --  -19.81074 -19.76703 -19.70311 -19.67499  -1.36861
  Beta  occ. eigenvalues --   -1.25414  -1.03528  -0.87677  -0.73852  -0.63242
  Beta  occ. eigenvalues --   -0.56032  -0.54626  -0.51219  -0.45803  -0.43443
  Beta  occ. eigenvalues --   -0.29665
  Beta virt. eigenvalues --   -0.16041  -0.04408   0.00653   0.05522   0.10410
  Beta virt. eigenvalues --    0.11264   0.13822   0.14433   0.15198   0.16884
  Beta virt. eigenvalues --    0.18888   0.21175   0.22150   0.23354   0.24783
  Beta virt. eigenvalues --    0.25441   0.27584   0.30481   0.33084   0.34326
  Beta virt. eigenvalues --    0.37198   0.38012   0.44590   0.57430   0.65551
  Beta virt. eigenvalues --    0.72874   0.73753   0.78554   0.87731   0.94960
  Beta virt. eigenvalues --    0.96971   0.98955   1.04601   1.08857   1.09688
  Beta virt. eigenvalues --    1.11011   1.11405   1.14104   1.14440   1.19017
  Beta virt. eigenvalues --    1.23952   1.29448   1.31077   1.37066   1.39532
  Beta virt. eigenvalues --    1.43186   1.47024   1.51681   1.55410   1.59224
  Beta virt. eigenvalues --    1.64088   1.65748   1.75477   1.77618   1.84228
  Beta virt. eigenvalues --    2.03082   2.10756   2.13318   2.17596   2.21188
  Beta virt. eigenvalues --    2.24851   2.29386   2.39485   2.52759   2.54777
  Beta virt. eigenvalues --    2.65383   2.71193   2.79084   3.52453   3.63478
  Beta virt. eigenvalues --    3.72438   3.78915   3.93957   3.99581   4.42553
  Beta virt. eigenvalues --    4.50690   4.54988   4.56067   4.64470   4.66956
  Beta virt. eigenvalues --    4.69829   4.71937   4.80165   4.90747   4.95609
  Beta virt. eigenvalues --    4.96107   4.98432   5.03353   5.03832   5.05326
  Beta virt. eigenvalues --    5.06613   5.07686   5.10229   5.12322   5.12508
  Beta virt. eigenvalues --    5.14660   5.15227   5.17468   5.21401   5.28717
  Beta virt. eigenvalues --    5.31278   5.36926   5.46552   5.50449   5.55801
  Beta virt. eigenvalues --    5.61355   5.96659   6.25463   6.34422   6.34813
  Beta virt. eigenvalues --    6.64248   6.66538   6.75568   6.77645   6.81274
  Beta virt. eigenvalues --    6.82408   6.83399   6.84420   6.86229   6.90736
  Beta virt. eigenvalues --    6.98038   6.99512   7.00647   7.08066   7.24971
  Beta virt. eigenvalues --    7.30393   7.31520   7.40916   7.44736   7.56116
  Beta virt. eigenvalues --    7.77254   7.81868   7.91173   8.02475  49.84805
  Beta virt. eigenvalues --   49.88682  49.93348  49.99980
          Condensed to atoms (all electrons):
              1          2          3          4          5          6
     1  O    7.913074   0.141823   0.208151   0.013362  -0.015328   0.004161
     2  O    0.141823   8.085758  -0.068930  -0.008060   0.053699   0.000381
     3  H    0.208151  -0.068930   0.311055  -0.001406   0.062974  -0.003590
     4  O    0.013362  -0.008060  -0.001406   7.700988   0.148832   0.254815
     5  O   -0.015328   0.053699   0.062974   0.148832   8.005186  -0.044147
     6  H    0.004161   0.000381  -0.003590   0.254815  -0.044147   0.490462
 Mulliken atomic charges:
              1
     1  O   -0.265244
     2  O   -0.204670
     3  H    0.491746
     4  O   -0.108531
     5  O   -0.211217
     6  H    0.297917
 Sum of Mulliken atomic charges =   0.00000
 Mulliken charges with hydrogens summed into heavy atoms:
              1
     1  O   -0.265244
     2  O   -0.204670
     4  O    0.189385
     5  O    0.280529
 Sum of Mulliken charges with hydrogens summed into heavy atoms =   0.00000
          Atomic-Atomic Spin Densities.
              1          2          3          4          5          6
     1  O    0.572734  -0.177293   0.000761  -0.002300   0.004623   0.000804
     2  O   -0.177293   0.934331  -0.005306   0.003919  -0.008342  -0.000959
     3  H    0.000761  -0.005306  -0.024059  -0.000641  -0.003594   0.000727
     4  O   -0.002300   0.003919  -0.000641   0.376855  -0.113337   0.002131
     5  O    0.004623  -0.008342  -0.003594  -0.113337   0.751495  -0.002086
     6  H    0.000804  -0.000959   0.000727   0.002131  -0.002086  -0.009568
 Mulliken atomic spin densities:
              1
     1  O    0.399329
     2  O    0.746349
     3  H   -0.032113
     4  O    0.266627
     5  O    0.628759
     6  H   -0.008951
 Sum of Mulliken atomic spin densities =   2.00000
 Electronic spatial extent (au):  <R**2>=            405.8018
 Charge=              0.0000 electrons
 Dipole moment (field-independent basis, Debye):
    X=             -4.0561    Y=              0.8518    Z=              1.4576  Tot=              4.3934
 Quadrupole moment (field-independent basis, Debye-Ang):
   XX=            -26.2035   YY=            -22.8125   ZZ=            -20.7023
   XY=             -2.6222   XZ=             -4.0477   YZ=              1.7824
 Traceless Quadrupole moment (field-independent basis, Debye-Ang):
   XX=             -2.9641   YY=              0.4269   ZZ=              2.5371
   XY=             -2.6222   XZ=             -4.0477   YZ=              1.7824
 Octapole moment (field-independent basis, Debye-Ang**2):
  XXX=            -16.2725  YYY=              0.9545  ZZZ=              2.8836  XYY=             -3.9405
  XXY=              2.7057  XXZ=              5.5559  XZZ=             -5.0809  YZZ=              1.8392
  YYZ=              1.2654  XYZ=             -1.5067
 Hexadecapole moment (field-independent basis, Debye-Ang**3):
 XXXX=           -399.8612 YYYY=            -40.5744 ZZZZ=            -26.4762 XXXY=            -12.3054
 XXXZ=            -13.8681 YYYX=             -1.4113 YYYZ=              1.4601 ZZZX=             -6.0236
 ZZZY=              2.4076 XXYY=            -69.3449 XXZZ=            -60.5126 YYZZ=            -10.9186
 XXYZ=              5.5889 YYXZ=             -2.5568 ZZXY=             -3.3789
 N-N= 1.147285607516D+02 E-N=-1.398224299033D+03  KE= 4.478424662465D+02
                          Isotropic Fermi Contact Couplings
        Atom                 a.u.       MegaHertz       Gauss      10(-4) cm-1
     1  O(17)              0.07904     -23.95834      -8.54893      -7.99164
     2  O(17)              0.11857     -35.93721     -12.82329     -11.98736
     3  H(1)              -0.01079     -24.11991      -8.60658      -8.04554
     4  O(17)              0.06013     -18.22594      -6.50347      -6.07952
     5  O(17)              0.09195     -27.86951      -9.94453      -9.29627
     6  H(1)              -0.00449     -10.02443      -3.57696      -3.34379
 --------------------------------------------------------
       Center         ----  Spin Dipole Couplings  ----
                      3XX-RR        3YY-RR        3ZZ-RR
 --------------------------------------------------------
     1   Atom       -0.376777     -0.353521      0.730298
     2   Atom       -0.703983     -0.596882      1.300865
     3   Atom        0.138302     -0.077277     -0.061025
     4   Atom       -0.810671      0.913696     -0.103025
     5   Atom       -1.352100      0.954889      0.397212
     6   Atom       -0.031287     -0.001926      0.033214
 --------------------------------------------------------
                        XY            XZ            YZ
 --------------------------------------------------------
     1   Atom       -0.631235     -0.559285      1.046183
     2   Atom       -0.866537     -0.890311      1.721990
     3   Atom       -0.003408      0.042008     -0.011276
     4   Atom       -0.156294      0.133581     -0.992283
     5   Atom       -0.225826      0.224184     -2.080647
     6   Atom        0.004887      0.009454      0.041625
 --------------------------------------------------------


 ---------------------------------------------------------------------------------
              Anisotropic Spin Dipole Couplings in Principal Axis System
 ---------------------------------------------------------------------------------

       Atom             a.u.   MegaHertz   Gauss  10(-4) cm-1        Axes

              Baa    -1.1185    80.937    28.880    26.998  0.4547  0.8271 -0.3305
     1 O(17)  Bbb    -0.5666    40.997    14.629    13.675  0.8114 -0.2316  0.5367
              Bcc     1.6851  -121.934   -43.509   -40.673 -0.3674  0.5122  0.7764
 
              Baa    -1.7410   125.976    44.951    42.021  0.3943  0.8444 -0.3626
     2 O(17)  Bbb    -1.0024    72.531    25.881    24.194  0.8569 -0.1952  0.4772
              Bcc     2.7433  -198.507   -70.832   -66.215 -0.3321  0.4989  0.8005
 
              Baa    -0.0846   -45.121   -16.100   -15.051 -0.0930  0.8231  0.5602
     3 H(1)   Bbb    -0.0624   -33.275   -11.873   -11.099 -0.1779 -0.5673  0.8040
              Bcc     0.1469    78.396    27.974    26.150  0.9796 -0.0249  0.1992
 
              Baa    -0.8365    60.526    21.597    20.189  0.9654 -0.0579 -0.2541
     4 O(17)  Bbb    -0.7013    50.749    18.109    16.928  0.2460  0.5246  0.8151
              Bcc     1.5378  -111.275   -39.706   -37.117 -0.0861  0.8494 -0.5207
 
              Baa    -1.4306   103.514    36.936    34.529 -0.3448  0.5982  0.7233
     5 O(17)  Bbb    -1.3690    99.062    35.348    33.044  0.9356  0.2817  0.2131
              Bcc     2.7996  -202.576   -72.284   -67.572 -0.0763  0.7502 -0.6568
 
              Baa    -0.0329   -17.543    -6.260    -5.852  0.9399  0.2117 -0.2678
     6 H(1)   Bbb    -0.0291   -15.550    -5.549    -5.187 -0.3222  0.8092 -0.4913
              Bcc     0.0620    33.093    11.808    11.039  0.1127  0.5481  0.8288
 

 ---------------------------------------------------------------------------------

 Calling FoFJK, ICntrl=      2127 FMM=F ISym2X=0 I1Cent= 0 IOpClX= 1 NMat=1 NMatS=1 NMatT=0.
 ***** Axes restored to original set *****
 -------------------------------------------------------------------
 Center     Atomic                   Forces (Hartrees/Bohr)
 Number     Number              X              Y              Z
 -------------------------------------------------------------------
      1        8          -0.015248630   -0.015097548   -0.050438743
      2        8          -0.013747620   -0.006125580    0.024546765
      3        1           0.059065104    0.045471621    0.047487355
      4        8           0.024629534    0.023977739    0.019002901
      5        8          -0.050027994   -0.030485587   -0.030634912
      6        1          -0.004670394   -0.017740645   -0.009963366
 -------------------------------------------------------------------
 Cartesian Forces:  Max     0.059065104 RMS     0.031617618

 GradGradGradGradGradGradGradGradGradGradGradGradGradGradGradGradGradGrad
 Berny optimization.
 Internal  Forces:  Max     0.044068511 RMS     0.022204483
 Search for a local minimum.
 Step number   1 out of a maximum of   23
 All quantities printed in internal units (Hartrees-Bohrs-Radians)
 Mixed Optimization -- RFO/linear search
 Second derivative matrix not updated -- first step.
 The second derivative matrix:
                          R1        R2        R3        R4        R5
           R1           0.61412
           R2           0.00000   0.24214
           R3           0.00000   0.00000   0.04515
           R4           0.00000   0.00000   0.00000   0.24349
           R5           0.00000   0.00000   0.00000   0.00000   0.60440
           R6           0.00000   0.00000   0.00000   0.00000   0.00000
           A1           0.00000   0.00000   0.00000   0.00000   0.00000
           A2           0.00000   0.00000   0.00000   0.00000   0.00000
           A3           0.00000   0.00000   0.00000   0.00000   0.00000
           A4           0.00000   0.00000   0.00000   0.00000   0.00000
           D1           0.00000   0.00000   0.00000   0.00000   0.00000
           D2           0.00000   0.00000   0.00000   0.00000   0.00000
           D3           0.00000   0.00000   0.00000   0.00000   0.00000
                          R6        A1        A2        A3        A4
           R6           0.48141
           A1           0.00000   0.16000
           A2           0.00000   0.00000   0.25000
           A3           0.00000   0.00000   0.00000   0.16000
           A4           0.00000   0.00000   0.00000   0.00000   0.16000
           D1           0.00000   0.00000   0.00000   0.00000   0.00000
           D2           0.00000   0.00000   0.00000   0.00000   0.00000
           D3           0.00000   0.00000   0.00000   0.00000   0.00000
                          D1        D2        D3
           D1           0.00230
           D2           0.00000   0.00230
           D3           0.00000   0.00000   0.02273
 ITU=  0
     Eigenvalues ---    0.00230   0.00230   0.02273   0.16000   0.16000
     Eigenvalues ---    0.16000   0.48141   0.60440   0.614121000.00000
     Eigenvalues --- 1000.000001000.000001000.00000
 RFO step:  Lambda=-1.56895989D-02 EMin= 2.30000000D-03
 Linear search not attempted -- first point.
 Iteration  1 RMS(Cart)=  0.24322919 RMS(Int)=  0.06670760
 Iteration  2 RMS(Cart)=  0.10504301 RMS(Int)=  0.01220363
 Iteration  3 RMS(Cart)=  0.01216885 RMS(Int)=  0.00008454
 Iteration  4 RMS(Cart)=  0.00012787 RMS(Int)=  0.00000001
 Iteration  5 RMS(Cart)=  0.00000001 RMS(Int)=  0.00000000
 Iteration  1 RMS(Cart)=  0.00000000 RMS(Int)=  0.00000000
 Variable       Old X    -DE/DX   Delta X   Delta X   Delta X     New X
                                 (Linear)    (Quad)   (Total)
    R1        2.49840  -0.02860   0.00000  -0.04541  -0.04541   2.45299
    R2        2.27951  -0.04407   0.00000   0.00000   0.00000   2.27951
    R3        4.45881   0.00114   0.00000   0.00000   0.00000   4.45881
    R4        2.27592   0.03467   0.00000   0.00000   0.00000   2.27592
    R5        2.50594  -0.01607   0.00000  -0.02592  -0.02592   2.48002
    R6        1.88489  -0.01939   0.00000  -0.03900  -0.03900   1.84589
    A1        1.73528   0.00369   0.00000   0.02099   0.02099   1.75627
    A2        2.72895   0.02216   0.00000   0.00000   0.00000   2.72895
    A3        1.82994   0.00482   0.00000   0.02744   0.02744   1.85738
    A4        2.56925  -0.03262   0.00000  -0.18566  -0.18566   2.38359
    D1       -2.36571   0.00431   0.00000   0.23978   0.23978  -2.12593
    D2        0.80283   0.00478   0.00000   0.26544   0.26544   1.06827
    D3        0.02472   0.01337   0.00000   0.34793   0.34793   0.37265
         Item               Value     Threshold  Converged?
 Maximum Force            0.032619     0.002500     NO 
 RMS     Force            0.016653     0.001667     NO 
 Maximum Displacement     0.511812     0.010000     NO 
 RMS     Displacement     0.317911     0.006667     NO 
 Predicted change in Energy=-1.011138D-02
 GradGradGradGradGradGradGradGradGradGradGradGradGradGradGradGradGradGrad

                          Input orientation:                          
 ---------------------------------------------------------------------
 Center     Atomic      Atomic             Coordinates (Angstroms)
 Number     Number       Type             X           Y           Z
 ---------------------------------------------------------------------
      1          8           0        1.545038   -0.184768    0.515905
      2          8           0        1.930511    0.643539   -0.406206
      3          1           0        0.498387   -0.563696    0.051138
      4          8           0       -1.775542   -0.018062    0.050028
      5          8           0       -0.690244   -0.755344    0.020714
      6          1           0       -1.508150    0.878230   -0.231579
 ---------------------------------------------------------------------
                    Distance matrix (angstroms):
                    1          2          3          4          5
     1  O    0.000000
     2  O    1.298064   0.000000
     3  H    1.206263   1.928097   0.000000
     4  O    3.357243   3.792188   2.338476   0.000000
     5  O    2.359503   3.001248   1.204367   1.312370   0.000000
     6  H    3.318230   3.451081   2.487020   0.976801   1.844230
                    6
     6  H    0.000000
 Stoichiometry    H2O4(3)
 Framework group  C1[X(H2O4)]
 Deg. of freedom    12
 Full point group                 C1      NOp   1
 Largest Abelian subgroup         C1      NOp   1
 Largest concise Abelian subgroup C1      NOp   1
                         Standard orientation:                         
 ---------------------------------------------------------------------
 Center     Atomic      Atomic             Coordinates (Angstroms)
 Number     Number       Type             X           Y           Z
 ---------------------------------------------------------------------
      1          8           0        1.296687   -0.518581    0.285023
      2          8           0        1.816106    0.584743   -0.159779
      3          1           0        0.211283   -0.480939   -0.239909
      4          8           0       -1.953414    0.312197    0.151870
      5          8           0       -0.992122   -0.466659   -0.285866
      6          1           0       -1.549337    1.187343    0.309928
 ---------------------------------------------------------------------
 Rotational constants (GHZ):     25.3074730      3.1117355      2.8822229
 Standard basis: 6-311+G(2df,2p) (5D, 7F)
 There are   154 symmetry adapted basis functions of A   symmetry.
 Integral buffers will be    131072 words long.
 Raffenetti 2 integral format.
 Two-electron integral symmetry is turned on.
   154 basis functions,   230 primitive gaussians,   174 cartesian basis functions
    18 alpha electrons       16 beta electrons
       nuclear repulsion energy       116.9288760971 Hartrees.
 NAtoms=    6 NActive=    6 NUniq=    6 SFac= 1.00D+00 NAtFMM=   50 NAOKFM=F Big=F
 One-electron integrals computed using PRISM.
 NBasis=   154 RedAO= T  NBF=   154
 NBsUse=   154 1.00D-06 NBFU=   154
 Initial guess read from the read-write file.
 B after Tr=     0.000000    0.000000    0.000000
         Rot=    1.000000    0.000000    0.000000    0.000000 Ang=   0.00 deg.
 Initial guess orbital symmetries:
 Alpha Orbitals:
       Occupied  (A) (A) (A) (A) (A) (A) (A) (A) (A) (A) (A) (A)
                 (A) (A) (A) (A) (A) (A)
       Virtual   (A) (A) (A) (A) (A) (A) (A) (A) (A) (A) (A) (A)
                 (A) (A) (A) (A) (A) (A) (A) (A) (A) (A) (A) (A)
                 (A) (A) (A) (A) (A) (A) (A) (A) (A) (A) (A) (A)
                 (A) (A) (A) (A) (A) (A) (A) (A) (A) (A) (A) (A)
                 (A) (A) (A) (A) (A) (A) (A) (A) (A) (A) (A) (A)
                 (A) (A) (A) (A) (A) (A) (A) (A) (A) (A) (A) (A)
                 (A) (A) (A) (A) (A) (A) (A) (A) (A) (A) (A) (A)
                 (A) (A) (A) (A) (A) (A) (A) (A) (A) (A) (A) (A)
                 (A) (A) (A) (A) (A) (A) (A) (A) (A) (A) (A) (A)
                 (A) (A) (A) (A) (A) (A) (A) (A) (A) (A) (A) (A)
                 (A) (A) (A) (A) (A) (A) (A) (A) (A) (A) (A) (A)
                 (A) (A) (A) (A)
 Beta  Orbitals:
       Occupied  (A) (A) (A) (A) (A) (A) (A) (A) (A) (A) (A) (A)
                 (A) (A) (A) (A)
       Virtual   (A) (A) (A) (A) (A) (A) (A) (A) (A) (A) (A) (A)
                 (A) (A) (A) (A) (A) (A) (A) (A) (A) (A) (A) (A)
                 (A) (A) (A) (A) (A) (A) (A) (A) (A) (A) (A) (A)
                 (A) (A) (A) (A) (A) (A) (A) (A) (A) (A) (A) (A)
                 (A) (A) (A) (A) (A) (A) (A) (A) (A) (A) (A) (A)
                 (A) (A) (A) (A) (A) (A) (A) (A) (A) (A) (A) (A)
                 (A) (A) (A) (A) (A) (A) (A) (A) (A) (A) (A) (A)
                 (A) (A) (A) (A) (A) (A) (A) (A) (A) (A) (A) (A)
                 (A) (A) (A) (A) (A) (A) (A) (A) (A) (A) (A) (A)
                 (A) (A) (A) (A) (A) (A) (A) (A) (A) (A) (A) (A)
                 (A) (A) (A) (A) (A) (A) (A) (A) (A) (A) (A) (A)
                 (A) (A) (A) (A) (A) (A)
 Initial guess <Sx>= 0.0000 <Sy>= 0.0000 <Sz>= 1.0000 <S**2>= 2.0147 S= 1.0049
 Harris functional with IExCor= 1009 diagonalized for initial guess.
 ExpMin= 8.45D-02 ExpMax= 8.59D+03 ExpMxC= 1.30D+03 IAcc=2 IRadAn=         1 AccDes= 0.00D+00
 HarFok:  IExCor= 1009 AccDes= 0.00D+00 IRadAn=         1 IDoV= 1
 ScaDFX=  1.000000  1.000000  1.000000  1.000000
 FoFCou: FMM=F IPFlag=           0 FMFlag=      100000 FMFlg1=           0
         NFxFlg=           0 DoJE=T BraDBF=F KetDBF=T FulRan=T
         Omega=  0.000000  0.000000  1.000000  0.000000  0.000000 ICntrl=     500 IOpCl=  0
         NMat0=    1 NMatS0=    1 NMatT0=    0 NMatD0=    1 NMtDS0=    0 NMtDT0=    0
         I1Cent=           4 NGrid=           0.
 Petite list used in FoFCou.
 Requested convergence on RMS density matrix=1.00D-08 within 128 cycles.
 Requested convergence on MAX density matrix=1.00D-06.
 Requested convergence on             energy=1.00D-06.
 No special actions if energy rises.
 Keep R1 and R2 ints in memory in canonical form, NReq=234629891.
 SCF Done:  E(UM062X) =  -301.773541896     A.U. after   22 cycles
             Convg  =    0.6178D-08             -V/T =  2.0027
 <Sx>= 0.0000 <Sy>= 0.0000 <Sz>= 1.0000 <S**2>= 2.0183 S= 1.0061
 <L.S>= 0.000000000000E+00
 Annihilation of the first spin contaminant:
 S**2 before annihilation     2.0183,   after     2.0002
 Calling FoFJK, ICntrl=      2127 FMM=F ISym2X=0 I1Cent= 0 IOpClX= 1 NMat=1 NMatS=1 NMatT=0.
 ***** Axes restored to original set *****
 -------------------------------------------------------------------
 Center     Atomic                   Forces (Hartrees/Bohr)
 Number     Number              X              Y              Z
 -------------------------------------------------------------------
      1        8          -0.008580770    0.009036064   -0.037270990
      2        8          -0.008907655   -0.017528733    0.020960552
      3        1           0.022304714    0.029343160    0.031214862
      4        8           0.005063763    0.025639163    0.010801635
      5        8          -0.006530360   -0.042089318   -0.020726207
      6        1          -0.003349693   -0.004400337   -0.004979852
 -------------------------------------------------------------------
 Cartesian Forces:  Max     0.042089318 RMS     0.020819384

 GradGradGradGradGradGradGradGradGradGradGradGradGradGradGradGradGradGrad
 Berny optimization.
 Using GEDIIS/GDIIS optimizer.
 Internal  Forces:  Max     0.043274373 RMS     0.017225328
 Search for a local minimum.
 Step number   2 out of a maximum of   23
 All quantities printed in internal units (Hartrees-Bohrs-Radians)
 Mixed Optimization -- RFO/linear search
 Update second derivatives using D2CorX and points    1    2
 DE= -1.54D-02 DEPred=-1.01D-02 R= 1.52D+00
 SS=  1.41D+00  RLast= 5.38D-01 DXNew= 5.0454D-01 1.6126D+00
 Trust test= 1.52D+00 RLast= 5.38D-01 DXMaxT set to 5.05D-01
 The second derivative matrix:
                          R1        R2        R3        R4        R5
           R1           0.54443
           R2          -0.00270   0.58399
           R3           0.00043  -0.05481   0.05394
           R4           0.00286  -0.36276   0.05816   0.62844
           R5          -0.04237   0.40723  -0.06529  -0.43214   1.06751
           R6          -0.04884   0.24110  -0.03866  -0.25584   0.26084
           A1           0.00875  -0.04519   0.00725   0.04795  -0.04912
           A2           0.00058  -0.07365   0.01181   0.07815  -0.08773
           A3           0.01127  -0.03716   0.00596   0.03944  -0.03811
           A4          -0.07298  -0.16237   0.02603   0.17231  -0.23514
           D1           0.00152  -0.01833   0.00294   0.01945  -0.02106
           D2           0.00193  -0.05108   0.00819   0.05420  -0.05999
           D3           0.02006  -0.03686   0.00591   0.03911  -0.03280
                          R6        A1        A2        A3        A4
           R6           0.61985
           A1          -0.02622   0.16496
           A2          -0.05194   0.00974   0.26587
           A3          -0.01882   0.00359   0.00801   0.16231
           A4          -0.16451   0.03041   0.03498   0.02934   0.15803
           D1          -0.01200   0.00226   0.00395   0.00178   0.01017
           D2          -0.03500   0.00657   0.01100   0.00531   0.02589
           D3          -0.01269   0.00249   0.00794   0.00090   0.03856
                          D1        D2        D3
           D1           0.00326
           D2           0.00271   0.00990
           D3           0.00159   0.00507   0.02110
 ITU=  1  0
 Use linear search instead of GDIIS.
     Eigenvalues ---    0.00109   0.00272   0.00539   0.07541   0.16000
     Eigenvalues ---    0.16796   0.50157   0.56295   1.274271000.00000
     Eigenvalues --- 1000.000001000.000001000.00000
 RFO step:  Lambda=-2.57487844D-02 EMin= 1.08697355D-03
 Quartic linear search produced a step of  1.00839.
 Maximum step size (   0.505) exceeded in Quadratic search.
    -- Step size scaled by   0.945
 Iteration  1 RMS(Cart)=  0.15098343 RMS(Int)=  0.16835033
 Iteration  2 RMS(Cart)=  0.13571374 RMS(Int)=  0.09145664
 Iteration  3 RMS(Cart)=  0.13416900 RMS(Int)=  0.01998053
 Iteration  4 RMS(Cart)=  0.03815321 RMS(Int)=  0.00071176
 Iteration  5 RMS(Cart)=  0.00060350 RMS(Int)=  0.00000042
 Iteration  6 RMS(Cart)=  0.00000024 RMS(Int)=  0.00000034
 Iteration  1 RMS(Cart)=  0.00000010 RMS(Int)=  0.00000031
 Variable       Old X    -DE/DX   Delta X   Delta X   Delta X     New X
                                 (Linear)    (Quad)   (Total)
    R1        2.45299  -0.02878  -0.04579  -0.12668  -0.17247   2.28051
    R2        2.27951  -0.02164   0.00000   0.00000   0.00000   2.27951
    R3        4.45881  -0.00246   0.00000   0.00000   0.00000   4.45881
    R4        2.27592   0.01086   0.00000   0.00000   0.00000   2.27592
    R5        2.48002   0.01065  -0.02614  -0.05447  -0.08060   2.39942
    R6        1.84589  -0.00357  -0.03933  -0.09404  -0.13337   1.71252
    A1        1.75627   0.00072   0.02117   0.04360   0.06477   1.82104
    A2        2.72895   0.01733   0.00000   0.00000   0.00000   2.72894
    A3        1.85738   0.00238   0.02767   0.06022   0.08789   1.94526
    A4        2.38359  -0.04327  -0.18722  -0.46854  -0.65576   1.72783
    D1       -2.12593   0.00311   0.24179  -0.18911   0.05268  -2.07324
    D2        1.06827   0.00142   0.26766  -0.23941   0.02826   1.09652
    D3        0.37265   0.01095   0.35085   0.26755   0.61841   0.99106
         Item               Value     Threshold  Converged?
 Maximum Force            0.043274     0.002500     NO 
 RMS     Force            0.017218     0.001667     NO 
 Maximum Displacement     0.800416     0.010000     NO 
 RMS     Displacement     0.446699     0.006667     NO 
 Predicted change in Energy=-3.552637D-02
 GradGradGradGradGradGradGradGradGradGradGradGradGradGradGradGradGradGrad

                          Input orientation:                          
 ---------------------------------------------------------------------
 Center     Atomic      Atomic             Coordinates (Angstroms)
 Number     Number       Type             X           Y           Z
 ---------------------------------------------------------------------
      1          8           0        1.370113   -0.154446    0.419659
      2          8           0        1.581184    0.805769   -0.280192
      3          1           0        0.341828   -0.616593   -0.009437
      4          8           0       -1.351980    0.163609    0.242133
      5          8           0       -0.810708   -0.964352    0.025544
      6          1           0       -1.130436    0.765913   -0.397707
 ---------------------------------------------------------------------
                    Distance matrix (angstroms):
                    1          2          3          4          5
     1  O    0.000000
     2  O    1.206795   0.000000
     3  H    1.206264   1.905892   0.000000
     4  O    2.746354   3.047727   1.881751   0.000000
     5  O    2.359503   2.991313   1.204367   1.269716   0.000000
     6  H    2.787093   2.714458   2.056608   0.906226   1.809746
                    6
     6  H    0.000000
 Stoichiometry    H2O4(3)
 Framework group  C1[X(H2O4)]
 Deg. of freedom    12
 Full point group                 C1      NOp   1
 Largest Abelian subgroup         C1      NOp   1
 Largest concise Abelian subgroup C1      NOp   1
                         Standard orientation:                         
 ---------------------------------------------------------------------
 Center     Atomic      Atomic             Coordinates (Angstroms)
 Number     Number       Type             X           Y           Z
 ---------------------------------------------------------------------
      1          8           0        1.118184   -0.506540    0.282542
      2          8           0        1.602264    0.487575   -0.200942
      3          1           0        0.023241   -0.579574   -0.218295
      4          8           0       -1.415556    0.551166    0.220201
      5          8           0       -1.180585   -0.608885   -0.239420
      6          1           0       -1.017703    1.193043   -0.280751
 ---------------------------------------------------------------------
 Rotational constants (GHZ):     20.8960634      4.2049267      3.6915420
 Standard basis: 6-311+G(2df,2p) (5D, 7F)
 There are   154 symmetry adapted basis functions of A   symmetry.
 Integral buffers will be    131072 words long.
 Raffenetti 2 integral format.
 Two-electron integral symmetry is turned on.
   154 basis functions,   230 primitive gaussians,   174 cartesian basis functions
    18 alpha electrons       16 beta electrons
       nuclear repulsion energy       125.6986472467 Hartrees.
 NAtoms=    6 NActive=    6 NUniq=    6 SFac= 1.00D+00 NAtFMM=   50 NAOKFM=F Big=F
 One-electron integrals computed using PRISM.
 NBasis=   154 RedAO= T  NBF=   154
 NBsUse=   154 1.00D-06 NBFU=   154
 Initial guess read from the read-write file.
 B after Tr=     0.000000    0.000000    0.000000
         Rot=    1.000000    0.000000    0.000000    0.000000 Ang=   0.00 deg.
 Initial guess orbital symmetries:
 Alpha Orbitals:
       Occupied  (A) (A) (A) (A) (A) (A) (A) (A) (A) (A) (A) (A)
                 (A) (A) (A) (A) (A) (A)
       Virtual   (A) (A) (A) (A) (A) (A) (A) (A) (A) (A) (A) (A)
                 (A) (A) (A) (A) (A) (A) (A) (A) (A) (A) (A) (A)
                 (A) (A) (A) (A) (A) (A) (A) (A) (A) (A) (A) (A)
                 (A) (A) (A) (A) (A) (A) (A) (A) (A) (A) (A) (A)
                 (A) (A) (A) (A) (A) (A) (A) (A) (A) (A) (A) (A)
                 (A) (A) (A) (A) (A) (A) (A) (A) (A) (A) (A) (A)
                 (A) (A) (A) (A) (A) (A) (A) (A) (A) (A) (A) (A)
                 (A) (A) (A) (A) (A) (A) (A) (A) (A) (A) (A) (A)
                 (A) (A) (A) (A) (A) (A) (A) (A) (A) (A) (A) (A)
                 (A) (A) (A) (A) (A) (A) (A) (A) (A) (A) (A) (A)
                 (A) (A) (A) (A) (A) (A) (A) (A) (A) (A) (A) (A)
                 (A) (A) (A) (A)
 Beta  Orbitals:
       Occupied  (A) (A) (A) (A) (A) (A) (A) (A) (A) (A) (A) (A)
                 (A) (A) (A) (A)
       Virtual   (A) (A) (A) (A) (A) (A) (A) (A) (A) (A) (A) (A)
                 (A) (A) (A) (A) (A) (A) (A) (A) (A) (A) (A) (A)
                 (A) (A) (A) (A) (A) (A) (A) (A) (A) (A) (A) (A)
                 (A) (A) (A) (A) (A) (A) (A) (A) (A) (A) (A) (A)
                 (A) (A) (A) (A) (A) (A) (A) (A) (A) (A) (A) (A)
                 (A) (A) (A) (A) (A) (A) (A) (A) (A) (A) (A) (A)
                 (A) (A) (A) (A) (A) (A) (A) (A) (A) (A) (A) (A)
                 (A) (A) (A) (A) (A) (A) (A) (A) (A) (A) (A) (A)
                 (A) (A) (A) (A) (A) (A) (A) (A) (A) (A) (A) (A)
                 (A) (A) (A) (A) (A) (A) (A) (A) (A) (A) (A) (A)
                 (A) (A) (A) (A) (A) (A) (A) (A) (A) (A) (A) (A)
                 (A) (A) (A) (A) (A) (A)
 Initial guess <Sx>= 0.0000 <Sy>= 0.0000 <Sz>= 1.0000 <S**2>= 2.0179 S= 1.0060
 Harris functional with IExCor= 1009 diagonalized for initial guess.
 ExpMin= 8.45D-02 ExpMax= 8.59D+03 ExpMxC= 1.30D+03 IAcc=2 IRadAn=         1 AccDes= 0.00D+00
 HarFok:  IExCor= 1009 AccDes= 0.00D+00 IRadAn=         1 IDoV= 1
 ScaDFX=  1.000000  1.000000  1.000000  1.000000
 FoFCou: FMM=F IPFlag=           0 FMFlag=      100000 FMFlg1=           0
         NFxFlg=           0 DoJE=T BraDBF=F KetDBF=T FulRan=T
         Omega=  0.000000  0.000000  1.000000  0.000000  0.000000 ICntrl=     500 IOpCl=  0
         NMat0=    1 NMatS0=    1 NMatT0=    0 NMatD0=    1 NMtDS0=    0 NMtDT0=    0
         I1Cent=           4 NGrid=           0.
 Petite list used in FoFCou.
 Requested convergence on RMS density matrix=1.00D-08 within 128 cycles.
 Requested convergence on MAX density matrix=1.00D-06.
 Requested convergence on             energy=1.00D-06.
 No special actions if energy rises.
 Keep R1 and R2 ints in memory in canonical form, NReq=234629633.
 SCF Done:  E(UM062X) =  -301.785940469     A.U. after   20 cycles
             Convg  =    0.6144D-08             -V/T =  2.0010
 <Sx>= 0.0000 <Sy>= 0.0000 <Sz>= 1.0000 <S**2>= 2.0203 S= 1.0067
 <L.S>= 0.000000000000E+00
 Annihilation of the first spin contaminant:
 S**2 before annihilation     2.0203,   after     2.0002
 Calling FoFJK, ICntrl=      2127 FMM=F ISym2X=0 I1Cent= 0 IOpClX= 1 NMat=1 NMatS=1 NMatT=0.
 ***** Axes restored to original set *****
 -------------------------------------------------------------------
 Center     Atomic                   Forces (Hartrees/Bohr)
 Number     Number              X              Y              Z
 -------------------------------------------------------------------
      1        8           0.011260100   -0.016708388    0.013133047
      2        8           0.007109650    0.029959346   -0.015690224
      3        1          -0.043527108   -0.039571410    0.014531714
      4        8          -0.074556067    0.050583050    0.084144290
      5        8           0.084956517   -0.067166807   -0.035965788
      6        1           0.014756908    0.042904210   -0.060153038
 -------------------------------------------------------------------
 Cartesian Forces:  Max     0.084956517 RMS     0.046750741

 GradGradGradGradGradGradGradGradGradGradGradGradGradGradGradGradGradGrad
 Berny optimization.
 Using GEDIIS/GDIIS optimizer.
 Internal  Forces:  Max     0.112701855 RMS     0.041528608
 Search for a local minimum.
 Step number   3 out of a maximum of   23
 All quantities printed in internal units (Hartrees-Bohrs-Radians)
 Mixed Optimization -- RFO/linear search
 Update second derivatives using D2CorX and points    2    3
 DE= -1.24D-02 DEPred=-3.55D-02 R= 3.49D-01
 Trust test= 3.49D-01 RLast= 9.39D-01 DXMaxT set to 5.05D-01
 The second derivative matrix:
                          R1        R2        R3        R4        R5
           R1           0.54403
           R2           0.05768   0.59630
           R3          -0.00305  -0.05253   0.05364
           R4          -0.05737  -0.37319   0.05578   0.63700
           R5           0.06740   0.45211  -0.06244  -0.47354   1.19009
           R6           0.01481   0.28534  -0.03805  -0.29802   0.36508
           A1           0.01211  -0.03973   0.00710   0.04261  -0.03792
           A2          -0.00721  -0.07272   0.01137   0.07699  -0.08894
           A3          -0.00009  -0.04411   0.00580   0.04602  -0.05499
           A4          -0.06057  -0.09743   0.02292   0.10792  -0.11229
           D1           0.00026  -0.01339   0.00259   0.01449  -0.01255
           D2          -0.00503  -0.04661   0.00759   0.04954  -0.05445
           D3          -0.00334  -0.02290   0.00395   0.02447  -0.01610
                          R6        A1        A2        A3        A4
           R6           0.69956
           A1          -0.01871   0.16553
           A2          -0.05499   0.00917   0.26542
           A3          -0.03205   0.00230   0.00843   0.16449
           A4          -0.08942   0.03503   0.02714   0.01614   0.18463
           D1          -0.00743   0.00243   0.00326   0.00094   0.00992
           D2          -0.03387   0.00627   0.01014   0.00500   0.01965
           D3          -0.01003   0.00142   0.00517   0.00006   0.01737
                          D1        D2        D3
           D1           0.00305
           D2           0.00202   0.00871
           D3          -0.00071   0.00120   0.00847
 ITU=  0  1  0
 Use linear search instead of GDIIS.
     Eigenvalues ---    0.00180   0.00434   0.00766   0.12924   0.16133
     Eigenvalues ---    0.19539   0.50218   0.55078   1.415851000.00000
     Eigenvalues --- 1000.000001000.000001000.00000
 RFO step:  Lambda=-2.73284505D-02 EMin= 1.80275693D-03
 Quartic linear search produced a step of -0.29417.
 Iteration  1 RMS(Cart)=  0.20337729 RMS(Int)=  0.10743620
 Iteration  2 RMS(Cart)=  0.10873614 RMS(Int)=  0.04656651
 Iteration  3 RMS(Cart)=  0.06506478 RMS(Int)=  0.00515837
 Iteration  4 RMS(Cart)=  0.00398753 RMS(Int)=  0.00001136
 Iteration  5 RMS(Cart)=  0.00001404 RMS(Int)=  0.00000006
 Iteration  6 RMS(Cart)=  0.00000000 RMS(Int)=  0.00000006
 Iteration  1 RMS(Cart)=  0.00000004 RMS(Int)=  0.00000015
 Variable       Old X    -DE/DX   Delta X   Delta X   Delta X     New X
                                 (Linear)    (Quad)   (Total)
    R1        2.28051   0.03416   0.05074   0.01347   0.06421   2.34472
    R2        2.27951   0.02155   0.00000   0.00000   0.00000   2.27951
    R3        4.45881  -0.00182   0.00000   0.00000   0.00000   4.45881
    R4        2.27592  -0.03028   0.00000   0.00000   0.00000   2.27592
    R5        2.39942   0.11270   0.02371   0.06972   0.09343   2.49285
    R6        1.71252   0.07466   0.03923   0.05098   0.09021   1.80273
    A1        1.82104   0.00812  -0.01905   0.04600   0.02695   1.84800
    A2        2.72894   0.01439   0.00000   0.00000   0.00000   2.72895
    A3        1.94526  -0.01059  -0.02585  -0.00359  -0.02945   1.91581
    A4        1.72783   0.03087   0.19290  -0.04133   0.15157   1.87940
    D1       -2.07324   0.00764  -0.01550   0.28884   0.27334  -1.79990
    D2        1.09652   0.00260  -0.00831   0.20562   0.19731   1.29383
    D3        0.99106   0.01380  -0.18192   0.70008   0.51817   1.50923
         Item               Value     Threshold  Converged?
 Maximum Force            0.112702     0.002500     NO 
 RMS     Force            0.045638     0.001667     NO 
 Maximum Displacement     0.843948     0.010000     NO 
 RMS     Displacement     0.344096     0.006667     NO 
 Predicted change in Energy=-2.223275D-02
 GradGradGradGradGradGradGradGradGradGradGradGradGradGradGradGradGradGrad

                          Input orientation:                          
 ---------------------------------------------------------------------
 Center     Atomic      Atomic             Coordinates (Angstroms)
 Number     Number       Type             X           Y           Z
 ---------------------------------------------------------------------
      1          8           0        1.544970   -0.335355    0.300921
      2          8           0        1.709955    0.838015   -0.067178
      3          1           0        0.426525   -0.633633   -0.038464
      4          8           0       -1.355765    0.305378    0.273775
      5          8           0       -0.748651   -0.853761    0.106467
      6          1           0       -1.577034    0.679256   -0.575522
 ---------------------------------------------------------------------
                    Distance matrix (angstroms):
                    1          2          3          4          5
     1  O    0.000000
     2  O    1.240771   0.000000
     3  H    1.206263   1.952886   0.000000
     4  O    2.970781   3.130270   2.038576   0.000000
     5  O    2.359503   2.989482   1.204367   1.319160   0.000000
     6  H    3.397720   3.329852   2.454864   0.953965   1.871221
                    6
     6  H    0.000000
 Stoichiometry    H2O4(3)
 Framework group  C1[X(H2O4)]
 Deg. of freedom    12
 Full point group                 C1      NOp   1
 Largest Abelian subgroup         C1      NOp   1
 Largest concise Abelian subgroup C1      NOp   1
                         Standard orientation:                         
 ---------------------------------------------------------------------
 Center     Atomic      Atomic             Coordinates (Angstroms)
 Number     Number       Type             X           Y           Z
 ---------------------------------------------------------------------
      1          8           0       -1.237421   -0.547378   -0.130323
      2          8           0       -1.590971    0.622062    0.086298
      3          1           0       -0.092679   -0.620667    0.242862
      4          8           0        1.526215    0.540989   -0.187869
      5          8           0        1.104991   -0.669155    0.125668
      6          1           0        1.670159    1.048524    0.606950
 ---------------------------------------------------------------------
 Rotational constants (GHZ):     19.5081783      4.0046836      3.3944070
 Standard basis: 6-311+G(2df,2p) (5D, 7F)
 There are   154 symmetry adapted basis functions of A   symmetry.
 Integral buffers will be    131072 words long.
 Raffenetti 2 integral format.
 Two-electron integral symmetry is turned on.
   154 basis functions,   230 primitive gaussians,   174 cartesian basis functions
    18 alpha electrons       16 beta electrons
       nuclear repulsion energy       121.5726610147 Hartrees.
 NAtoms=    6 NActive=    6 NUniq=    6 SFac= 1.00D+00 NAtFMM=   50 NAOKFM=F Big=F
 One-electron integrals computed using PRISM.
 NBasis=   154 RedAO= T  NBF=   154
 NBsUse=   154 1.00D-06 NBFU=   154
 Initial guess read from the read-write file.
 B after Tr=     0.000000    0.000000    0.000000
         Rot=    1.000000    0.000000    0.000000    0.000000 Ang=   0.00 deg.
 Initial guess orbital symmetries:
 Alpha Orbitals:
       Occupied  (A) (A) (A) (A) (A) (A) (A) (A) (A) (A) (A) (A)
                 (A) (A) (A) (A) (A) (A)
       Virtual   (A) (A) (A) (A) (A) (A) (A) (A) (A) (A) (A) (A)
                 (A) (A) (A) (A) (A) (A) (A) (A) (A) (A) (A) (A)
                 (A) (A) (A) (A) (A) (A) (A) (A) (A) (A) (A) (A)
                 (A) (A) (A) (A) (A) (A) (A) (A) (A) (A) (A) (A)
                 (A) (A) (A) (A) (A) (A) (A) (A) (A) (A) (A) (A)
                 (A) (A) (A) (A) (A) (A) (A) (A) (A) (A) (A) (A)
                 (A) (A) (A) (A) (A) (A) (A) (A) (A) (A) (A) (A)
                 (A) (A) (A) (A) (A) (A) (A) (A) (A) (A) (A) (A)
                 (A) (A) (A) (A) (A) (A) (A) (A) (A) (A) (A) (A)
                 (A) (A) (A) (A) (A) (A) (A) (A) (A) (A) (A) (A)
                 (A) (A) (A) (A) (A) (A) (A) (A) (A) (A) (A) (A)
                 (A) (A) (A) (A)
 Beta  Orbitals:
       Occupied  (A) (A) (A) (A) (A) (A) (A) (A) (A) (A) (A) (A)
                 (A) (A) (A) (A)
       Virtual   (A) (A) (A) (A) (A) (A) (A) (A) (A) (A) (A) (A)
                 (A) (A) (A) (A) (A) (A) (A) (A) (A) (A) (A) (A)
                 (A) (A) (A) (A) (A) (A) (A) (A) (A) (A) (A) (A)
                 (A) (A) (A) (A) (A) (A) (A) (A) (A) (A) (A) (A)
                 (A) (A) (A) (A) (A) (A) (A) (A) (A) (A) (A) (A)
                 (A) (A) (A) (A) (A) (A) (A) (A) (A) (A) (A) (A)
                 (A) (A) (A) (A) (A) (A) (A) (A) (A) (A) (A) (A)
                 (A) (A) (A) (A) (A) (A) (A) (A) (A) (A) (A) (A)
                 (A) (A) (A) (A) (A) (A) (A) (A) (A) (A) (A) (A)
                 (A) (A) (A) (A) (A) (A) (A) (A) (A) (A) (A) (A)
                 (A) (A) (A) (A) (A) (A) (A) (A) (A) (A) (A) (A)
                 (A) (A) (A) (A) (A) (A)
 Initial guess <Sx>= 0.0000 <Sy>= 0.0000 <Sz>= 1.0000 <S**2>= 2.0639 S= 1.0212
 Harris functional with IExCor= 1009 diagonalized for initial guess.
 ExpMin= 8.45D-02 ExpMax= 8.59D+03 ExpMxC= 1.30D+03 IAcc=2 IRadAn=         1 AccDes= 0.00D+00
 HarFok:  IExCor= 1009 AccDes= 0.00D+00 IRadAn=         1 IDoV= 1
 ScaDFX=  1.000000  1.000000  1.000000  1.000000
 FoFCou: FMM=F IPFlag=           0 FMFlag=      100000 FMFlg1=           0
         NFxFlg=           0 DoJE=T BraDBF=F KetDBF=T FulRan=T
         Omega=  0.000000  0.000000  1.000000  0.000000  0.000000 ICntrl=     500 IOpCl=  0
         NMat0=    1 NMatS0=    1 NMatT0=    0 NMatD0=    1 NMtDS0=    0 NMtDT0=    0
         I1Cent=           4 NGrid=           0.
 Petite list used in FoFCou.
 Requested convergence on RMS density matrix=1.00D-08 within 128 cycles.
 Requested convergence on MAX density matrix=1.00D-06.
 Requested convergence on             energy=1.00D-06.
 No special actions if energy rises.
 Keep R1 and R2 ints in memory in canonical form, NReq=234629633.
 SCF Done:  E(UM062X) =  -301.804546197     A.U. after   19 cycles
             Convg  =    0.6088D-08             -V/T =  2.0024
 <Sx>= 0.0000 <Sy>= 0.0000 <Sz>= 1.0000 <S**2>= 2.0203 S= 1.0067
 <L.S>= 0.000000000000E+00
 Annihilation of the first spin contaminant:
 S**2 before annihilation     2.0203,   after     2.0002
 Calling FoFJK, ICntrl=      2127 FMM=F ISym2X=0 I1Cent= 0 IOpClX= 1 NMat=1 NMatS=1 NMatT=0.
 ***** Axes restored to original set *****
 -------------------------------------------------------------------
 Center     Atomic                   Forces (Hartrees/Bohr)
 Number     Number              X              Y              Z
 -------------------------------------------------------------------
      1        8           0.023181796    0.034641952   -0.011750130
      2        8          -0.002004607   -0.022891149    0.009979155
      3        1          -0.056514145   -0.015725109    0.014308649
      4        8          -0.011995919    0.041138900    0.027720595
      5        8           0.047682165   -0.035111637   -0.024071924
      6        1          -0.000349290   -0.002052957   -0.016186344
 -------------------------------------------------------------------
 Cartesian Forces:  Max     0.056514145 RMS     0.026983481

 GradGradGradGradGradGradGradGradGradGradGradGradGradGradGradGradGradGrad
 Berny optimization.
 Using GEDIIS/GDIIS optimizer.
 Internal  Forces:  Max     0.041421637 RMS     0.019818425
 Search for a local minimum.
 Step number   4 out of a maximum of   23
 All quantities printed in internal units (Hartrees-Bohrs-Radians)
 Mixed Optimization -- RFO/linear search
 Update second derivatives using D2CorX and points    3    4
 DE= -1.86D-02 DEPred=-2.22D-02 R= 8.37D-01
 SS=  1.41D+00  RLast= 6.54D-01 DXNew= 8.4853D-01 1.9620D+00
 Trust test= 8.37D-01 RLast= 6.54D-01 DXMaxT set to 8.49D-01
 The second derivative matrix:
                          R1        R2        R3        R4        R5
           R1           0.61719
           R2           0.01053   0.55346
           R3           0.00058  -0.05033   0.05354
           R4          -0.00880  -0.33067   0.05361   0.59482
           R5           0.06400   0.29935  -0.05299  -0.31960   0.86237
           R6           0.04058   0.18466  -0.03155  -0.19616   0.18598
           A1           0.00779  -0.05052   0.00773   0.05343  -0.06645
           A2          -0.00239  -0.06731   0.01108   0.07160  -0.07115
           A3           0.02189  -0.03254   0.00529   0.03467  -0.00156
           A4           0.00307  -0.13088   0.02561   0.14254  -0.09923
           D1           0.00505  -0.01445   0.00270   0.01562  -0.00847
           D2           0.00428  -0.04350   0.00749   0.04653  -0.03561
           D3           0.01446  -0.03007   0.00457   0.03195  -0.00782
                          R6        A1        A2        A3        A4
           R6           0.61210
           A1          -0.03582   0.16327
           A2          -0.04352   0.01047   0.26475
           A3           0.00524   0.00578   0.00688   0.16206
           A4          -0.05831   0.03268   0.03045   0.03260   0.23921
           D1          -0.00341   0.00253   0.00334   0.00167   0.01387
           D2          -0.02014   0.00741   0.00969   0.00460   0.02680
           D3           0.00118   0.00117   0.00584   0.00389   0.03241
                          D1        D2        D3
           D1           0.00330
           D2           0.00238   0.00876
           D3           0.00034   0.00293   0.01254
 ITU=  1  0  1  0
 Use linear search instead of GDIIS.
     Eigenvalues ---    0.00187   0.00467   0.00817   0.14596   0.15259
     Eigenvalues ---    0.24470   0.51292   0.60695   1.002981000.00000
     Eigenvalues --- 1000.000001000.000001000.00000
 RFO step:  Lambda=-1.06146575D-02 EMin= 1.86631622D-03
 Quartic linear search produced a step of  0.12400.
 Iteration  1 RMS(Cart)=  0.15800761 RMS(Int)=  0.10736541
 Iteration  2 RMS(Cart)=  0.10971436 RMS(Int)=  0.03719996
 Iteration  3 RMS(Cart)=  0.03895233 RMS(Int)=  0.00198557
 Iteration  4 RMS(Cart)=  0.00222104 RMS(Int)=  0.00000358
 Iteration  5 RMS(Cart)=  0.00000502 RMS(Int)=  0.00000000
 Iteration  6 RMS(Cart)=  0.00000000 RMS(Int)=  0.00000000
 Iteration  1 RMS(Cart)=  0.00000004 RMS(Int)=  0.00000012
 Variable       Old X    -DE/DX   Delta X   Delta X   Delta X     New X
                                 (Linear)    (Quad)   (Total)
    R1        2.34472  -0.02485   0.00796  -0.06382  -0.05586   2.28886
    R2        2.27951   0.02460   0.00000   0.00000   0.00000   2.27951
    R3        4.45881  -0.00258   0.00000   0.00000   0.00000   4.45881
    R4        2.27592  -0.03419   0.00000   0.00000   0.00000   2.27592
    R5        2.49285   0.04142   0.01159   0.04333   0.05492   2.54777
    R6        1.80273   0.01371   0.01119  -0.00142   0.00977   1.81250
    A1        1.84800   0.00512   0.00334   0.06162   0.06496   1.91295
    A2        2.72895   0.01457   0.00000   0.00000   0.00000   2.72895
    A3        1.91581  -0.01603  -0.00365  -0.07701  -0.08066   1.83515
    A4        1.87940  -0.01685   0.01880  -0.14830  -0.12950   1.74990
    D1       -1.79990   0.00474   0.03389   0.49187   0.52576  -1.27414
    D2        1.29383  -0.00056   0.02447   0.15084   0.17531   1.46914
    D3        1.50923   0.00149   0.06425   0.26014   0.32439   1.83362
         Item               Value     Threshold  Converged?
 Maximum Force            0.041422     0.002500     NO 
 RMS     Force            0.017644     0.001667     NO 
 Maximum Displacement     0.520560     0.010000     NO 
 RMS     Displacement     0.279505     0.006667     NO 
 Predicted change in Energy=-7.273210D-03
 GradGradGradGradGradGradGradGradGradGradGradGradGradGradGradGradGradGrad

                          Input orientation:                          
 ---------------------------------------------------------------------
 Center     Atomic      Atomic             Coordinates (Angstroms)
 Number     Number       Type             X           Y           Z
 ---------------------------------------------------------------------
      1          8           0        1.569298   -0.368346    0.060605
      2          8           0        1.697344    0.826991    0.208291
      3          1           0        0.401799   -0.635671   -0.082764
      4          8           0       -1.195344    0.472608    0.177229
      5          8           0       -0.743111   -0.795107    0.255259
      6          1           0       -1.729986    0.499425   -0.618620
 ---------------------------------------------------------------------
                    Distance matrix (angstroms):
                    1          2          3          4          5
     1  O    0.000000
     2  O    1.211213   0.000000
     3  H    1.206263   1.975482   0.000000
     4  O    2.892067   2.914481   1.961312   0.000000
     5  O    2.359503   2.930739   1.204367   1.348223   0.000000
     6  H    3.478455   3.540857   2.473882   0.959133   1.847539
                    6
     6  H    0.000000
 Stoichiometry    H2O4(3)
 Framework group  C1[X(H2O4)]
 Deg. of freedom    12
 Full point group                 C1      NOp   1
 Largest Abelian subgroup         C1      NOp   1
 Largest concise Abelian subgroup C1      NOp   1
                         Standard orientation:                         
 ---------------------------------------------------------------------
 Center     Atomic      Atomic             Coordinates (Angstroms)
 Number     Number       Type             X           Y           Z
 ---------------------------------------------------------------------
      1          8           0        1.240100    0.545071    0.091673
      2          8           0        1.508105   -0.624965   -0.070267
      3          1           0        0.049120    0.671328    0.235539
      4          8           0       -1.406215   -0.613927   -0.041701
      5          8           0       -1.106292    0.699072   -0.103211
      6          1           0       -1.934702   -0.713335    0.752501
 ---------------------------------------------------------------------
 Rotational constants (GHZ):     18.8607779      4.3216187      3.5655456
 Standard basis: 6-311+G(2df,2p) (5D, 7F)
 There are   154 symmetry adapted basis functions of A   symmetry.
 Integral buffers will be    131072 words long.
 Raffenetti 2 integral format.
 Two-electron integral symmetry is turned on.
   154 basis functions,   230 primitive gaussians,   174 cartesian basis functions
    18 alpha electrons       16 beta electrons
       nuclear repulsion energy       122.9795345808 Hartrees.
 NAtoms=    6 NActive=    6 NUniq=    6 SFac= 1.00D+00 NAtFMM=   50 NAOKFM=F Big=F
 One-electron integrals computed using PRISM.
 NBasis=   154 RedAO= T  NBF=   154
 NBsUse=   154 1.00D-06 NBFU=   154
 Initial guess read from the read-write file.
 B after Tr=     0.000000    0.000000    0.000000
         Rot=    1.000000    0.000000    0.000000    0.000000 Ang=   0.00 deg.
 Initial guess orbital symmetries:
 Alpha Orbitals:
       Occupied  (A) (A) (A) (A) (A) (A) (A) (A) (A) (A) (A) (A)
                 (A) (A) (A) (A) (A) (A)
       Virtual   (A) (A) (A) (A) (A) (A) (A) (A) (A) (A) (A) (A)
                 (A) (A) (A) (A) (A) (A) (A) (A) (A) (A) (A) (A)
                 (A) (A) (A) (A) (A) (A) (A) (A) (A) (A) (A) (A)
                 (A) (A) (A) (A) (A) (A) (A) (A) (A) (A) (A) (A)
                 (A) (A) (A) (A) (A) (A) (A) (A) (A) (A) (A) (A)
                 (A) (A) (A) (A) (A) (A) (A) (A) (A) (A) (A) (A)
                 (A) (A) (A) (A) (A) (A) (A) (A) (A) (A) (A) (A)
                 (A) (A) (A) (A) (A) (A) (A) (A) (A) (A) (A) (A)
                 (A) (A) (A) (A) (A) (A) (A) (A) (A) (A) (A) (A)
                 (A) (A) (A) (A) (A) (A) (A) (A) (A) (A) (A) (A)
                 (A) (A) (A) (A) (A) (A) (A) (A) (A) (A) (A) (A)
                 (A) (A) (A) (A)
 Beta  Orbitals:
       Occupied  (A) (A) (A) (A) (A) (A) (A) (A) (A) (A) (A) (A)
                 (A) (A) (A) (A)
       Virtual   (A) (A) (A) (A) (A) (A) (A) (A) (A) (A) (A) (A)
                 (A) (A) (A) (A) (A) (A) (A) (A) (A) (A) (A) (A)
                 (A) (A) (A) (A) (A) (A) (A) (A) (A) (A) (A) (A)
                 (A) (A) (A) (A) (A) (A) (A) (A) (A) (A) (A) (A)
                 (A) (A) (A) (A) (A) (A) (A) (A) (A) (A) (A) (A)
                 (A) (A) (A) (A) (A) (A) (A) (A) (A) (A) (A) (A)
                 (A) (A) (A) (A) (A) (A) (A) (A) (A) (A) (A) (A)
                 (A) (A) (A) (A) (A) (A) (A) (A) (A) (A) (A) (A)
                 (A) (A) (A) (A) (A) (A) (A) (A) (A) (A) (A) (A)
                 (A) (A) (A) (A) (A) (A) (A) (A) (A) (A) (A) (A)
                 (A) (A) (A) (A) (A) (A) (A) (A) (A) (A) (A) (A)
                 (A) (A) (A) (A) (A) (A)
 Initial guess <Sx>= 0.0000 <Sy>= 0.0000 <Sz>= 1.0000 <S**2>= 2.0613 S= 1.0203
 Harris functional with IExCor= 1009 diagonalized for initial guess.
 ExpMin= 8.45D-02 ExpMax= 8.59D+03 ExpMxC= 1.30D+03 IAcc=2 IRadAn=         1 AccDes= 0.00D+00
 HarFok:  IExCor= 1009 AccDes= 0.00D+00 IRadAn=         1 IDoV= 1
 ScaDFX=  1.000000  1.000000  1.000000  1.000000
 FoFCou: FMM=F IPFlag=           0 FMFlag=      100000 FMFlg1=           0
         NFxFlg=           0 DoJE=T BraDBF=F KetDBF=T FulRan=T
         Omega=  0.000000  0.000000  1.000000  0.000000  0.000000 ICntrl=     500 IOpCl=  0
         NMat0=    1 NMatS0=    1 NMatT0=    0 NMatD0=    1 NMtDS0=    0 NMtDT0=    0
         I1Cent=           4 NGrid=           0.
 Petite list used in FoFCou.
 Requested convergence on RMS density matrix=1.00D-08 within 128 cycles.
 Requested convergence on MAX density matrix=1.00D-06.
 Requested convergence on             energy=1.00D-06.
 No special actions if energy rises.
 Keep R1 and R2 ints in memory in canonical form, NReq=234629633.
 SCF Done:  E(UM062X) =  -301.810151354     A.U. after   17 cycles
             Convg  =    0.7410D-08             -V/T =  2.0023
 <Sx>= 0.0000 <Sy>= 0.0000 <Sz>= 1.0000 <S**2>= 2.0181 S= 1.0060
 <L.S>= 0.000000000000E+00
 Annihilation of the first spin contaminant:
 S**2 before annihilation     2.0181,   after     2.0002
 Calling FoFJK, ICntrl=      2127 FMM=F ISym2X=0 I1Cent= 0 IOpClX= 1 NMat=1 NMatS=1 NMatT=0.
 ***** Axes restored to original set *****
 -------------------------------------------------------------------
 Center     Atomic                   Forces (Hartrees/Bohr)
 Number     Number              X              Y              Z
 -------------------------------------------------------------------
      1        8           0.031888975    0.010775772   -0.003147483
      2        8          -0.000793047    0.000233254    0.000112850
      3        1          -0.071241317   -0.021651206    0.021486026
      4        8          -0.009957921    0.033800125    0.006911496
      5        8           0.052180970   -0.022993654   -0.019225520
      6        1          -0.002077660   -0.000164291   -0.006137369
 -------------------------------------------------------------------
 Cartesian Forces:  Max     0.071241317 RMS     0.025929334

 GradGradGradGradGradGradGradGradGradGradGradGradGradGradGradGradGradGrad
 Berny optimization.
 Using GEDIIS/GDIIS optimizer.
 Internal  Forces:  Max     0.042831760 RMS     0.018711191
 Search for a local minimum.
 Step number   5 out of a maximum of   23
 All quantities printed in internal units (Hartrees-Bohrs-Radians)
 Mixed Optimization -- RFO/linear search
 Update second derivatives using D2CorX and points    4    5
 DE= -5.61D-03 DEPred=-7.27D-03 R= 7.71D-01
 SS=  1.41D+00  RLast= 6.68D-01 DXNew= 1.4270D+00 2.0038D+00
 Trust test= 7.71D-01 RLast= 6.68D-01 DXMaxT set to 1.43D+00
 The second derivative matrix:
                          R1        R2        R3        R4        R5
           R1           0.58620
           R2           0.06686   0.54952
           R3          -0.00649  -0.04659   0.05277
           R4          -0.06706  -0.32449   0.04955   0.58630
           R5           0.20418   0.23678  -0.03880  -0.25076   0.60359
           R6           0.07467   0.15870  -0.02711  -0.16854   0.10206
           A1           0.00801  -0.06308   0.00890   0.06616  -0.09120
           A2          -0.01349  -0.06399   0.01011   0.06781  -0.05387
           A3          -0.00073   0.00185   0.00075  -0.00105   0.08764
           A4          -0.00932  -0.09278   0.02134   0.10346  -0.01275
           D1          -0.00711  -0.01826   0.00233   0.01901  -0.00407
           D2          -0.01473  -0.04502   0.00649   0.04733  -0.02006
           D3           0.00098  -0.03264   0.00400   0.03404   0.00028
                          R6        A1        A2        A3        A4
           R6           0.58776
           A1          -0.04051   0.16477
           A2          -0.03748   0.01263   0.26366
           A3           0.02767   0.00677  -0.00006   0.14600
           A4          -0.03897   0.03084   0.02334   0.02249   0.23671
           D1           0.00048   0.00581   0.00342  -0.00544   0.00492
           D2          -0.01242   0.01200   0.00906  -0.00681   0.01350
           D3           0.00611   0.00461   0.00565  -0.00410   0.02274
                          D1        D2        D3
           D1           0.00535
           D2           0.00441   0.01032
           D3           0.00217   0.00458   0.01413
 ITU=  1  1  0  1  0
 Use linear search instead of GDIIS.
     Eigenvalues ---    0.00254   0.00744   0.01358   0.10712   0.14743
     Eigenvalues ---    0.25068   0.41623   0.53514   0.874681000.00000
     Eigenvalues --- 1000.000001000.000001000.00000
 RFO step:  Lambda=-5.37031973D-03 EMin= 2.53999190D-03
 Quartic linear search produced a step of -0.00065.
 Iteration  1 RMS(Cart)=  0.06899685 RMS(Int)=  0.04891694
 Iteration  2 RMS(Cart)=  0.07667903 RMS(Int)=  0.00453534
 Iteration  3 RMS(Cart)=  0.00495379 RMS(Int)=  0.00001352
 Iteration  4 RMS(Cart)=  0.00001936 RMS(Int)=  0.00000000
 Iteration  5 RMS(Cart)=  0.00000000 RMS(Int)=  0.00000000
 Iteration  1 RMS(Cart)=  0.00000004 RMS(Int)=  0.00000011
 Variable       Old X    -DE/DX   Delta X   Delta X   Delta X     New X
                                 (Linear)    (Quad)   (Total)
    R1        2.28886   0.00016   0.00004  -0.03583  -0.03580   2.25306
    R2        2.27951   0.03409   0.00000   0.00000   0.00000   2.27951
    R3        4.45881  -0.00196   0.00000   0.00000   0.00000   4.45881
    R4        2.27592  -0.04283   0.00000   0.00000   0.00000   2.27592
    R5        2.54777   0.03559  -0.00004   0.07943   0.07940   2.62717
    R6        1.81250   0.00629  -0.00001   0.00579   0.00579   1.81828
    A1        1.91295  -0.00185  -0.00004   0.05675   0.05671   1.96966
    A2        2.72895   0.01412   0.00000   0.00000   0.00000   2.72895
    A3        1.83515  -0.00152   0.00005  -0.08348  -0.08343   1.75173
    A4        1.74990   0.00185   0.00008   0.04443   0.04451   1.79441
    D1       -1.27414   0.00009  -0.00034   0.10512   0.10478  -1.16937
    D2        1.46914  -0.00535  -0.00011  -0.37238  -0.37249   1.09664
    D3        1.83362  -0.00274  -0.00021  -0.14855  -0.14876   1.68486
         Item               Value     Threshold  Converged?
 Maximum Force            0.035585     0.002500     NO 
 RMS     Force            0.011624     0.001667     NO 
 Maximum Displacement     0.261562     0.010000     NO 
 RMS     Displacement     0.128657     0.006667     NO 
 Predicted change in Energy=-3.199723D-03
 GradGradGradGradGradGradGradGradGradGradGradGradGradGradGradGradGradGrad

                          Input orientation:                          
 ---------------------------------------------------------------------
[...]
    R6        1.82382   0.00003   0.00010  -0.00028  -0.00018   1.82364
    A1        1.92826  -0.00016   0.00009  -0.00065  -0.00056   1.92769
    A2        2.72895   0.01113   0.00000   0.00001   0.00001   2.72896
    A3        1.80726   0.00013  -0.00003   0.00038   0.00035   1.80761
    A4        1.75830   0.00005   0.00023  -0.00049  -0.00026   1.75804
    D1        0.06668  -0.00003  -0.00312   0.01116   0.00805   0.07472
    D2       -0.20389  -0.00005   0.00322  -0.01354  -0.01032  -0.21421
    D3        1.78512   0.00006   0.00017   0.00401   0.00418   1.78930
         Item               Value     Threshold  Converged?
 Maximum Force            0.000449     0.002500     YES
 RMS     Force            0.000204     0.001667     YES
 Maximum Displacement     0.003229     0.010000     YES
 RMS     Displacement     0.001738     0.006667     YES
 Predicted change in Energy=-7.798522D-07
 Optimization completed.
    -- Stationary point found.
                           ----------------------------
                           !   Optimized Parameters   !
                           ! (Angstroms and Degrees)  !
 --------------------------                            --------------------------
 ! Name  Definition              Value          Derivative Info.                !
 --------------------------------------------------------------------------------
 ! R1    R(1,2)                  1.2125         -DE/DX =   -0.0004              !
 ! R2    R(1,3)                  1.2063         -DE/DX =    0.0337              !
 ! R3    R(1,5)                  2.3595         -DE/DX =    0.0                 !
 ! R4    R(3,5)                  1.2044         -DE/DX =   -0.039               !
 ! R5    R(4,5)                  1.384          -DE/DX =    0.0004              !
 ! R6    R(4,6)                  0.9651         -DE/DX =    0.0                 !
 ! A1    A(2,1,3)              110.4809         -DE/DX =   -0.0002              !
 ! A2    A(1,3,5)              156.3573         -DE/DX =    0.0111              !
 ! A3    A(5,4,6)              103.5484         -DE/DX =    0.0001              !
 ! A4    A(3,5,4)              100.7431         -DE/DX =    0.0001              !
 ! D1    D(2,1,3,5)              3.8203         -DE/DX =    0.0                 !
 ! D2    D(1,3,5,4)            -11.6819         -DE/DX =    0.0                 !
 ! D3    D(6,4,5,3)            102.2796         -DE/DX =    0.0001              !
 --------------------------------------------------------------------------------
 GradGradGradGradGradGradGradGradGradGradGradGradGradGradGradGradGradGrad

                          Input orientation:                          
 ---------------------------------------------------------------------
 Center     Atomic      Atomic             Coordinates (Angstroms)
 Number     Number       Type             X           Y           Z
 ---------------------------------------------------------------------
      1          8           0        1.495649   -0.292830    0.058189
      2          8           0        1.359484    0.911641    0.027761
      3          1           0        0.420872   -0.837870    0.111655
      4          8           0       -1.115658    0.425933    0.282934
      5          8           0       -0.781415   -0.907627    0.123478
      6          1           0       -1.378933    0.700654   -0.604017
 ---------------------------------------------------------------------
                    Distance matrix (angstroms):
                    1          2          3          4          5
     1  O    0.000000
     2  O    1.212526   0.000000
     3  H    1.206263   1.987164   0.000000
     4  O    2.717730   2.535223   1.996862   0.000000
     5  O    2.359503   2.811112   1.204367   1.384026   0.000000
     6  H    3.112675   2.818260   2.473568   0.965126   1.863557
                    6
     6  H    0.000000
 Stoichiometry    H2O4(3)
 Framework group  C1[X(H2O4)]
 Deg. of freedom    12
 Full point group                 C1      NOp   1
 Largest Abelian subgroup         C1      NOp   1
 Largest concise Abelian subgroup C1      NOp   1
                         Standard orientation:                         
 ---------------------------------------------------------------------
 Center     Atomic      Atomic             Coordinates (Angstroms)
 Number     Number       Type             X           Y           Z
 ---------------------------------------------------------------------
      1          8           0        1.208416    0.574852   -0.007946
      2          8           0        1.317700   -0.632548    0.013527
      3          1           0        0.044969    0.893381   -0.009183
      4          8           0       -1.213344   -0.652373   -0.130627
      5          8           0       -1.146265    0.720570    0.030785
      6          1           0       -1.377030   -0.977390    0.763263
 ---------------------------------------------------------------------
 Rotational constants (GHZ):     17.1916494      5.1330079      4.0053126

 **********************************************************************

            Population analysis using the SCF density.

 **********************************************************************

 Orbital symmetries:
 Alpha Orbitals:
       Occupied  (A) (A) (A) (A) (A) (A) (A) (A) (A) (A) (A) (A)
                 (A) (A) (A) (A) (A) (A)
       Virtual   (A) (A) (A) (A) (A) (A) (A) (A) (A) (A) (A) (A)
                 (A) (A) (A) (A) (A) (A) (A) (A) (A) (A) (A) (A)
                 (A) (A) (A) (A) (A) (A) (A) (A) (A) (A) (A) (A)
                 (A) (A) (A) (A) (A) (A) (A) (A) (A) (A) (A) (A)
                 (A) (A) (A) (A) (A) (A) (A) (A) (A) (A) (A) (A)
                 (A) (A) (A) (A) (A) (A) (A) (A) (A) (A) (A) (A)
                 (A) (A) (A) (A) (A) (A) (A) (A) (A) (A) (A) (A)
                 (A) (A) (A) (A) (A) (A) (A) (A) (A) (A) (A) (A)
                 (A) (A) (A) (A) (A) (A) (A) (A) (A) (A) (A) (A)
                 (A) (A) (A) (A) (A) (A) (A) (A) (A) (A) (A) (A)
                 (A) (A) (A) (A) (A) (A) (A) (A) (A) (A) (A) (A)
                 (A) (A) (A) (A)
 Beta  Orbitals:
       Occupied  (A) (A) (A) (A) (A) (A) (A) (A) (A) (A) (A) (A)
                 (A) (A) (A) (A)
       Virtual   (A) (A) (A) (A) (A) (A) (A) (A) (A) (A) (A) (A)
                 (A) (A) (A) (A) (A) (A) (A) (A) (A) (A) (A) (A)
                 (A) (A) (A) (A) (A) (A) (A) (A) (A) (A) (A) (A)
                 (A) (A) (A) (A) (A) (A) (A) (A) (A) (A) (A) (A)
                 (A) (A) (A) (A) (A) (A) (A) (A) (A) (A) (A) (A)
                 (A) (A) (A) (A) (A) (A) (A) (A) (A) (A) (A) (A)
                 (A) (A) (A) (A) (A) (A) (A) (A) (A) (A) (A) (A)
                 (A) (A) (A) (A) (A) (A) (A) (A) (A) (A) (A) (A)
                 (A) (A) (A) (A) (A) (A) (A) (A) (A) (A) (A) (A)
                 (A) (A) (A) (A) (A) (A) (A) (A) (A) (A) (A) (A)
                 (A) (A) (A) (A) (A) (A) (A) (A) (A) (A) (A) (A)
                 (A) (A) (A) (A) (A) (A)
 The electronic state is 3-A.
 Alpha  occ. eigenvalues --  -19.81369 -19.81056 -19.70611 -19.68088  -1.47599
 Alpha  occ. eigenvalues --   -1.27852  -1.02760  -0.97607  -0.74044  -0.69801
 Alpha  occ. eigenvalues --   -0.67424  -0.62065  -0.55476  -0.52900  -0.46347
 Alpha  occ. eigenvalues --   -0.43330  -0.37781  -0.35606
 Alpha virt. eigenvalues --    0.04388   0.06517   0.10349   0.11717   0.12872
 Alpha virt. eigenvalues --    0.15684   0.17088   0.17804   0.19429   0.20411
 Alpha virt. eigenvalues --    0.23311   0.24108   0.24518   0.26079   0.26573
 Alpha virt. eigenvalues --    0.31174   0.33198   0.33914   0.38298   0.42350
 Alpha virt. eigenvalues --    0.53542   0.56450   0.65709   0.71592   0.77113
 Alpha virt. eigenvalues --    0.80197   0.88182   0.93425   0.94912   0.97568
 Alpha virt. eigenvalues --    0.99038   1.00820   1.03726   1.04776   1.08753
 Alpha virt. eigenvalues --    1.12469   1.14735   1.17586   1.28816   1.30545
 Alpha virt. eigenvalues --    1.32205   1.34690   1.37466   1.47749   1.52145
 Alpha virt. eigenvalues --    1.54083   1.57828   1.61326   1.62812   1.65483
 Alpha virt. eigenvalues --    1.71093   1.83951   1.96438   2.02130   2.18523
 Alpha virt. eigenvalues --    2.20060   2.21317   2.25476   2.28072   2.31819
 Alpha virt. eigenvalues --    2.45630   2.55297   2.57657   2.60744   2.71223
 Alpha virt. eigenvalues --    2.87063   3.58407   3.67180   3.73746   3.75438
 Alpha virt. eigenvalues --    3.85803   4.12062   4.42890   4.49192   4.49709
 Alpha virt. eigenvalues --    4.58189   4.60633   4.61378   4.68503   4.74318
 Alpha virt. eigenvalues --    4.82367   4.82566   4.86296   4.87965   4.90127
 Alpha virt. eigenvalues --    4.98242   4.99365   5.02330   5.03274   5.06942
 Alpha virt. eigenvalues --    5.10631   5.12269   5.15327   5.18075   5.22007
 Alpha virt. eigenvalues --    5.24680   5.26773   5.32669   5.35753   5.41586
 Alpha virt. eigenvalues --    5.52171   5.57779   5.62020   5.64172   6.10680
 Alpha virt. eigenvalues --    6.11376   6.49171   6.54576   6.63832   6.65583
 Alpha virt. eigenvalues --    6.70339   6.71028   6.80410   6.81025   6.82416
 Alpha virt. eigenvalues --    6.83879   6.86217   6.88766   6.94446   6.98619
 Alpha virt. eigenvalues --    7.07043   7.20285   7.20684   7.25376   7.30424
 Alpha virt. eigenvalues --    7.36386   7.46859   7.69395   7.82013   7.90890
 Alpha virt. eigenvalues --    7.92682   8.03248  49.92097  49.98759  50.00547
 Alpha virt. eigenvalues --   50.05851
  Beta  occ. eigenvalues --  -19.79494 -19.78599 -19.70251 -19.67589  -1.41272
  Beta  occ. eigenvalues --   -1.26493  -0.98356  -0.91332  -0.67540  -0.61418
  Beta  occ. eigenvalues --   -0.61017  -0.56852  -0.52731  -0.48593  -0.37464
  Beta  occ. eigenvalues --   -0.35064
  Beta virt. eigenvalues --   -0.11575  -0.09267   0.04864   0.06941   0.10592
  Beta virt. eigenvalues --    0.12252   0.13470   0.16111   0.17475   0.18185
  Beta virt. eigenvalues --    0.20120   0.20937   0.23592   0.24360   0.24762
  Beta virt. eigenvalues --    0.26766   0.28396   0.32440   0.33143   0.35074
  Beta virt. eigenvalues --    0.39100   0.42298   0.53806   0.57143   0.65888
  Beta virt. eigenvalues --    0.72039   0.77415   0.80443   0.88604   0.94940
  Beta virt. eigenvalues --    0.95684   1.00165   1.01512   1.02075   1.04605
  Beta virt. eigenvalues --    1.07850   1.09976   1.13180   1.15205   1.19233
  Beta virt. eigenvalues --    1.30504   1.32916   1.34226   1.36675   1.38701
  Beta virt. eigenvalues --    1.48855   1.52701   1.54525   1.58765   1.63529
  Beta virt. eigenvalues --    1.65097   1.66551   1.72691   1.84560   1.96875
  Beta virt. eigenvalues --    2.03163   2.19071   2.21341   2.22204   2.27120
  Beta virt. eigenvalues --    2.28627   2.32456   2.45821   2.55245   2.58223
  Beta virt. eigenvalues --    2.61094   2.69860   2.84972   3.58414   3.67153
  Beta virt. eigenvalues --    3.73471   3.74778   3.84889   4.11943   4.46169
  Beta virt. eigenvalues --    4.51017   4.51557   4.58454   4.60845   4.62396
  Beta virt. eigenvalues --    4.69158   4.74544   4.84054   4.84547   4.87030
  Beta virt. eigenvalues --    4.90008   4.95125   5.00948   5.02687   5.04023
  Beta virt. eigenvalues --    5.05349   5.08683   5.11599   5.13059   5.16599
  Beta virt. eigenvalues --    5.18735   5.23497   5.25523   5.27098   5.34263
  Beta virt. eigenvalues --    5.36187   5.42193   5.52534   5.58376   5.63353
  Beta virt. eigenvalues --    5.64690   6.10762   6.11840   6.49155   6.64780
  Beta virt. eigenvalues --    6.67736   6.71801   6.77354   6.78263   6.82254
  Beta virt. eigenvalues --    6.83425   6.85341   6.87368   6.87973   6.90535
  Beta virt. eigenvalues --    6.96537   7.02090   7.07859   7.22523   7.23584
  Beta virt. eigenvalues --    7.26131   7.31751   7.37269   7.46899   7.70166
  Beta virt. eigenvalues --    7.82660   7.90894   7.94023   8.04267  49.90899
  Beta virt. eigenvalues --   49.98397  49.99959  50.04647
          Condensed to atoms (all electrons):
              1          2          3          4          5          6
     1  O    7.714101   0.322232   0.056226   0.024063  -0.026930  -0.002459
     2  O    0.322232   7.655022  -0.025380   0.008353   0.014017   0.002313
     3  H    0.056226  -0.025380   0.415057  -0.070748   0.218953   0.008525
     4  O    0.024063   0.008353  -0.070748   7.775815   0.161836   0.250298
     5  O   -0.026930   0.014017   0.218953   0.161836   8.111167  -0.054132
     6  H   -0.002459   0.002313   0.008525   0.250298  -0.054132   0.554506
 Mulliken atomic charges:
              1
     1  O   -0.087232
     2  O    0.023444
     3  H    0.397367
     4  O   -0.149617
     5  O   -0.424911
     6  H    0.240949
 Sum of Mulliken atomic charges =   0.00000
 Mulliken charges with hydrogens summed into heavy atoms:
              1
     1  O   -0.087232
     2  O    0.023444
     4  O    0.091332
     5  O   -0.027544
 Sum of Mulliken charges with hydrogens summed into heavy atoms =   0.00000
          Atomic-Atomic Spin Densities.
              1          2          3          4          5          6
     1  O    1.059905  -0.357659   0.031554   0.031428  -0.039444  -0.001225
     2  O   -0.357659   1.379091   0.011217  -0.063583   0.033904   0.003478
     3  H    0.031554   0.011217  -0.115935   0.017892   0.009597  -0.001493
     4  O    0.031428  -0.063583   0.017892   0.163102  -0.053844   0.001804
     5  O   -0.039444   0.033904   0.009597  -0.053844   0.267480   0.002374
     6  H   -0.001225   0.003478  -0.001493   0.001804   0.002374  -0.005646
 Mulliken atomic spin densities:
              1
     1  O    0.724559
     2  O    1.006449
     3  H   -0.047167
     4  O    0.096800
     5  O    0.220067
     6  H   -0.000707
 Sum of Mulliken atomic spin densities =   2.00000
 Electronic spatial extent (au):  <R**2>=            284.2600
 Charge=              0.0000 electrons
 Dipole moment (field-independent basis, Debye):
    X=              1.2644    Y=             -0.6511    Z=              1.4583  Tot=              2.0369
 Quadrupole moment (field-independent basis, Debye-Ang):
   XX=            -23.8755   YY=            -21.7110   ZZ=            -21.4453
   XY=              2.5644   XZ=             -2.2668   YZ=             -1.8434
 Traceless Quadrupole moment (field-independent basis, Debye-Ang):
   XX=             -1.5316   YY=              0.6330   ZZ=              0.8986
   XY=              2.5644   XZ=             -2.2668   YZ=             -1.8434
 Octapole moment (field-independent basis, Debye-Ang**2):
  XXX=              3.8821  YYY=             -1.1834  ZZZ=              1.3524  XYY=              0.6440
  XXY=             -4.1687  XXZ=              3.3519  XZZ=              0.0475  YZZ=             -1.8294
  YYZ=              1.9205  XYZ=              2.5892
 Hexadecapole moment (field-independent basis, Debye-Ang**3):
 XXXX=           -215.2922 YYYY=            -71.5334 ZZZZ=            -18.3683 XXXY=              5.2834
 XXXZ=             -5.5547 YYYX=              4.0395 YYYZ=             -2.2754 ZZZX=             -2.1922
 ZZZY=             -1.9625 XXYY=            -49.3422 XXZZ=            -36.8368 YYZZ=            -15.5234
 XXYZ=             -3.8409 YYXZ=             -2.7958 ZZXY=              2.3913
 N-N= 1.256322193846D+02 E-N=-1.430037966518D+03  KE= 4.478911536891D+02
                          Isotropic Fermi Contact Couplings
        Atom                 a.u.       MegaHertz       Gauss      10(-4) cm-1
     1  O(17)              0.12384     -37.53607     -13.39380     -12.52069
     2  O(17)              0.18698     -56.67331     -20.22245     -18.90418
     3  H(1)              -0.03146     -70.30752     -25.08747     -23.45207
     4  O(17)              0.03695     -11.20034      -3.99656      -3.73603
     5  O(17)              0.01060      -3.21367      -1.14672      -1.07197
     6  H(1)              -0.00225      -5.02820      -1.79419      -1.67723
 --------------------------------------------------------
       Center         ----  Spin Dipole Couplings  ----
                      3XX-RR        3YY-RR        3ZZ-RR
 --------------------------------------------------------
     1   Atom        0.583269     -1.970467      1.387197
     2   Atom        0.805920     -2.503522      1.697602
     3   Atom        0.188767     -0.078313     -0.110455
     4   Atom        0.668222     -0.350863     -0.317359
     5   Atom        1.068181     -0.554272     -0.513909
     6   Atom        0.004122     -0.015400      0.011279
 --------------------------------------------------------
                        XY            XZ            YZ
 --------------------------------------------------------
     1   Atom        0.298993     -0.032388      0.063343
     2   Atom        0.357856      0.056576      0.095678
     3   Atom       -0.063812     -0.004000     -0.000360
     4   Atom       -0.071867      0.094045     -0.018433
     5   Atom       -0.129451      0.047862     -0.003869
     6   Atom        0.009440     -0.013194     -0.019516
 --------------------------------------------------------


 ---------------------------------------------------------------------------------
              Anisotropic Spin Dipole Couplings in Principal Axis System
 ---------------------------------------------------------------------------------

       Atom             a.u.   MegaHertz   Gauss  10(-4) cm-1        Axes

              Baa    -2.0063   145.176    51.802    48.425 -0.1149  0.9932 -0.0196
     1 O(17)  Bbb     0.6170   -44.646   -15.931   -14.892  0.9928  0.1155  0.0322
              Bcc     1.3893  -100.529   -35.871   -33.533 -0.0343  0.0158  0.9993
 
              Baa    -2.5436   184.057    65.676    61.395 -0.1059  0.9942 -0.0210
     2 O(17)  Bbb     0.8390   -60.713   -21.664   -20.252  0.9916  0.1040 -0.0769
              Bcc     1.7046  -123.344   -44.012   -41.143  0.0743  0.0290  0.9968
 
              Baa    -0.1106   -59.004   -21.054   -19.682  0.0271  0.0648  0.9975
     3 H(1)   Bbb    -0.0927   -49.455   -17.647   -16.496  0.2196  0.9731 -0.0692
              Bcc     0.2033   108.459    38.701    36.178  0.9752 -0.2210 -0.0122
 
              Baa    -0.3600    26.051     9.295     8.690  0.0359  0.9438  0.3287
     4 O(17)  Bbb    -0.3223    23.321     8.322     7.779 -0.1127 -0.3230  0.9397
              Bcc     0.6823   -49.372   -17.617   -16.469  0.9930 -0.0708  0.0947
 
              Baa    -0.5645    40.849    14.576    13.626  0.0790  0.9969  0.0015
     5 O(17)  Bbb    -0.5154    37.291    13.306    12.439 -0.0301  0.0009  0.9995
              Bcc     1.0799   -78.140   -27.882   -26.065  0.9964 -0.0790  0.0301
 
              Baa    -0.0259   -13.817    -4.930    -4.609 -0.0887  0.8945  0.4381
     6 H(1)   Bbb    -0.0053    -2.811    -1.003    -0.938  0.8544 -0.1578  0.4952
              Bcc     0.0312    16.628     5.933     5.546 -0.5121 -0.4183  0.7502
 

 ---------------------------------------------------------------------------------

 1\1\GINC-COMPUTE-3-041\FOpt\UM062X\6-311+G(2df,2p)\H2O4(3)\ROOT\11-May
 -2017\0\\# m062x/6-311+g(2df,2p) Opt=(ModRedun,Loose) Int(Grid=SG1)\\[
 O]O+[O]O_OO+[O][O]\\0,3\O,1.4956487546,-0.2928304344,0.0581893449\O,1.
 3594844414,0.911641317,0.0277605205\H,0.4208721766,-0.8378697505,0.111
 655327\O,-1.115658008,0.4259326162,0.2829344141\O,-0.7814146335,-0.907
 6273401,0.1234775588\H,-1.378932731,0.7006535918,-0.6040171653\\Versio
 n=EM64L-G09RevB.01\State=3-A\HF=-301.8163528\S2=2.017596\S2-1=0.\S2A=2
 .000169\RMSD=5.066e-09\RMSF=2.096e-02\Dipole=0.4111773,0.3435648,-0.59
 59296\Quadrupole=-0.1589377,-0.3665708,0.5255085,-2.085958,1.9868834,-
 0.9050588\PG=C01 [X(H2O4)]\\@


 HOW IS IT THAT THE SKY FEEDS THE STARS?

                           -- LUCRETIUS
 Job cpu time:  0 days  2 hours 36 minutes 52.7 seconds.
 File lengths (MBytes):  RWF=     56 Int=      0 D2E=      0 Chk=      3 Scr=      1
 Normal termination of Gaussian 09 at Thu May 11 16:54:37 2017.
