 Entering Gaussian System, Link 0=/shared/apps/gaussian/G09_LINUX_LINDA/g09/g09
 Input=/gss_gpfs_scratch/harms.n/QMscratch/[O]O+[O]OC=O_OO+[O]O[C]=OEst.gjf
 Output=/gss_gpfs_scratch/harms.n/QMscratch/[O]O+[O]OC=O_OO+[O]O[C]=OEst.log
 Initial command:
 /shared/apps/gaussian/G09_LINUX_LINDA/g09/l1.exe /gss_gpfs_scratch/harms.n/comparerTST/Gau-2365.inp -scrdir=/gss_gpfs_scratch/harms.n/comparerTST/
 Entering Link 1 = /shared/apps/gaussian/G09_LINUX_LINDA/g09/l1.exe PID=      2366.
  
 Copyright (c) 1988,1990,1992,1993,1995,1998,2003,2009,2010,
            Gaussian, Inc.  All Rights Reserved.
  
 This is part of the Gaussian(R) 09 program.  It is based on
 the Gaussian(R) 03 system (copyright 2003, Gaussian, Inc.),
 the Gaussian(R) 98 system (copyright 1998, Gaussian, Inc.),
 the Gaussian(R) 94 system (copyright 1995, Gaussian, Inc.),
 the Gaussian 92(TM) system (copyright 1992, Gaussian, Inc.),
 the Gaussian 90(TM) system (copyright 1990, Gaussian, Inc.),
 the Gaussian 88(TM) system (copyright 1988, Gaussian, Inc.),
 the Gaussian 86(TM) system (copyright 1986, Carnegie Mellon
 University), and the Gaussian 82(TM) system (copyright 1983,
 Carnegie Mellon University). Gaussian is a federally registered
 trademark of Gaussian, Inc.
  
 This software contains proprietary and confidential information,
 including trade secrets, belonging to Gaussian, Inc.
  
 This software is provided under written license and may be
 used, copied, transmitted, or stored only in accord with that
 written license.
  
 The following legend is applicable only to US Government
 contracts under FAR:
  
                    RESTRICTED RIGHTS LEGEND
  
 Use, reproduction and disclosure by the US Government is
 subject to restrictions as set forth in subparagraphs (a)
 and (c) of the Commercial Computer Software - Restricted
 Rights clause in FAR 52.227-19.
  
 Gaussian, Inc.
 340 Quinnipiac St., Bldg. 40, Wallingford CT 06492
  
  
 ---------------------------------------------------------------
 Warning -- This program may not be used in any manner that
 competes with the business of Gaussian, Inc. or will provide
 assistance to any competitor of Gaussian, Inc.  The licensee
 of this program is prohibited from giving any competitor of
 Gaussian, Inc. access to this program.  By using this program,
 the user acknowledges that Gaussian, Inc. is engaged in the
 business of creating and licensing software in the field of
 computational chemistry and represents and warrants to the
 licensee that it is not a competitor of Gaussian, Inc. and that
 it will not use this program in any manner prohibited above.
 ---------------------------------------------------------------
  

 Cite this work as:
 Gaussian 09, Revision B.01,
 M. J. Frisch, G. W. Trucks, H. B. Schlegel, G. E. Scuseria, 
 M. A. Robb, J. R. Cheeseman, G. Scalmani, V. Barone, B. Mennucci, 
 G. A. Petersson, H. Nakatsuji, M. Caricato, X. Li, H. P. Hratchian, 
 A. F. Izmaylov, J. Bloino, G. Zheng, J. L. Sonnenberg, M. Hada, 
 M. Ehara, K. Toyota, R. Fukuda, J. Hasegawa, M. Ishida, T. Nakajima, 
 Y. Honda, O. Kitao, H. Nakai, T. Vreven, J. A. Montgomery, Jr., 
 J. E. Peralta, F. Ogliaro, M. Bearpark, J. J. Heyd, E. Brothers, 
 K. N. Kudin, V. N. Staroverov, T. Keith, R. Kobayashi, J. Normand, 
 K. Raghavachari, A. Rendell, J. C. Burant, S. S. Iyengar, J. Tomasi, 
 M. Cossi, N. Rega, J. M. Millam, M. Klene, J. E. Knox, J. B. Cross, 
 V. Bakken, C. Adamo, J. Jaramillo, R. Gomperts, R. E. Stratmann, 
 O. Yazyev, A. J. Austin, R. Cammi, C. Pomelli, J. W. Ochterski, 
 R. L. Martin, K. Morokuma, V. G. Zakrzewski, G. A. Voth, 
 P. Salvador, J. J. Dannenberg, S. Dapprich, A. D. Daniels, 
 O. Farkas, J. B. Foresman, J. V. Ortiz, J. Cioslowski, 
 and D. J. Fox, Gaussian, Inc., Wallingford CT, 2010.
 
 ******************************************
 Gaussian 09:  EM64L-G09RevB.01 12-Aug-2010
                 3-Aug-2017 
 ******************************************
 %nprocshared=20
 Will use up to   20 processors via shared memory.
 %mem=5GB
 ----------------------------------------------------------
 # m062x/6-311+g(2df,2p) Opt=(ModRedun,Loose) Int(Grid=SG1)
 ----------------------------------------------------------
 1/7=-1,14=-1,18=120,19=15,26=2,38=1/1,3;
 2/9=110,12=2,17=6,18=5,40=1/2;
 3/5=4,6=6,7=214,11=2,16=1,25=1,30=1,71=1,74=-55,75=1/1,2,3;
 4//1;
 5/5=2,38=5/2;
 6/7=2,8=2,9=2,10=2,28=1/1;
 7//1,2,3,16;
 1/7=-1,14=-1,18=20,19=15/3(2);
 2/9=110/2;
 99//99;
 2/9=110/2;
 3/5=4,6=6,7=214,11=2,16=1,25=1,30=1,71=1,74=-55,75=1/1,2,3;
 4/5=5,16=3/1;
 5/5=2,38=5/2;
 7//1,2,3,16;
 1/7=-1,14=-1,18=20,19=15/3(-5);
 2/9=110/2;
 6/7=2,8=2,9=2,10=2,19=2,28=1/1;
 99/9=1/99;
 -------------------------
 [O]O+[O]OC=O_OO+[O]O[C]=O
 -------------------------
 Symbolic Z-matrix:
 Charge =  0 Multiplicity = 3
 C                    -1.1646   -0.455    -0.167 
 O                    -1.4392    0.8729   -0.4793 
 O                    -1.6427   -0.8945    0.8986 
 H                     0.1957   -0.4808    0.044 
 O                    -2.4756    1.5025    0.0735 
 O                     2.6118   -0.3776   -0.0694 
 O                     1.3478   -0.7784   -0.0857 
 H                     2.5668    0.6108   -0.2149 
 
 The following ModRedundant input section has been read:
 B       1       4 F                                                           
 B       1       7 F                                                           
 B       4       7 F                                                           

 GradGradGradGradGradGradGradGradGradGradGradGradGradGradGradGradGradGrad
 Berny optimization.
 Initialization pass.
                           ----------------------------
                           !    Initial Parameters    !
                           ! (Angstroms and Degrees)  !
 --------------------------                            --------------------------
 ! Name  Definition              Value          Derivative Info.                !
 --------------------------------------------------------------------------------
 ! R1    R(1,2)                  1.3915         estimate D2E/DX2                !
 ! R2    R(1,3)                  1.2479         estimate D2E/DX2                !
 ! R3    R(1,4)                  1.3768         Frozen                          !
 ! R4    R(1,7)                  2.5344         Frozen                          !
 ! R5    R(2,5)                  1.3327         estimate D2E/DX2                !
 ! R6    R(4,7)                  1.197          Frozen                          !
 ! R7    R(6,7)                  1.3261         estimate D2E/DX2                !
 ! R8    R(6,8)                  1.0001         estimate D2E/DX2                !
 ! A1    A(2,1,3)              116.881          estimate D2E/DX2                !
 ! A2    A(2,1,4)              104.315          estimate D2E/DX2                !
 ! A3    A(3,1,4)              103.9495         estimate D2E/DX2                !
 ! A4    A(1,2,5)              120.744          estimate D2E/DX2                !
 ! A5    A(1,4,7)              159.8894         estimate D2E/DX2                !
 ! A6    A(7,6,8)              104.7162         estimate D2E/DX2                !
 ! A7    A(4,7,6)              147.2409         estimate D2E/DX2                !
 ! D1    D(3,1,2,5)            -20.7444         estimate D2E/DX2                !
 ! D2    D(4,1,2,5)           -134.8414         estimate D2E/DX2                !
 ! D3    D(2,1,4,7)           -120.8245         estimate D2E/DX2                !
 ! D4    D(3,1,4,7)            116.2061         estimate D2E/DX2                !
 ! D5    D(1,4,7,6)            142.8355         estimate D2E/DX2                !
 ! D6    D(8,6,7,4)            -21.5114         estimate D2E/DX2                !
 --------------------------------------------------------------------------------
 Trust Radius=3.00D-01 FncErr=1.00D-05 GrdErr=1.00D-04
 Number of steps in this run=     31 maximum allowed number of steps=    100.
 GradGradGradGradGradGradGradGradGradGradGradGradGradGradGradGradGradGrad

                          Input orientation:                          
 ---------------------------------------------------------------------
 Center     Atomic      Atomic             Coordinates (Angstroms)
 Number     Number       Type             X           Y           Z
 ---------------------------------------------------------------------
      1          6           0       -1.164600   -0.455000   -0.167000
      2          8           0       -1.439200    0.872900   -0.479300
      3          8           0       -1.642700   -0.894500    0.898600
      4          1           0        0.195700   -0.480800    0.044000
      5          8           0       -2.475600    1.502500    0.073500
      6          8           0        2.611800   -0.377600   -0.069400
      7          8           0        1.347800   -0.778400   -0.085700
      8          1           0        2.566800    0.610800   -0.214900
 ---------------------------------------------------------------------
                    Distance matrix (angstroms):
                    1          2          3          4          5
     1  C    0.000000
     2  O    1.391494   0.000000
     3  O    1.247896   2.250272   0.000000
     4  H    1.376809   2.186148   2.069107   0.000000
     5  O    2.368199   1.332707   2.668356   3.327190   0.000000
     6  O    3.778454   4.259386   4.393743   2.420960   5.425572
     7  O    2.534433   3.263293   3.150463   1.196964   4.454912
     8  H    3.880924   4.023262   4.607136   2.623116   5.128752
                    6          7          8
     6  O    0.000000
     7  O    1.326123   0.000000
     8  H    1.000065   1.852709   0.000000
 Stoichiometry    CH2O5(3)
 Framework group  C1[X(CH2O5)]
 Deg. of freedom    18
 Full point group                 C1      NOp   1
 Largest Abelian subgroup         C1      NOp   1
 Largest concise Abelian subgroup C1      NOp   1
                         Standard orientation:                         
 ---------------------------------------------------------------------
 Center     Atomic      Atomic             Coordinates (Angstroms)
 Number     Number       Type             X           Y           Z
 ---------------------------------------------------------------------
      1          6           0       -0.646602    0.515274    0.468477
      2          8           0       -1.261815   -0.720988    0.296947
      3          8           0       -1.026801    1.442687   -0.274892
      4          1           0        0.659702    0.300878    0.090050
      5          8           0       -2.451373   -0.813468   -0.296776
      6          8           0        2.957886   -0.406677   -0.190604
      7          8           0        1.853365    0.240611    0.155308
      8          1           0        2.649811   -1.329847   -0.420770
 ---------------------------------------------------------------------
 Rotational constants (GHZ):      7.3690487      1.4292637      1.2430380
 Standard basis: 6-311+G(2df,2p) (5D, 7F)
 There are   222 symmetry adapted basis functions of A   symmetry.
 Integral buffers will be    131072 words long.
 Raffenetti 2 integral format.
 Two-electron integral symmetry is turned on.
   222 basis functions,   334 primitive gaussians,   252 cartesian basis functions
    25 alpha electrons       23 beta electrons
       nuclear repulsion energy       218.5855833237 Hartrees.
 NAtoms=    8 NActive=    8 NUniq=    8 SFac= 1.00D+00 NAtFMM=   50 NAOKFM=F Big=F
 One-electron integrals computed using PRISM.
 NBasis=   222 RedAO= T  NBF=   222
 NBsUse=   222 1.00D-06 NBFU=   222
 Harris functional with IExCor= 1009 diagonalized for initial guess.
 ExpMin= 4.38D-02 ExpMax= 8.59D+03 ExpMxC= 1.30D+03 IAcc=2 IRadAn=         1 AccDes= 0.00D+00
 HarFok:  IExCor= 1009 AccDes= 0.00D+00 IRadAn=         1 IDoV= 1
 ScaDFX=  1.000000  1.000000  1.000000  1.000000
 FoFCou: FMM=F IPFlag=           0 FMFlag=      100000 FMFlg1=           0
         NFxFlg=           0 DoJE=T BraDBF=F KetDBF=T FulRan=T
         Omega=  0.000000  0.000000  1.000000  0.000000  0.000000 ICntrl=     500 IOpCl=  0
         NMat0=    1 NMatS0=    1 NMatT0=    0 NMatD0=    1 NMtDS0=    0 NMtDT0=    0
         I1Cent=           4 NGrid=           0.
 Petite list used in FoFCou.
 Initial guess orbital symmetries:
 Alpha Orbitals:
       Occupied  (A) (A) (A) (A) (A) (A) (A) (A) (A) (A) (A) (A)
                 (A) (A) (A) (A) (A) (A) (A) (A) (A) (A) (A) (A)
                 (A)
       Virtual   (A) (A) (A) (A) (A) (A) (A) (A) (A) (A) (A) (A)
                 (A) (A) (A) (A) (A) (A) (A) (A) (A) (A) (A) (A)
                 (A) (A) (A) (A) (A) (A) (A) (A) (A) (A) (A) (A)
                 (A) (A) (A) (A) (A) (A) (A) (A) (A) (A) (A) (A)
                 (A) (A) (A) (A) (A) (A) (A) (A) (A) (A) (A) (A)
                 (A) (A) (A) (A) (A) (A) (A) (A) (A) (A) (A) (A)
                 (A) (A) (A) (A) (A) (A) (A) (A) (A) (A) (A) (A)
                 (A) (A) (A) (A) (A) (A) (A) (A) (A) (A) (A) (A)
                 (A) (A) (A) (A) (A) (A) (A) (A) (A) (A) (A) (A)
                 (A) (A) (A) (A) (A) (A) (A) (A) (A) (A) (A) (A)
                 (A) (A) (A) (A) (A) (A) (A) (A) (A) (A) (A) (A)
                 (A) (A) (A) (A) (A) (A) (A) (A) (A) (A) (A) (A)
                 (A) (A) (A) (A) (A) (A) (A) (A) (A) (A) (A) (A)
                 (A) (A) (A) (A) (A) (A) (A) (A) (A) (A) (A) (A)
                 (A) (A) (A) (A) (A) (A) (A) (A) (A) (A) (A) (A)
                 (A) (A) (A) (A) (A) (A) (A) (A) (A) (A) (A) (A)
                 (A) (A) (A) (A) (A)
 Beta  Orbitals:
       Occupied  (A) (A) (A) (A) (A) (A) (A) (A) (A) (A) (A) (A)
                 (A) (A) (A) (A) (A) (A) (A) (A) (A) (A) (A)
       Virtual   (A) (A) (A) (A) (A) (A) (A) (A) (A) (A) (A) (A)
                 (A) (A) (A) (A) (A) (A) (A) (A) (A) (A) (A) (A)
                 (A) (A) (A) (A) (A) (A) (A) (A) (A) (A) (A) (A)
                 (A) (A) (A) (A) (A) (A) (A) (A) (A) (A) (A) (A)
                 (A) (A) (A) (A) (A) (A) (A) (A) (A) (A) (A) (A)
                 (A) (A) (A) (A) (A) (A) (A) (A) (A) (A) (A) (A)
                 (A) (A) (A) (A) (A) (A) (A) (A) (A) (A) (A) (A)
                 (A) (A) (A) (A) (A) (A) (A) (A) (A) (A) (A) (A)
                 (A) (A) (A) (A) (A) (A) (A) (A) (A) (A) (A) (A)
                 (A) (A) (A) (A) (A) (A) (A) (A) (A) (A) (A) (A)
                 (A) (A) (A) (A) (A) (A) (A) (A) (A) (A) (A) (A)
                 (A) (A) (A) (A) (A) (A) (A) (A) (A) (A) (A) (A)
                 (A) (A) (A) (A) (A) (A) (A) (A) (A) (A) (A) (A)
                 (A) (A) (A) (A) (A) (A) (A) (A) (A) (A) (A) (A)
                 (A) (A) (A) (A) (A) (A) (A) (A) (A) (A) (A) (A)
                 (A) (A) (A) (A) (A) (A) (A) (A) (A) (A) (A) (A)
                 (A) (A) (A) (A) (A) (A) (A)
 The electronic state of the initial guess is 3-A.
 Initial guess <Sx>= 0.0000 <Sy>= 0.0000 <Sz>= 1.0000 <S**2>= 2.0000 S= 1.0000
 Requested convergence on RMS density matrix=1.00D-08 within 128 cycles.
 Requested convergence on MAX density matrix=1.00D-06.
 Requested convergence on             energy=1.00D-06.
 No special actions if energy rises.
 Restarting incremental Fock formation.
 SCF Done:  E(UM062X) =  -415.001027083     A.U. after   30 cycles
             Convg  =    0.5930D-08             -V/T =  2.0030
 <Sx>= 0.0000 <Sy>= 0.0000 <Sz>= 1.0000 <S**2>= 2.0148 S= 1.0049
 <L.S>= 0.000000000000E+00
 Annihilation of the first spin contaminant:
 S**2 before annihilation     2.0148,   after     2.0001

 **********************************************************************

            Population analysis using the SCF density.

 **********************************************************************

 Orbital symmetries:
 Alpha Orbitals:
       Occupied  (A) (A) (A) (A) (A) (A) (A) (A) (A) (A) (A) (A)
                 (A) (A) (A) (A) (A) (A) (A) (A) (A) (A) (A) (A)
                 (A)
       Virtual   (A) (A) (A) (A) (A) (A) (A) (A) (A) (A) (A) (A)
                 (A) (A) (A) (A) (A) (A) (A) (A) (A) (A) (A) (A)
                 (A) (A) (A) (A) (A) (A) (A) (A) (A) (A) (A) (A)
                 (A) (A) (A) (A) (A) (A) (A) (A) (A) (A) (A) (A)
                 (A) (A) (A) (A) (A) (A) (A) (A) (A) (A) (A) (A)
                 (A) (A) (A) (A) (A) (A) (A) (A) (A) (A) (A) (A)
                 (A) (A) (A) (A) (A) (A) (A) (A) (A) (A) (A) (A)
                 (A) (A) (A) (A) (A) (A) (A) (A) (A) (A) (A) (A)
                 (A) (A) (A) (A) (A) (A) (A) (A) (A) (A) (A) (A)
                 (A) (A) (A) (A) (A) (A) (A) (A) (A) (A) (A) (A)
                 (A) (A) (A) (A) (A) (A) (A) (A) (A) (A) (A) (A)
                 (A) (A) (A) (A) (A) (A) (A) (A) (A) (A) (A) (A)
                 (A) (A) (A) (A) (A) (A) (A) (A) (A) (A) (A) (A)
                 (A) (A) (A) (A) (A) (A) (A) (A) (A) (A) (A) (A)
                 (A) (A) (A) (A) (A) (A) (A) (A) (A) (A) (A) (A)
                 (A) (A) (A) (A) (A) (A) (A) (A) (A) (A) (A) (A)
                 (A) (A) (A) (A) (A)
 Beta  Orbitals:
       Occupied  (A) (A) (A) (A) (A) (A) (A) (A) (A) (A) (A) (A)
                 (A) (A) (A) (A) (A) (A) (A) (A) (A) (A) (A)
       Virtual   (A) (A) (A) (A) (A) (A) (A) (A) (A) (A) (A) (A)
                 (A) (A) (A) (A) (A) (A) (A) (A) (A) (A) (A) (A)
                 (A) (A) (A) (A) (A) (A) (A) (A) (A) (A) (A) (A)
                 (A) (A) (A) (A) (A) (A) (A) (A) (A) (A) (A) (A)
                 (A) (A) (A) (A) (A) (A) (A) (A) (A) (A) (A) (A)
                 (A) (A) (A) (A) (A) (A) (A) (A) (A) (A) (A) (A)
                 (A) (A) (A) (A) (A) (A) (A) (A) (A) (A) (A) (A)
                 (A) (A) (A) (A) (A) (A) (A) (A) (A) (A) (A) (A)
                 (A) (A) (A) (A) (A) (A) (A) (A) (A) (A) (A) (A)
                 (A) (A) (A) (A) (A) (A) (A) (A) (A) (A) (A) (A)
                 (A) (A) (A) (A) (A) (A) (A) (A) (A) (A) (A) (A)
                 (A) (A) (A) (A) (A) (A) (A) (A) (A) (A) (A) (A)
                 (A) (A) (A) (A) (A) (A) (A) (A) (A) (A) (A) (A)
                 (A) (A) (A) (A) (A) (A) (A) (A) (A) (A) (A) (A)
                 (A) (A) (A) (A) (A) (A) (A) (A) (A) (A) (A) (A)
                 (A) (A) (A) (A) (A) (A) (A) (A) (A) (A) (A) (A)
                 (A) (A) (A) (A) (A) (A) (A)
 The electronic state is 3-A.
 Alpha  occ. eigenvalues --  -19.84517 -19.81168 -19.74442 -19.71561 -19.63592
 Alpha  occ. eigenvalues --  -10.65703  -1.42690  -1.33160  -1.16020  -1.10401
 Alpha  occ. eigenvalues --   -1.01153  -0.78894  -0.69309  -0.68581  -0.66961
 Alpha  occ. eigenvalues --   -0.60415  -0.58777  -0.56791  -0.51601  -0.49000
 Alpha  occ. eigenvalues --   -0.46381  -0.44845  -0.38882  -0.37662  -0.32447
 Alpha virt. eigenvalues --   -0.03436  -0.01893   0.03318   0.05179   0.06138
 Alpha virt. eigenvalues --    0.07054   0.08699   0.11048   0.12514   0.14021
 Alpha virt. eigenvalues --    0.15142   0.17829   0.18838   0.19519   0.20585
 Alpha virt. eigenvalues --    0.21667   0.22798   0.24202   0.24895   0.26253
 Alpha virt. eigenvalues --    0.27202   0.28655   0.29534   0.30617   0.32379
 Alpha virt. eigenvalues --    0.34078   0.35943   0.38384   0.39829   0.40885
 Alpha virt. eigenvalues --    0.42843   0.47330   0.56481   0.60058   0.60799
 Alpha virt. eigenvalues --    0.65128   0.68012   0.70871   0.72654   0.74245
 Alpha virt. eigenvalues --    0.85137   0.85340   0.90579   0.94208   0.94866
 Alpha virt. eigenvalues --    1.00846   1.02546   1.03654   1.05874   1.07203
 Alpha virt. eigenvalues --    1.08861   1.09364   1.10408   1.11206   1.14128
 Alpha virt. eigenvalues --    1.16058   1.18959   1.22802   1.23132   1.25348
 Alpha virt. eigenvalues --    1.26291   1.28993   1.32574   1.35267   1.45442
 Alpha virt. eigenvalues --    1.46515   1.47475   1.50577   1.52518   1.55704
 Alpha virt. eigenvalues --    1.58303   1.60560   1.63000   1.66516   1.67865
 Alpha virt. eigenvalues --    1.72590   1.76935   1.79527   1.91270   1.95587
 Alpha virt. eigenvalues --    1.99154   2.04336   2.09939   2.12877   2.15549
 Alpha virt. eigenvalues --    2.18597   2.25458   2.26444   2.37613   2.39569
 Alpha virt. eigenvalues --    2.49400   2.54787   2.56803   2.61335   2.73761
 Alpha virt. eigenvalues --    2.89756   3.03236   3.11831   3.20945   3.27410
 Alpha virt. eigenvalues --    3.32875   3.37918   3.44535   3.45578   3.50046
 Alpha virt. eigenvalues --    3.52280   3.53448   3.59349   3.67610   3.70693
 Alpha virt. eigenvalues --    3.73155   3.88662   3.94184   3.95164   3.97740
 Alpha virt. eigenvalues --    4.26952   4.40546   4.50905   4.52518   4.61871
 Alpha virt. eigenvalues --    4.63137   4.73659   4.77057   4.78696   4.89804
 Alpha virt. eigenvalues --    4.91092   4.92779   4.95456   4.99105   4.99777
 Alpha virt. eigenvalues --    5.01148   5.01555   5.03177   5.05794   5.06021
 Alpha virt. eigenvalues --    5.06715   5.08017   5.10226   5.12213   5.12834
 Alpha virt. eigenvalues --    5.15006   5.17879   5.18380   5.23486   5.27979
 Alpha virt. eigenvalues --    5.29108   5.33992   5.36691   5.38616   5.41575
 Alpha virt. eigenvalues --    5.49179   5.51672   5.62527   5.66198   5.79117
 Alpha virt. eigenvalues --    6.11184   6.15185   6.20069   6.29385   6.35725
 Alpha virt. eigenvalues --    6.51177   6.57824   6.58398   6.65936   6.66924
 Alpha virt. eigenvalues --    6.71197   6.75950   6.76594   6.78276   6.79161
 Alpha virt. eigenvalues --    6.83745   6.85673   6.88333   6.91317   6.94315
 Alpha virt. eigenvalues --    7.00769   7.03322   7.07590   7.17034   7.20895
 Alpha virt. eigenvalues --    7.23058   7.30637   7.35005   7.38292   7.45616
 Alpha virt. eigenvalues --    7.57538   7.67282   7.76008   7.86863   7.88870
 Alpha virt. eigenvalues --    7.89815  24.55951  49.82441  49.88058  49.92770
 Alpha virt. eigenvalues --   50.01148  50.16073
  Beta  occ. eigenvalues --  -19.83627 -19.79749 -19.73968 -19.70069 -19.63420
  Beta  occ. eigenvalues --  -10.65787  -1.39129  -1.30385  -1.15152  -1.05561
  Beta  occ. eigenvalues --   -0.96912  -0.77051  -0.67175  -0.65228  -0.57813
  Beta  occ. eigenvalues --   -0.57237  -0.56036  -0.53621  -0.48907  -0.44202
  Beta  occ. eigenvalues --   -0.41320  -0.36266  -0.31636
  Beta virt. eigenvalues --   -0.17211  -0.09266  -0.02312  -0.00283   0.03801
  Beta virt. eigenvalues --    0.05431   0.06260   0.07415   0.09449   0.11622
  Beta virt. eigenvalues --    0.13095   0.14425   0.15549   0.18175   0.19517
  Beta virt. eigenvalues --    0.19784   0.20907   0.22358   0.23228   0.24450
  Beta virt. eigenvalues --    0.25027   0.26412   0.27288   0.28640   0.29715
  Beta virt. eigenvalues --    0.30775   0.32433   0.33835   0.36038   0.38485
  Beta virt. eigenvalues --    0.39810   0.40967   0.43143   0.47438   0.56550
  Beta virt. eigenvalues --    0.60108   0.60814   0.65462   0.68154   0.71324
  Beta virt. eigenvalues --    0.72842   0.74324   0.85259   0.85589   0.90878
  Beta virt. eigenvalues --    0.94943   0.97881   1.02041   1.03421   1.04171
  Beta virt. eigenvalues --    1.07516   1.07919   1.09528   1.10760   1.12195
  Beta virt. eigenvalues --    1.12968   1.15260   1.16836   1.19751   1.23555
  Beta virt. eigenvalues --    1.23873   1.25764   1.26916   1.30004   1.33587
  Beta virt. eigenvalues --    1.36657   1.46706   1.47737   1.49254   1.52163
  Beta virt. eigenvalues --    1.54060   1.56767   1.60424   1.61834   1.63839
  Beta virt. eigenvalues --    1.67601   1.68862   1.73509   1.78216   1.80028
  Beta virt. eigenvalues --    1.91753   1.96201   1.99706   2.04856   2.11043
  Beta virt. eigenvalues --    2.13137   2.16675   2.19653   2.26370   2.27461
  Beta virt. eigenvalues --    2.37692   2.39783   2.49462   2.54944   2.57088
  Beta virt. eigenvalues --    2.61789   2.73737   2.89329   3.03147   3.11553
  Beta virt. eigenvalues --    3.20609   3.26962   3.32310   3.37482   3.44143
  Beta virt. eigenvalues --    3.45210   3.50284   3.52152   3.53246   3.59036
  Beta virt. eigenvalues --    3.67463   3.70709   3.73047   3.88688   3.93980
  Beta virt. eigenvalues --    3.95244   3.97576   4.26799   4.43601   4.53311
  Beta virt. eigenvalues --    4.53763   4.62620   4.64174   4.74263   4.77160
  Beta virt. eigenvalues --    4.80109   4.92331   4.93494   4.95912   4.96385
  Beta virt. eigenvalues --    5.02685   5.03764   5.04573   5.05013   5.05954
  Beta virt. eigenvalues --    5.07182   5.07919   5.07981   5.09553   5.10798
  Beta virt. eigenvalues --    5.14198   5.14721   5.15844   5.18634   5.19174
  Beta virt. eigenvalues --    5.24442   5.28503   5.29999   5.35073   5.37288
  Beta virt. eigenvalues --    5.39730   5.42141   5.49836   5.52659   5.62912
  Beta virt. eigenvalues --    5.66502   5.79961   6.11638   6.15745   6.22724
  Beta virt. eigenvalues --    6.31549   6.36662   6.52127   6.58571   6.65351
  Beta virt. eigenvalues --    6.74015   6.75287   6.78393   6.80692   6.81132
  Beta virt. eigenvalues --    6.82881   6.84887   6.86406   6.88588   6.89740
  Beta virt. eigenvalues --    6.92973   6.95654   7.04242   7.05949   7.10864
  Beta virt. eigenvalues --    7.20709   7.22168   7.25896   7.33477   7.36616
  Beta virt. eigenvalues --    7.39137   7.46340   7.58108   7.66807   7.75981
  Beta virt. eigenvalues --    7.88406   7.89998   7.92306  24.55739  49.81856
  Beta virt. eigenvalues --   49.87461  49.92411  50.00744  50.15816
          Condensed to atoms (all electrons):
              1          2          3          4          5          6
     1  C    5.468581  -0.054302   0.311008   0.395327  -0.002986   0.018862
     2  O   -0.054302   8.007057  -0.051020  -0.047603   0.141463  -0.004064
     3  O    0.311008  -0.051020   8.050940  -0.006950   0.007110  -0.004131
     4  H    0.395327  -0.047603  -0.006950   0.402614   0.009013   0.011941
     5  O   -0.002986   0.141463   0.007110   0.009013   7.948051   0.000887
     6  O    0.018862  -0.004064  -0.004131   0.011941   0.000887   7.575276
     7  O   -0.087637   0.026645   0.005007  -0.048478  -0.004342   0.147900
     8  H    0.003442  -0.000133  -0.000329  -0.000446   0.000005   0.262992
              7          8
     1  C   -0.087637   0.003442
     2  O    0.026645  -0.000133
     3  O    0.005007  -0.000329
     4  H   -0.048478  -0.000446
     5  O   -0.004342   0.000005
     6  O    0.147900   0.262992
     7  O    8.112408  -0.052031
     8  H   -0.052031   0.480770
 Mulliken atomic charges:
              1
     1  C   -0.052296
     2  O   -0.018044
     3  O   -0.311635
     4  H    0.284583
     5  O   -0.099203
     6  O   -0.009663
     7  O   -0.099472
     8  H    0.305730
 Sum of Mulliken atomic charges =   0.00000
 Mulliken charges with hydrogens summed into heavy atoms:
              1
     1  C   -0.052296
     2  O   -0.018044
     3  O   -0.311635
     5  O   -0.099203
     6  O    0.296067
     7  O    0.185111
 Sum of Mulliken charges with hydrogens summed into heavy atoms =   0.00000
          Atomic-Atomic Spin Densities.
              1          2          3          4          5          6
     1  C   -0.094546   0.032256  -0.007828   0.010150  -0.000904   0.001225
     2  O    0.032256   0.259127  -0.003496   0.003422  -0.125935  -0.000395
     3  O   -0.007828  -0.003496   0.112253  -0.009515   0.004549  -0.000165
     4  H    0.010150   0.003422  -0.009515   0.018078  -0.000039   0.003326
     5  O   -0.000904  -0.125935   0.004549  -0.000039   0.910810   0.000132
     6  O    0.001225  -0.000395  -0.000165   0.003326   0.000132   0.475263
     7  O   -0.001353  -0.001482   0.002940  -0.019373  -0.000221  -0.146668
     8  H    0.000000   0.000094  -0.000085   0.000727  -0.000064   0.001922
              7          8
     1  C   -0.001353   0.000000
     2  O   -0.001482   0.000094
     3  O    0.002940  -0.000085
     4  H   -0.019373   0.000727
     5  O   -0.000221  -0.000064
     6  O   -0.146668   0.001922
     7  O    0.848591  -0.001041
     8  H   -0.001041  -0.013935
 Mulliken atomic spin densities:
              1
     1  C   -0.061001
     2  O    0.163592
     3  O    0.098653
     4  H    0.006777
     5  O    0.788331
     6  O    0.334640
     7  O    0.681393
     8  H   -0.012384
 Sum of Mulliken atomic spin densities =   2.00000
 Electronic spatial extent (au):  <R**2>=            831.1610
 Charge=              0.0000 electrons
 Dipole moment (field-independent basis, Debye):
    X=              5.7260    Y=             -3.3028    Z=             -0.1832  Tot=              6.6128
 Quadrupole moment (field-independent basis, Debye-Ang):
   XX=            -31.6587   YY=            -35.0904   ZZ=            -32.7907
   XY=             -5.8645   XZ=             -3.9086   YZ=              2.0219
 Traceless Quadrupole moment (field-independent basis, Debye-Ang):
   XX=              1.5212   YY=             -1.9104   ZZ=              0.3892
   XY=             -5.8645   XZ=             -3.9086   YZ=              2.0219
 Octapole moment (field-independent basis, Debye-Ang**2):
  XXX=             32.0729  YYY=            -14.3403  ZZZ=             -3.0728  XYY=             18.2127
  XXY=            -16.3594  XXZ=             -2.4741  XZZ=              2.4956  YZZ=             -2.1345
  YYZ=             -1.4402  XYZ=              1.4690
 Hexadecapole moment (field-independent basis, Debye-Ang**3):
 XXXX=           -718.0344 YYYY=           -162.6930 ZZZZ=            -45.7434 XXXY=            -44.9665
 XXXZ=            -20.4451 YYYX=            -13.6765 YYYZ=              3.4663 ZZZX=             -0.7376
 ZZZY=             -0.0993 XXYY=           -130.5661 XXZZ=           -123.7226 YYZZ=            -33.4341
 XXYZ=              7.8036 YYXZ=             -6.9758 ZZXY=             -1.4849
 N-N= 2.185855833237D+02 E-N=-2.107024751494D+03  KE= 6.172875409249D+02
                          Isotropic Fermi Contact Couplings
        Atom                 a.u.       MegaHertz       Gauss      10(-4) cm-1
     1  C(13)             -0.04496     -25.26905      -9.01663      -8.42885
     2  O(17)              0.04603     -13.95200      -4.97842      -4.65389
     3  O(17)              0.01954      -5.92188      -2.11307      -1.97533
     4  H(1)               0.00267       5.96388       2.12806       1.98934
     5  O(17)              0.10597     -32.12018     -11.46128     -10.71414
     6  O(17)              0.07984     -24.19883      -8.63474      -8.07186
     7  O(17)              0.14202     -43.04506     -15.35955     -14.35829
     8  H(1)              -0.00654     -14.60944      -5.21301      -4.87319
 --------------------------------------------------------
       Center         ----  Spin Dipole Couplings  ----
                      3XX-RR        3YY-RR        3ZZ-RR
 --------------------------------------------------------
     1   Atom        0.020943      0.037641     -0.058584
     2   Atom       -0.280576     -0.495537      0.776113
     3   Atom        0.052804     -0.070445      0.017641
     4   Atom        0.091632     -0.051501     -0.040131
     5   Atom       -0.710680     -1.635058      2.345738
     6   Atom       -0.928904     -0.605598      1.534503
     7   Atom       -1.509784     -0.683831      2.193616
     8   Atom       -0.039078      0.060965     -0.021887
 --------------------------------------------------------
                        XY            XZ            YZ
 --------------------------------------------------------
     1   Atom        0.010385      0.008176     -0.008227
     2   Atom        0.073753     -0.647850     -0.094005
     3   Atom       -0.144514     -0.239345      0.166131
     4   Atom        0.002707      0.003711     -0.010859
     5   Atom        0.098658     -1.932590     -0.221906
     6   Atom        0.020576      0.004522     -0.786562
     7   Atom        0.055164     -0.032960     -1.714000
     8   Atom        0.021684      0.007546      0.031649
 --------------------------------------------------------


 ---------------------------------------------------------------------------------
              Anisotropic Spin Dipole Couplings in Principal Axis System
 ---------------------------------------------------------------------------------

       Atom             a.u.   MegaHertz   Gauss  10(-4) cm-1        Axes

              Baa    -0.0603    -8.091    -2.887    -2.699 -0.1117  0.0949  0.9892
     1 C(13)  Bbb     0.0175     2.352     0.839     0.784  0.9020 -0.4080  0.1410
              Bcc     0.0428     5.740     2.048     1.915  0.4170  0.9080 -0.0401
 
              Baa    -0.5957    43.106    15.381    14.379  0.8766 -0.2746  0.3952
     2 O(17)  Bbb    -0.4966    35.932    12.822    11.986  0.2183  0.9588  0.1819
              Bcc     1.0923   -79.038   -28.203   -26.364 -0.4288 -0.0732  0.9004
 
              Baa    -0.2161    15.636     5.579     5.216  0.4612 -0.4286  0.7769
     3 O(17)  Bbb    -0.1654    11.969     4.271     3.993  0.6071  0.7910  0.0759
              Bcc     0.3815   -27.605    -9.850    -9.208  0.6471 -0.4367 -0.6250
 
              Baa    -0.0582   -31.049   -11.079   -10.357 -0.0283  0.8541  0.5193
     4 H(1)   Bbb    -0.0336   -17.919    -6.394    -5.977 -0.0141 -0.5198  0.8542
              Bcc     0.0918    48.968    17.473    16.334  0.9995  0.0169  0.0267
 
              Baa    -1.6545   119.721    42.719    39.935  0.6059  0.7226  0.3328
     5 O(17)  Bbb    -1.6388   118.579    42.312    39.554 -0.6660  0.6895 -0.2846
              Bcc     3.2933  -238.300   -85.031   -79.488 -0.4351 -0.0492  0.8990
 
              Baa    -0.9351    67.660    24.143    22.569  0.9596 -0.2676 -0.0870
     6 O(17)  Bbb    -0.8574    62.044    22.139    20.696  0.2814  0.9117  0.2993
              Bcc     1.7925  -129.704   -46.281   -43.264 -0.0008 -0.3117  0.9502
 
              Baa    -1.5353   111.090    39.640    37.056  0.8235 -0.5183 -0.2309
     7 O(17)  Bbb    -1.4581   105.504    37.646    35.192  0.5673  0.7435  0.3541
              Bcc     2.9933  -216.594   -77.286   -72.248 -0.0118 -0.4226  0.9062
 
              Baa    -0.0437   -23.291    -8.311    -7.769  0.9806 -0.1792 -0.0793
     8 H(1)   Bbb    -0.0326   -17.388    -6.205    -5.800  0.0173 -0.3240  0.9459
              Bcc     0.0762    40.679    14.515    13.569  0.1953  0.9289  0.3146
 

 ---------------------------------------------------------------------------------

 Calling FoFJK, ICntrl=      2127 FMM=F ISym2X=0 I1Cent= 0 IOpClX= 1 NMat=1 NMatS=1 NMatT=0.
 ***** Axes restored to original set *****
 -------------------------------------------------------------------
 Center     Atomic                   Forces (Hartrees/Bohr)
 Number     Number              X              Y              Z
 -------------------------------------------------------------------
      1        6           0.024789918   -0.010538933    0.133272677
      2        8          -0.020391260    0.031236891   -0.020386204
      3        8           0.004085360    0.009898062   -0.071356195
      4        1          -0.076481698    0.009580418   -0.040655255
      5        8           0.013928084   -0.019345959   -0.005964375
      6        8          -0.021745708    0.023115332   -0.011772780
      7        8           0.072074812   -0.025430971    0.008127114
      8        1           0.003740492   -0.018514841    0.008735018
 -------------------------------------------------------------------
 Cartesian Forces:  Max     0.133272677 RMS     0.041425179

 GradGradGradGradGradGradGradGradGradGradGradGradGradGradGradGradGradGrad
 Berny optimization.
 Internal  Forces:  Max     0.065999075 RMS     0.026837542
 Search for a local minimum.
 Step number   1 out of a maximum of   31
 All quantities printed in internal units (Hartrees-Bohrs-Radians)
 Mixed Optimization -- RFO/linear search
 Second derivative matrix not updated -- first step.
 ITU=  0
     Eigenvalues ---    0.00230   0.00230   0.01804   0.02272   0.07388
     Eigenvalues ---    0.15561   0.16000   0.16000   0.18591   0.25000
     Eigenvalues ---    0.47060   0.47677   0.58871   0.60431   0.84019
     Eigenvalues --- 1000.000001000.000001000.000001000.000001000.00000
     Eigenvalues --- 1000.00000
 RFO step:  Lambda=-4.87338327D-02 EMin= 2.30000000D-03
 Linear search not attempted -- first point.
 Maximum step size (   0.300) exceeded in Quadratic search.
    -- Step size scaled by   0.801
 Iteration  1 RMS(Cart)=  0.15672820 RMS(Int)=  0.02184327
 Iteration  2 RMS(Cart)=  0.02021482 RMS(Int)=  0.01193656
 Iteration  3 RMS(Cart)=  0.00028172 RMS(Int)=  0.01193536
 Iteration  4 RMS(Cart)=  0.00000671 RMS(Int)=  0.01193536
 Iteration  5 RMS(Cart)=  0.00000023 RMS(Int)=  0.01193536
 Iteration  1 RMS(Cart)=  0.00000000 RMS(Int)=  0.00000000
 Variable       Old X    -DE/DX   Delta X   Delta X   Delta X     New X
                                 (Linear)    (Quad)   (Total)
    R1        2.62954   0.01856   0.00000   0.02862   0.02862   2.65816
    R2        2.35818  -0.06600   0.00000  -0.05946  -0.05946   2.29872
    R3        2.60179  -0.03862   0.00000   0.00000   0.00000   2.60179
    R4        4.78938   0.01143   0.00000   0.00000   0.00000   4.78938
    R5        2.51845  -0.02248   0.00000  -0.02824  -0.02824   2.49021
    R6        2.26193   0.04544   0.00000   0.00000   0.00000   2.26193
    R7        2.50601  -0.01580   0.00000  -0.01938  -0.01938   2.48663
    R8        1.88985  -0.01975   0.00000  -0.03010  -0.03010   1.85975
    A1        2.03996   0.00964   0.00000   0.07736   0.04515   2.08511
    A2        1.82064   0.02668   0.00000   0.15733   0.13228   1.95292
    A3        1.81426   0.03114   0.00000   0.20474   0.17852   1.99278
    A4        2.10738  -0.02450   0.00000  -0.06569  -0.06569   2.04169
    A5        2.79060   0.01160   0.00000   0.00000   0.00000   2.79060
    A6        1.82764   0.00605   0.00000   0.02322   0.02322   1.85086
    A7        2.56984  -0.01791   0.00000  -0.06871  -0.06871   2.50113
    D1       -0.36206   0.02814   0.00000   0.16955   0.17324  -0.18882
    D2       -2.35343  -0.03291   0.00000  -0.22680  -0.23049  -2.58392
    D3       -2.10879   0.01980   0.00000   0.14245   0.15994  -1.94884
    D4        2.02818  -0.01791   0.00000  -0.11289  -0.13038   1.89780
    D5        2.49295   0.00501   0.00000   0.07860   0.07860   2.57155
    D6       -0.37545   0.01063   0.00000   0.11913   0.11913  -0.25631
         Item               Value     Threshold  Converged?
 Maximum Force            0.065999     0.002500     NO 
 RMS     Force            0.025060     0.001667     NO 
 Maximum Displacement     0.303818     0.010000     NO 
 RMS     Displacement     0.158193     0.006667     NO 
 Predicted change in Energy=-2.974590D-02
 GradGradGradGradGradGradGradGradGradGradGradGradGradGradGradGradGradGrad

                          Input orientation:                          
 ---------------------------------------------------------------------
 Center     Atomic      Atomic             Coordinates (Angstroms)
 Number     Number       Type             X           Y           Z
 ---------------------------------------------------------------------
      1          6           0       -1.098286   -0.340231   -0.022049
      2          8           0       -1.492498    0.933118   -0.471278
      3          8           0       -1.700026   -0.863502    0.896534
      4          1           0        0.271191   -0.453013    0.064072
      5          8           0       -2.636374    1.400817   -0.013778
      6          8           0        2.643900   -0.422810   -0.179588
      7          8           0        1.386907   -0.812009   -0.178872
      8          1           0        2.625186    0.557529   -0.095240
 ---------------------------------------------------------------------
                    Distance matrix (angstroms):
                    1          2          3          4          5
     1  C    0.000000
     2  O    1.406637   0.000000
     3  O    1.216429   2.267558   0.000000
     4  H    1.376809   2.306200   2.178805   0.000000
     5  O    2.323151   1.317763   2.613916   3.449156   0.000000
     6  O    3.746410   4.362730   4.496881   2.385378   5.588774
     7  O    2.534433   3.379637   3.269297   1.196964   4.594632
     8  H    3.830871   4.151843   4.659443   2.566685   5.329333
                    6          7          8
     6  O    0.000000
     7  O    1.315868   0.000000
     8  H    0.984139   1.848233   0.000000
 Stoichiometry    CH2O5(3)
 Framework group  C1[X(CH2O5)]
 Deg. of freedom    18
 Full point group                 C1      NOp   1
 Largest Abelian subgroup         C1      NOp   1
 Largest concise Abelian subgroup C1      NOp   1
                         Standard orientation:                         
 ---------------------------------------------------------------------
 Center     Atomic      Atomic             Coordinates (Angstroms)
 Number     Number       Type             X           Y           Z
 ---------------------------------------------------------------------
      1          6           0        0.599838    0.437852   -0.291632
      2          8           0        1.301332   -0.778810   -0.212467
      3          8           0        1.083777    1.440604    0.198256
      4          1           0       -0.742293    0.274495   -0.031629
      5          8           0        2.551531   -0.722322    0.200220
      6          8           0       -3.026806   -0.382591    0.166539
      7          8           0       -1.924685    0.228545   -0.212077
      8          1           0       -2.737935   -1.185014    0.657659
 ---------------------------------------------------------------------
 Rotational constants (GHZ):      8.0511115      1.3559097      1.1854469
 Standard basis: 6-311+G(2df,2p) (5D, 7F)
 There are   222 symmetry adapted basis functions of A   symmetry.
 Integral buffers will be    131072 words long.
 Raffenetti 2 integral format.
 Two-electron integral symmetry is turned on.
   222 basis functions,   334 primitive gaussians,   252 cartesian basis functions
    25 alpha electrons       23 beta electrons
       nuclear repulsion energy       218.0837643776 Hartrees.
 NAtoms=    8 NActive=    8 NUniq=    8 SFac= 1.00D+00 NAtFMM=   50 NAOKFM=F Big=F
 One-electron integrals computed using PRISM.
 NBasis=   222 RedAO= T  NBF=   222
 NBsUse=   222 1.00D-06 NBFU=   222
 Initial guess read from the read-write file.
 B after Tr=     0.000000    0.000000    0.000000
         Rot=    1.000000    0.000000    0.000000    0.000000 Ang=   0.00 deg.
 Initial guess orbital symmetries:
 Alpha Orbitals:
       Occupied  (A) (A) (A) (A) (A) (A) (A) (A) (A) (A) (A) (A)
                 (A) (A) (A) (A) (A) (A) (A) (A) (A) (A) (A) (A)
                 (A)
       Virtual   (A) (A) (A) (A) (A) (A) (A) (A) (A) (A) (A) (A)
                 (A) (A) (A) (A) (A) (A) (A) (A) (A) (A) (A) (A)
                 (A) (A) (A) (A) (A) (A) (A) (A) (A) (A) (A) (A)
                 (A) (A) (A) (A) (A) (A) (A) (A) (A) (A) (A) (A)
                 (A) (A) (A) (A) (A) (A) (A) (A) (A) (A) (A) (A)
                 (A) (A) (A) (A) (A) (A) (A) (A) (A) (A) (A) (A)
                 (A) (A) (A) (A) (A) (A) (A) (A) (A) (A) (A) (A)
                 (A) (A) (A) (A) (A) (A) (A) (A) (A) (A) (A) (A)
                 (A) (A) (A) (A) (A) (A) (A) (A) (A) (A) (A) (A)
                 (A) (A) (A) (A) (A) (A) (A) (A) (A) (A) (A) (A)
                 (A) (A) (A) (A) (A) (A) (A) (A) (A) (A) (A) (A)
                 (A) (A) (A) (A) (A) (A) (A) (A) (A) (A) (A) (A)
                 (A) (A) (A) (A) (A) (A) (A) (A) (A) (A) (A) (A)
                 (A) (A) (A) (A) (A) (A) (A) (A) (A) (A) (A) (A)
                 (A) (A) (A) (A) (A) (A) (A) (A) (A) (A) (A) (A)
                 (A) (A) (A) (A) (A) (A) (A) (A) (A) (A) (A) (A)
                 (A) (A) (A) (A) (A)
 Beta  Orbitals:
       Occupied  (A) (A) (A) (A) (A) (A) (A) (A) (A) (A) (A) (A)
                 (A) (A) (A) (A) (A) (A) (A) (A) (A) (A) (A)
       Virtual   (A) (A) (A) (A) (A) (A) (A) (A) (A) (A) (A) (A)
                 (A) (A) (A) (A) (A) (A) (A) (A) (A) (A) (A) (A)
                 (A) (A) (A) (A) (A) (A) (A) (A) (A) (A) (A) (A)
                 (A) (A) (A) (A) (A) (A) (A) (A) (A) (A) (A) (A)
                 (A) (A) (A) (A) (A) (A) (A) (A) (A) (A) (A) (A)
                 (A) (A) (A) (A) (A) (A) (A) (A) (A) (A) (A) (A)
                 (A) (A) (A) (A) (A) (A) (A) (A) (A) (A) (A) (A)
                 (A) (A) (A) (A) (A) (A) (A) (A) (A) (A) (A) (A)
                 (A) (A) (A) (A) (A) (A) (A) (A) (A) (A) (A) (A)
                 (A) (A) (A) (A) (A) (A) (A) (A) (A) (A) (A) (A)
                 (A) (A) (A) (A) (A) (A) (A) (A) (A) (A) (A) (A)
                 (A) (A) (A) (A) (A) (A) (A) (A) (A) (A) (A) (A)
                 (A) (A) (A) (A) (A) (A) (A) (A) (A) (A) (A) (A)
                 (A) (A) (A) (A) (A) (A) (A) (A) (A) (A) (A) (A)
                 (A) (A) (A) (A) (A) (A) (A) (A) (A) (A) (A) (A)
                 (A) (A) (A) (A) (A) (A) (A) (A) (A) (A) (A) (A)
                 (A) (A) (A) (A) (A) (A) (A)
 Initial guess <Sx>= 0.0000 <Sy>= 0.0000 <Sz>= 1.0000 <S**2>= 2.0248 S= 1.0082
 Harris functional with IExCor= 1009 diagonalized for initial guess.
 ExpMin= 4.38D-02 ExpMax= 8.59D+03 ExpMxC= 1.30D+03 IAcc=2 IRadAn=         1 AccDes= 0.00D+00
 HarFok:  IExCor= 1009 AccDes= 0.00D+00 IRadAn=         1 IDoV= 1
 ScaDFX=  1.000000  1.000000  1.000000  1.000000
 FoFCou: FMM=F IPFlag=           0 FMFlag=      100000 FMFlg1=           0
         NFxFlg=           0 DoJE=T BraDBF=F KetDBF=T FulRan=T
         Omega=  0.000000  0.000000  1.000000  0.000000  0.000000 ICntrl=     500 IOpCl=  0
         NMat0=    1 NMatS0=    1 NMatT0=    0 NMatD0=    1 NMtDS0=    0 NMtDT0=    0
         I1Cent=           4 NGrid=           0.
 Petite list used in FoFCou.
 Requested convergence on RMS density matrix=1.00D-08 within 128 cycles.
 Requested convergence on MAX density matrix=1.00D-06.
 Requested convergence on             energy=1.00D-06.
 No special actions if energy rises.
 Restarting incremental Fock formation.
 SCF Done:  E(UM062X) =  -415.032648517     A.U. after   27 cycles
             Convg  =    0.5353D-08             -V/T =  2.0027
 <Sx>= 0.0000 <Sy>= 0.0000 <Sz>= 1.0000 <S**2>= 2.0113 S= 1.0038
 <L.S>= 0.000000000000E+00
 Annihilation of the first spin contaminant:
 S**2 before annihilation     2.0113,   after     2.0001
 Calling FoFJK, ICntrl=      2127 FMM=F ISym2X=0 I1Cent= 0 IOpClX= 1 NMat=1 NMatS=1 NMatT=0.
 ***** Axes restored to original set *****
 -------------------------------------------------------------------
 Center     Atomic                   Forces (Hartrees/Bohr)
 Number     Number              X              Y              Z
 -------------------------------------------------------------------
      1        6           0.027710783   -0.012788652    0.091613647
      2        8          -0.009894822    0.012544230   -0.014796653
      3        8           0.006452963    0.009139362   -0.045504176
      4        1          -0.094625928    0.024624720   -0.024765099
      5        8           0.007784706   -0.007571106   -0.002726528
      6        8          -0.011506659    0.010793737   -0.005739633
      7        8           0.072876759   -0.029485331   -0.002455320
      8        1           0.001202199   -0.007256961    0.004373761
 -------------------------------------------------------------------
 Cartesian Forces:  Max     0.094625928 RMS     0.034662142

 GradGradGradGradGradGradGradGradGradGradGradGradGradGradGradGradGradGrad
 Berny optimization.
 Using GEDIIS/GDIIS optimizer.
 Internal  Forces:  Max     0.054602707 RMS     0.021467194
 Search for a local minimum.
 Step number   2 out of a maximum of   31
 All quantities printed in internal units (Hartrees-Bohrs-Radians)
 Mixed Optimization -- RFO/linear search
 Update second derivatives using D2CorX and points    1    2
 DE= -3.16D-02 DEPred=-2.97D-02 R= 1.06D+00
 SS=  1.41D+00  RLast= 4.62D-01 DXNew= 5.0454D-01 1.3862D+00
 Trust test= 1.06D+00 RLast= 4.62D-01 DXMaxT set to 5.05D-01
 ITU=  1  0
 Use linear search instead of GDIIS.
     Eigenvalues ---    0.00230   0.00233   0.01804   0.02233   0.04351
     Eigenvalues ---    0.14514   0.15985   0.16643   0.20538   0.25199
     Eigenvalues ---    0.45969   0.47771   0.57709   0.60072   0.74914
     Eigenvalues --- 1000.000001000.000001000.000001000.000001000.00000
     Eigenvalues --- 1000.00000
 RFO step:  Lambda=-5.87209809D-03 EMin= 2.29811560D-03
 Quartic linear search produced a step of  1.13642.
 Iteration  1 RMS(Cart)=  0.11393631 RMS(Int)=  0.05842399
 Iteration  2 RMS(Cart)=  0.06229589 RMS(Int)=  0.03308591
 Iteration  3 RMS(Cart)=  0.00695609 RMS(Int)=  0.03260915
 Iteration  4 RMS(Cart)=  0.00035443 RMS(Int)=  0.03260777
 Iteration  5 RMS(Cart)=  0.00003175 RMS(Int)=  0.03260776
 Iteration  6 RMS(Cart)=  0.00000269 RMS(Int)=  0.03260776
 Iteration  7 RMS(Cart)=  0.00000023 RMS(Int)=  0.03260776
 Iteration  1 RMS(Cart)=  0.00000007 RMS(Int)=  0.00000012
 Variable       Old X    -DE/DX   Delta X   Delta X   Delta X     New X
                                 (Linear)    (Quad)   (Total)
    R1        2.65816   0.01063   0.03252   0.00709   0.03961   2.69777
    R2        2.29872  -0.04147  -0.06757  -0.02627  -0.09385   2.20487
    R3        2.60179  -0.04583   0.00000   0.00000   0.00000   2.60179
    R4        4.78938   0.01245   0.00000   0.00000   0.00000   4.78938
    R5        2.49021  -0.01042  -0.03209   0.00164  -0.03046   2.45976
    R6        2.26193   0.05460   0.00000   0.00000   0.00000   2.26193
    R7        2.48663  -0.00876  -0.02202  -0.00409  -0.02611   2.46052
    R8        1.85975  -0.00681  -0.03420   0.01298  -0.02122   1.83853
    A1        2.08511   0.00239   0.05131   0.03013  -0.00235   2.08276
    A2        1.95292   0.00264   0.15032  -0.09484  -0.02441   1.92850
    A3        1.99278   0.02191   0.20287   0.13202   0.25912   2.25190
    A4        2.04169  -0.00969  -0.07465   0.02530  -0.04935   1.99234
    A5        2.79060   0.00954   0.00000   0.00000   0.00000   2.79059
    A6        1.85086   0.00172   0.02639  -0.02072   0.00567   1.85653
    A7        2.50113  -0.01320  -0.07808  -0.04610  -0.12418   2.37695
    D1       -0.18882   0.01948   0.19687   0.05797   0.23349   0.04467
    D2       -2.58392  -0.02318  -0.26193  -0.07775  -0.31833  -2.90224
    D3       -1.94884   0.01627   0.18176  -0.09111   0.12434  -1.82450
    D4        1.89780  -0.01575  -0.14817  -0.18002  -0.36188   1.53592
    D5        2.57155   0.00371   0.08933  -0.09966  -0.01033   2.56122
    D6       -0.25631   0.00892   0.13538   0.10358   0.23896  -0.01736
         Item               Value     Threshold  Converged?
 Maximum Force            0.041469     0.002500     NO 
 RMS     Force            0.015546     0.001667     NO 
 Maximum Displacement     0.409759     0.010000     NO 
 RMS     Displacement     0.162526     0.006667     NO 
 Predicted change in Energy=-2.424557D-02
 GradGradGradGradGradGradGradGradGradGradGradGradGradGradGradGradGradGrad

                          Input orientation:                          
 ---------------------------------------------------------------------
 Center     Atomic      Atomic             Coordinates (Angstroms)
 Number     Number       Type             X           Y           Z
 ---------------------------------------------------------------------
      1          6           0       -1.032376   -0.276817    0.194786
      2          8           0       -1.410244    0.961144   -0.407468
      3          8           0       -1.819034   -0.873767    0.816206
      4          1           0        0.332381   -0.447099    0.131169
      5          8           0       -2.630358    1.330717   -0.144748
      6          8           0        2.604736   -0.381320   -0.326498
      7          8           0        1.398210   -0.860019   -0.224116
      8          1           0        2.556685    0.547062   -0.039531
 ---------------------------------------------------------------------
                    Distance matrix (angstroms):
                    1          2          3          4          5
     1  C    0.000000
     2  O    1.427599   0.000000
     3  O    1.166767   2.243075   0.000000
     4  H    1.376809   2.304347   2.297804   0.000000
     5  O    2.291941   1.301647   2.537997   3.466205   0.000000
     6  O    3.675764   4.234244   4.595434   2.318919   5.510926
     7  O    2.534433   3.352262   3.381289   1.196964   4.586390
     8  H    3.689856   4.005417   4.679525   2.442340   5.246960
                    6          7          8
     6  O    0.000000
     7  O    1.302052   0.000000
     8  H    0.972909   1.831942   0.000000
 Stoichiometry    CH2O5(3)
 Framework group  C1[X(CH2O5)]
 Deg. of freedom    18
 Full point group                 C1      NOp   1
 Largest Abelian subgroup         C1      NOp   1
 Largest concise Abelian subgroup C1      NOp   1
                         Standard orientation:                         
 ---------------------------------------------------------------------
 Center     Atomic      Atomic             Coordinates (Angstroms)
 Number     Number       Type             X           Y           Z
 ---------------------------------------------------------------------
      1          6           0        0.574914    0.466181   -0.041026
      2          8           0        1.215814   -0.807174   -0.117519
      3          8           0        1.222809    1.423632    0.116660
      4          1           0       -0.788562    0.313469    0.073924
      5          8           0        2.505347   -0.765589    0.054696
      6          8           0       -2.993509   -0.404056    0.101392
      7          8           0       -1.947133    0.298072   -0.226408
      8          1           0       -2.687554   -1.069636    0.741663
 ---------------------------------------------------------------------
 Rotational constants (GHZ):      8.1369213      1.3818269      1.1924973
 Standard basis: 6-311+G(2df,2p) (5D, 7F)
 There are   222 symmetry adapted basis functions of A   symmetry.
 Integral buffers will be    131072 words long.
 Raffenetti 2 integral format.
 Two-electron integral symmetry is turned on.
   222 basis functions,   334 primitive gaussians,   252 cartesian basis functions
    25 alpha electrons       23 beta electrons
       nuclear repulsion energy       220.1438488557 Hartrees.
 NAtoms=    8 NActive=    8 NUniq=    8 SFac= 1.00D+00 NAtFMM=   50 NAOKFM=F Big=F
 One-electron integrals computed using PRISM.
 NBasis=   222 RedAO= T  NBF=   222
 NBsUse=   222 1.00D-06 NBFU=   222
 Initial guess read from the read-write file.
 B after Tr=     0.000000    0.000000    0.000000
         Rot=    1.000000    0.000000    0.000000    0.000000 Ang=   0.00 deg.
 Initial guess orbital symmetries:
 Alpha Orbitals:
       Occupied  (A) (A) (A) (A) (A) (A) (A) (A) (A) (A) (A) (A)
                 (A) (A) (A) (A) (A) (A) (A) (A) (A) (A) (A) (A)
                 (A)
       Virtual   (A) (A) (A) (A) (A) (A) (A) (A) (A) (A) (A) (A)
                 (A) (A) (A) (A) (A) (A) (A) (A) (A) (A) (A) (A)
                 (A) (A) (A) (A) (A) (A) (A) (A) (A) (A) (A) (A)
                 (A) (A) (A) (A) (A) (A) (A) (A) (A) (A) (A) (A)
                 (A) (A) (A) (A) (A) (A) (A) (A) (A) (A) (A) (A)
                 (A) (A) (A) (A) (A) (A) (A) (A) (A) (A) (A) (A)
                 (A) (A) (A) (A) (A) (A) (A) (A) (A) (A) (A) (A)
                 (A) (A) (A) (A) (A) (A) (A) (A) (A) (A) (A) (A)
                 (A) (A) (A) (A) (A) (A) (A) (A) (A) (A) (A) (A)
                 (A) (A) (A) (A) (A) (A) (A) (A) (A) (A) (A) (A)
                 (A) (A) (A) (A) (A) (A) (A) (A) (A) (A) (A) (A)
                 (A) (A) (A) (A) (A) (A) (A) (A) (A) (A) (A) (A)
                 (A) (A) (A) (A) (A) (A) (A) (A) (A) (A) (A) (A)
                 (A) (A) (A) (A) (A) (A) (A) (A) (A) (A) (A) (A)
                 (A) (A) (A) (A) (A) (A) (A) (A) (A) (A) (A) (A)
                 (A) (A) (A) (A) (A) (A) (A) (A) (A) (A) (A) (A)
                 (A) (A) (A) (A) (A)
 Beta  Orbitals:
       Occupied  (A) (A) (A) (A) (A) (A) (A) (A) (A) (A) (A) (A)
                 (A) (A) (A) (A) (A) (A) (A) (A) (A) (A) (A)
       Virtual   (A) (A) (A) (A) (A) (A) (A) (A) (A) (A) (A) (A)
                 (A) (A) (A) (A) (A) (A) (A) (A) (A) (A) (A) (A)
                 (A) (A) (A) (A) (A) (A) (A) (A) (A) (A) (A) (A)
                 (A) (A) (A) (A) (A) (A) (A) (A) (A) (A) (A) (A)
                 (A) (A) (A) (A) (A) (A) (A) (A) (A) (A) (A) (A)
                 (A) (A) (A) (A) (A) (A) (A) (A) (A) (A) (A) (A)
                 (A) (A) (A) (A) (A) (A) (A) (A) (A) (A) (A) (A)
                 (A) (A) (A) (A) (A) (A) (A) (A) (A) (A) (A) (A)
                 (A) (A) (A) (A) (A) (A) (A) (A) (A) (A) (A) (A)
                 (A) (A) (A) (A) (A) (A) (A) (A) (A) (A) (A) (A)
                 (A) (A) (A) (A) (A) (A) (A) (A) (A) (A) (A) (A)
                 (A) (A) (A) (A) (A) (A) (A) (A) (A) (A) (A) (A)
                 (A) (A) (A) (A) (A) (A) (A) (A) (A) (A) (A) (A)
                 (A) (A) (A) (A) (A) (A) (A) (A) (A) (A) (A) (A)
                 (A) (A) (A) (A) (A) (A) (A) (A) (A) (A) (A) (A)
                 (A) (A) (A) (A) (A) (A) (A) (A) (A) (A) (A) (A)
                 (A) (A) (A) (A) (A) (A) (A)
 Initial guess <Sx>= 0.0000 <Sy>= 0.0000 <Sz>= 1.0000 <S**2>= 2.0113 S= 1.0038
 Harris functional with IExCor= 1009 diagonalized for initial guess.
 ExpMin= 4.38D-02 ExpMax= 8.59D+03 ExpMxC= 1.30D+03 IAcc=2 IRadAn=         1 AccDes= 0.00D+00
 HarFok:  IExCor= 1009 AccDes= 0.00D+00 IRadAn=         1 IDoV= 1
 ScaDFX=  1.000000  1.000000  1.000000  1.000000
 FoFCou: FMM=F IPFlag=           0 FMFlag=      100000 FMFlg1=           0
         NFxFlg=           0 DoJE=T BraDBF=F KetDBF=T FulRan=T
         Omega=  0.000000  0.000000  1.000000  0.000000  0.000000 ICntrl=     500 IOpCl=  0
         NMat0=    1 NMatS0=    1 NMatT0=    0 NMatD0=    1 NMtDS0=    0 NMtDT0=    0
         I1Cent=           4 NGrid=           0.
 Petite list used in FoFCou.
 Requested convergence on RMS density matrix=1.00D-08 within 128 cycles.
 Requested convergence on MAX density matrix=1.00D-06.
 Requested convergence on             energy=1.00D-06.
 No special actions if energy rises.
 Restarting incremental Fock formation.
 SCF Done:  E(UM062X) =  -415.055052901     A.U. after   24 cycles
             Convg  =    0.6461D-08             -V/T =  2.0022
 <Sx>= 0.0000 <Sy>= 0.0000 <Sz>= 1.0000 <S**2>= 2.0101 S= 1.0034
 <L.S>= 0.000000000000E+00
 Annihilation of the first spin contaminant:
 S**2 before annihilation     2.0101,   after     2.0001
 Calling FoFJK, ICntrl=      2127 FMM=F ISym2X=0 I1Cent= 0 IOpClX= 1 NMat=1 NMatS=1 NMatT=0.
 ***** Axes restored to original set *****
 -------------------------------------------------------------------
 Center     Atomic                   Forces (Hartrees/Bohr)
 Number     Number              X              Y              Z
 -------------------------------------------------------------------
      1        6           0.046766800    0.006979217    0.008709934
      2        8           0.002787065    0.009498844   -0.009591811
      3        8          -0.014279981   -0.019611455    0.009476417
      4        1          -0.092739446    0.029846145    0.003376882
      5        8          -0.001949082    0.001610809   -0.001445480
      6        8          -0.000762976    0.008330453   -0.012141750
      7        8           0.057236164   -0.038482663   -0.005789961
      8        1           0.002941456    0.001828650    0.007405768
 -------------------------------------------------------------------
 Cartesian Forces:  Max     0.092739446 RMS     0.027207518

 GradGradGradGradGradGradGradGradGradGradGradGradGradGradGradGradGradGrad
 Berny optimization.
 Using GEDIIS/GDIIS optimizer.
 Internal  Forces:  Max     0.054463930 RMS     0.017762014
 Search for a local minimum.
 Step number   3 out of a maximum of   31
 All quantities printed in internal units (Hartrees-Bohrs-Radians)
 Mixed Optimization -- RFO/linear search
 Update second derivatives using D2CorX and points    2    3
 DE= -2.24D-02 DEPred=-2.42D-02 R= 9.24D-01
 SS=  1.41D+00  RLast= 6.76D-01 DXNew= 8.4853D-01 2.0293D+00
 Trust test= 9.24D-01 RLast= 6.76D-01 DXMaxT set to 8.49D-01
 ITU=  1  1  0
 Use linear search instead of GDIIS.
     Eigenvalues ---    0.00231   0.00233   0.01780   0.01862   0.03715
     Eigenvalues ---    0.11391   0.15997   0.16851   0.22672   0.26050
     Eigenvalues ---    0.44737   0.48260   0.58477   0.60571   0.81552
     Eigenvalues --- 1000.000001000.000001000.000001000.000001000.00000
     Eigenvalues --- 1000.00000
 RFO step:  Lambda=-1.07907184D-02 EMin= 2.30846558D-03
 Quartic linear search produced a step of  0.27068.
 Iteration  1 RMS(Cart)=  0.13168149 RMS(Int)=  0.06005649
 Iteration  2 RMS(Cart)=  0.06431267 RMS(Int)=  0.01877652
 Iteration  3 RMS(Cart)=  0.01983559 RMS(Int)=  0.01150418
 Iteration  4 RMS(Cart)=  0.00055020 RMS(Int)=  0.01148737
 Iteration  5 RMS(Cart)=  0.00000054 RMS(Int)=  0.01148737
 Iteration  1 RMS(Cart)=  0.00000012 RMS(Int)=  0.00000021
 Variable       Old X    -DE/DX   Delta X   Delta X   Delta X     New X
                                 (Linear)    (Quad)   (Total)
    R1        2.69777   0.01403   0.01072   0.03285   0.04357   2.74135
    R2        2.20487   0.02469  -0.02540   0.04029   0.01488   2.21975
    R3        2.60179  -0.04422   0.00000   0.00000   0.00000   2.60179
    R4        4.78938   0.01149   0.00000   0.00000   0.00000   4.78938
    R5        2.45976   0.00202  -0.00824   0.00686  -0.00139   2.45837
    R6        2.26193   0.05446   0.00000   0.00000   0.00000   2.26193
    R7        2.46052   0.00615  -0.00707   0.01402   0.00695   2.46747
    R8        1.83853   0.00385  -0.00574   0.01291   0.00716   1.84570
    A1        2.08276   0.01069  -0.00064   0.06702   0.03793   2.12070
    A2        1.92850  -0.00811  -0.00661  -0.04078  -0.07632   1.85218
    A3        2.25190  -0.00034   0.07014   0.01090   0.05125   2.30315
    A4        1.99234   0.00447  -0.01336   0.02953   0.01617   2.00851
    A5        2.79059   0.00383   0.00000   0.00000   0.00000   2.79059
    A6        1.85653   0.00331   0.00153   0.02011   0.02165   1.87818
    A7        2.37695  -0.01334  -0.03361  -0.08465  -0.11827   2.25868
    D1        0.04467   0.00422   0.06320   0.06304   0.11666   0.16133
    D2       -2.90224  -0.00630  -0.08616  -0.11536  -0.19195  -3.09419
    D3       -1.82450   0.00656   0.03366   0.12535   0.16416  -1.66034
    D4        1.53592  -0.00671  -0.09795  -0.08227  -0.18538   1.35054
    D5        2.56122  -0.00002  -0.00280  -0.06124  -0.06403   2.49719
    D6       -0.01736   0.01260   0.06468   0.38742   0.45211   0.43475
         Item               Value     Threshold  Converged?
 Maximum Force            0.024693     0.002500     NO 
 RMS     Force            0.009299     0.001667     NO 
 Maximum Displacement     0.340268     0.010000     NO 
 RMS     Displacement     0.164647     0.006667     NO 
 Predicted change in Energy=-9.012759D-03
 GradGradGradGradGradGradGradGradGradGradGradGradGradGradGradGradGradGrad

                          Input orientation:                          
 ---------------------------------------------------------------------
 Center     Atomic      Atomic             Coordinates (Angstroms)
 Number     Number       Type             X           Y           Z
 ---------------------------------------------------------------------
      1          6           0       -1.004114   -0.250505    0.347349
      2          8           0       -1.347572    0.942694   -0.402797
      3          8           0       -1.827741   -0.906859    0.867564
      4          1           0        0.344555   -0.448707    0.153930
      5          8           0       -2.586624    1.324166   -0.295070
      6          8           0        2.503343   -0.262886   -0.499792
      7          8           0        1.363148   -0.870822   -0.311914
      8          1           0        2.555006    0.472818    0.140531
 ---------------------------------------------------------------------
                    Distance matrix (angstroms):
                    1          2          3          4          5
     1  C    0.000000
     2  O    1.450658   0.000000
     3  O    1.174643   2.294608   0.000000
     4  H    1.376809   2.260362   2.331962   0.000000
     5  O    2.323065   1.300914   2.627755   3.454923   0.000000
     6  O    3.608332   4.036382   4.587227   2.263238   5.335580
     7  O    2.534433   3.262683   3.402094   1.196964   4.518734
     8  H    3.637761   3.968136   4.651941   2.394886   5.229809
                    6          7          8
     6  O    0.000000
     7  O    1.305729   0.000000
     8  H    0.976701   1.852188   0.000000
 Stoichiometry    CH2O5(3)
 Framework group  C1[X(CH2O5)]
 Deg. of freedom    18
 Full point group                 C1      NOp   1
 Largest Abelian subgroup         C1      NOp   1
 Largest concise Abelian subgroup C1      NOp   1
                         Standard orientation:                         
 ---------------------------------------------------------------------
 Center     Atomic      Atomic             Coordinates (Angstroms)
 Number     Number       Type             X           Y           Z
 ---------------------------------------------------------------------
      1          6           0        0.577143    0.524339    0.101726
      2          8           0        1.127899   -0.808968   -0.051143
      3          8           0        1.262067    1.478248    0.074838
      4          1           0       -0.791350    0.373691    0.113290
      5          8           0        2.426936   -0.874955   -0.028187
      6          8           0       -2.892103   -0.467394    0.072511
      7          8           0       -1.920731    0.330414   -0.280855
      8          1           0       -2.704056   -0.778482    0.979046
 ---------------------------------------------------------------------
 Rotational constants (GHZ):      7.2715551      1.4552377      1.2275912
 Standard basis: 6-311+G(2df,2p) (5D, 7F)
 There are   222 symmetry adapted basis functions of A   symmetry.
 Integral buffers will be    131072 words long.
 Raffenetti 2 integral format.
 Two-electron integral symmetry is turned on.
   222 basis functions,   334 primitive gaussians,   252 cartesian basis functions
    25 alpha electrons       23 beta electrons
       nuclear repulsion energy       219.8262022079 Hartrees.
 NAtoms=    8 NActive=    8 NUniq=    8 SFac= 1.00D+00 NAtFMM=   50 NAOKFM=F Big=F
 One-electron integrals computed using PRISM.
 NBasis=   222 RedAO= T  NBF=   222
 NBsUse=   222 1.00D-06 NBFU=   222
 Initial guess read from the read-write file.
 B after Tr=     0.000000    0.000000    0.000000
         Rot=    1.000000    0.000000    0.000000    0.000000 Ang=   0.00 deg.
 Initial guess orbital symmetries:
 Alpha Orbitals:
       Occupied  (A) (A) (A) (A) (A) (A) (A) (A) (A) (A) (A) (A)
                 (A) (A) (A) (A) (A) (A) (A) (A) (A) (A) (A) (A)
                 (A)
       Virtual   (A) (A) (A) (A) (A) (A) (A) (A) (A) (A) (A) (A)
                 (A) (A) (A) (A) (A) (A) (A) (A) (A) (A) (A) (A)
                 (A) (A) (A) (A) (A) (A) (A) (A) (A) (A) (A) (A)
                 (A) (A) (A) (A) (A) (A) (A) (A) (A) (A) (A) (A)
                 (A) (A) (A) (A) (A) (A) (A) (A) (A) (A) (A) (A)
                 (A) (A) (A) (A) (A) (A) (A) (A) (A) (A) (A) (A)
                 (A) (A) (A) (A) (A) (A) (A) (A) (A) (A) (A) (A)
                 (A) (A) (A) (A) (A) (A) (A) (A) (A) (A) (A) (A)
                 (A) (A) (A) (A) (A) (A) (A) (A) (A) (A) (A) (A)
                 (A) (A) (A) (A) (A) (A) (A) (A) (A) (A) (A) (A)
                 (A) (A) (A) (A) (A) (A) (A) (A) (A) (A) (A) (A)
                 (A) (A) (A) (A) (A) (A) (A) (A) (A) (A) (A) (A)
                 (A) (A) (A) (A) (A) (A) (A) (A) (A) (A) (A) (A)
                 (A) (A) (A) (A) (A) (A) (A) (A) (A) (A) (A) (A)
                 (A) (A) (A) (A) (A) (A) (A) (A) (A) (A) (A) (A)
                 (A) (A) (A) (A) (A) (A) (A) (A) (A) (A) (A) (A)
                 (A) (A) (A) (A) (A)
 Beta  Orbitals:
       Occupied  (A) (A) (A) (A) (A) (A) (A) (A) (A) (A) (A) (A)
                 (A) (A) (A) (A) (A) (A) (A) (A) (A) (A) (A)
       Virtual   (A) (A) (A) (A) (A) (A) (A) (A) (A) (A) (A) (A)
                 (A) (A) (A) (A) (A) (A) (A) (A) (A) (A) (A) (A)
                 (A) (A) (A) (A) (A) (A) (A) (A) (A) (A) (A) (A)
                 (A) (A) (A) (A) (A) (A) (A) (A) (A) (A) (A) (A)
                 (A) (A) (A) (A) (A) (A) (A) (A) (A) (A) (A) (A)
                 (A) (A) (A) (A) (A) (A) (A) (A) (A) (A) (A) (A)
                 (A) (A) (A) (A) (A) (A) (A) (A) (A) (A) (A) (A)
                 (A) (A) (A) (A) (A) (A) (A) (A) (A) (A) (A) (A)
                 (A) (A) (A) (A) (A) (A) (A) (A) (A) (A) (A) (A)
                 (A) (A) (A) (A) (A) (A) (A) (A) (A) (A) (A) (A)
                 (A) (A) (A) (A) (A) (A) (A) (A) (A) (A) (A) (A)
                 (A) (A) (A) (A) (A) (A) (A) (A) (A) (A) (A) (A)
                 (A) (A) (A) (A) (A) (A) (A) (A) (A) (A) (A) (A)
                 (A) (A) (A) (A) (A) (A) (A) (A) (A) (A) (A) (A)
                 (A) (A) (A) (A) (A) (A) (A) (A) (A) (A) (A) (A)
                 (A) (A) (A) (A) (A) (A) (A) (A) (A) (A) (A) (A)
                 (A) (A) (A) (A) (A) (A) (A)
 Initial guess <Sx>= 0.0000 <Sy>= 0.0000 <Sz>= 1.0000 <S**2>= 2.0102 S= 1.0034
 Harris functional with IExCor= 1009 diagonalized for initial guess.
 ExpMin= 4.38D-02 ExpMax= 8.59D+03 ExpMxC= 1.30D+03 IAcc=2 IRadAn=         1 AccDes= 0.00D+00
 HarFok:  IExCor= 1009 AccDes= 0.00D+00 IRadAn=         1 IDoV= 1
 ScaDFX=  1.000000  1.000000  1.000000  1.000000
 FoFCou: FMM=F IPFlag=           0 FMFlag=      100000 FMFlg1=           0
         NFxFlg=           0 DoJE=T BraDBF=F KetDBF=T FulRan=T
         Omega=  0.000000  0.000000  1.000000  0.000000  0.000000 ICntrl=     500 IOpCl=  0
         NMat0=    1 NMatS0=    1 NMatT0=    0 NMatD0=    1 NMtDS0=    0 NMtDT0=    0
         I1Cent=           4 NGrid=           0.
 Petite list used in FoFCou.
 Requested convergence on RMS density matrix=1.00D-08 within 128 cycles.
 Requested convergence on MAX density matrix=1.00D-06.
 Requested convergence on             energy=1.00D-06.
 No special actions if energy rises.
 Restarting incremental Fock formation.
 SCF Done:  E(UM062X) =  -415.065591422     A.U. after   23 cycles
             Convg  =    0.6119D-08             -V/T =  2.0026
 <Sx>= 0.0000 <Sy>= 0.0000 <Sz>= 1.0000 <S**2>= 2.0134 S= 1.0045
 <L.S>= 0.000000000000E+00
 Annihilation of the first spin contaminant:
 S**2 before annihilation     2.0134,   after     2.0001
 Calling FoFJK, ICntrl=      2127 FMM=F ISym2X=0 I1Cent= 0 IOpClX= 1 NMat=1 NMatS=1 NMatT=0.
 ***** Axes restored to original set *****
 -------------------------------------------------------------------
 Center     Atomic                   Forces (Hartrees/Bohr)
 Number     Number              X              Y              Z
 -------------------------------------------------------------------
      1        6           0.009777359   -0.003647784   -0.009884036
      2        8           0.004499066    0.002188655    0.002179612
      3        8           0.010694678    0.004625548    0.000155623
      4        1          -0.055742406    0.021254534    0.014305671
      5        8           0.000463941   -0.003129070    0.000831705
      6        8           0.006463481    0.027051538   -0.009337808
      7        8           0.020904658   -0.040575362   -0.001606509
      8        1           0.002939222   -0.007768058    0.003355743
 -------------------------------------------------------------------
 Cartesian Forces:  Max     0.055742406 RMS     0.017288535

 GradGradGradGradGradGradGradGradGradGradGradGradGradGradGradGradGradGrad
 Berny optimization.
 Using GEDIIS/GDIIS optimizer.
 Internal  Forces:  Max     0.032451878 RMS     0.012600412
 Search for a local minimum.
 Step number   4 out of a maximum of   31
 All quantities printed in internal units (Hartrees-Bohrs-Radians)
 Mixed Optimization -- RFO/linear search
 Update second derivatives using D2CorX and points    3    4
 DE= -1.05D-02 DEPred=-9.01D-03 R= 1.17D+00
 SS=  1.41D+00  RLast= 5.89D-01 DXNew= 1.4270D+00 1.7674D+00
 Trust test= 1.17D+00 RLast= 5.89D-01 DXMaxT set to 1.43D+00
 ITU=  1  1  1  0
 Use linear search instead of GDIIS.
     Eigenvalues ---    0.00229   0.00236   0.00526   0.01813   0.06368
     Eigenvalues ---    0.10902   0.16297   0.18102   0.22141   0.27395
     Eigenvalues ---    0.45438   0.49361   0.58174   0.61118   1.00601
     Eigenvalues --- 1000.000001000.000001000.000001000.000001000.00000
     Eigenvalues --- 1000.00000
 RFO step:  Lambda=-1.72013357D-02 EMin= 2.28836610D-03
 Quartic linear search produced a step of  0.81784.
 Iteration  1 RMS(Cart)=  0.17961198 RMS(Int)=  0.15833184
 Iteration  2 RMS(Cart)=  0.09225754 RMS(Int)=  0.11113577
 Iteration  3 RMS(Cart)=  0.06641478 RMS(Int)=  0.06767407
 Iteration  4 RMS(Cart)=  0.06562783 RMS(Int)=  0.02560593
 Iteration  5 RMS(Cart)=  0.03475972 RMS(Int)=  0.00909562
 Iteration  6 RMS(Cart)=  0.00166292 RMS(Int)=  0.00889422
 Iteration  7 RMS(Cart)=  0.00000318 RMS(Int)=  0.00889422
 Iteration  8 RMS(Cart)=  0.00000000 RMS(Int)=  0.00889422
 Iteration  1 RMS(Cart)=  0.00000017 RMS(Int)=  0.00000030
 Variable       Old X    -DE/DX   Delta X   Delta X   Delta X     New X
                                 (Linear)    (Quad)   (Total)
    R1        2.74135  -0.00339   0.03564   0.03294   0.06858   2.80992
    R2        2.21975  -0.01003   0.01217  -0.03196  -0.01979   2.19996
    R3        2.60179  -0.02972   0.00000   0.00000   0.00000   2.60179
    R4        4.78938   0.00391   0.00000   0.00000   0.00000   4.78938
    R5        2.45837  -0.00132  -0.00113  -0.01500  -0.01613   2.44224
    R6        2.26193   0.03245   0.00000   0.00000   0.00000   2.26193
    R7        2.46747   0.01798   0.00568   0.02512   0.03080   2.49828
    R8        1.84570  -0.00356   0.00586  -0.01408  -0.00822   1.83747
    A1        2.12070   0.00486   0.03102   0.02251   0.03146   2.15216
    A2        1.85218   0.00075  -0.06242  -0.04962  -0.13450   1.71768
    A3        2.30315  -0.00490   0.04191   0.03089   0.04913   2.35228
    A4        2.00851  -0.00672   0.01322  -0.04117  -0.02794   1.98057
    A5        2.79059   0.00322   0.00000   0.00000   0.00000   2.79059
    A6        1.87818  -0.00092   0.01770   0.01377   0.03147   1.90965
    A7        2.25868  -0.02387  -0.09672  -0.23872  -0.33544   1.92324
    D1        0.16133  -0.00375   0.09541  -0.06661   0.02150   0.18283
    D2       -3.09419   0.00148  -0.15698  -0.03506  -0.18474   3.00425
    D3       -1.66034  -0.00357   0.13426  -0.01422   0.11874  -1.54160
    D4        1.35054   0.00341  -0.15161   0.02019  -0.13012   1.22042
    D5        2.49719  -0.00249  -0.05237  -0.07925  -0.13162   2.36557
    D6        0.43475   0.01454   0.36975   0.51709   0.88684   1.32159
         Item               Value     Threshold  Converged?
 Maximum Force            0.023873     0.002500     NO 
 RMS     Force            0.008731     0.001667     NO 
 Maximum Displacement     0.627517     0.010000     NO 
 RMS     Displacement     0.253259     0.006667     NO 
 Predicted change in Energy=-1.615102D-02
 GradGradGradGradGradGradGradGradGradGradGradGradGradGradGradGradGradGrad

                          Input orientation:                          
 ---------------------------------------------------------------------
 Center     Atomic      Atomic             Coordinates (Angstroms)
 Number     Number       Type             X           Y           Z
 ---------------------------------------------------------------------
      1          6           0       -0.978096   -0.251046    0.483540
      2          8           0       -1.218857    0.912006   -0.411087
      3          8           0       -1.833970   -0.898315    0.935001
      4          1           0        0.345329   -0.472130    0.174875
      5          8           0       -2.459692    1.268625   -0.469315
      6          8           0        2.191106    0.069181   -0.582130
      7          8           0        1.312371   -0.899004   -0.386668
      8          1           0        2.641809    0.270583    0.255584
 ---------------------------------------------------------------------
                    Distance matrix (angstroms):
                    1          2          3          4          5
     1  C    0.000000
     2  O    1.486947   0.000000
     3  O    1.164171   2.338285   0.000000
     4  H    1.376809   2.169299   2.347076   0.000000
     5  O    2.326469   1.292378   2.656927   3.363532   0.000000
     6  O    3.358874   3.516739   4.408965   2.067116   4.804301
     7  O    2.534433   3.112470   3.412663   1.196964   4.351311
     8  H    3.664393   3.969964   4.675524   2.414945   5.248512
                    6          7          8
     6  O    0.000000
     7  O    1.322030   0.000000
     8  H    0.972349   1.883568   0.000000
 Stoichiometry    CH2O5(3)
 Framework group  C1[X(CH2O5)]
 Deg. of freedom    18
 Full point group                 C1      NOp   1
 Largest Abelian subgroup         C1      NOp   1
 Largest concise Abelian subgroup C1      NOp   1
                         Standard orientation:                         
 ---------------------------------------------------------------------
 Center     Atomic      Atomic             Coordinates (Angstroms)
 Number     Number       Type             X           Y           Z
 ---------------------------------------------------------------------
      1          6           0        0.572474    0.614747    0.200105
      2          8           0        0.940650   -0.813811    0.013876
      3          8           0        1.325564    1.492030    0.064004
      4          1           0       -0.794454    0.485488    0.098105
      5          8           0        2.213355   -1.006727   -0.101210
      6          8           0       -2.566397   -0.578636    0.126867
      7          8           0       -1.884419    0.427470   -0.393152
      8          1           0       -2.870417   -0.336580    1.018182
 ---------------------------------------------------------------------
 Rotational constants (GHZ):      6.3150822      1.6847122      1.3618279
 Standard basis: 6-311+G(2df,2p) (5D, 7F)
 There are   222 symmetry adapted basis functions of A   symmetry.
 Integral buffers will be    131072 words long.
 Raffenetti 2 integral format.
 Two-electron integral symmetry is turned on.
   222 basis functions,   334 primitive gaussians,   252 cartesian basis functions
    25 alpha electrons       23 beta electrons
       nuclear repulsion energy       222.7767447007 Hartrees.
 NAtoms=    8 NActive=    8 NUniq=    8 SFac= 1.00D+00 NAtFMM=   50 NAOKFM=F Big=F
 One-electron integrals computed using PRISM.
 NBasis=   222 RedAO= T  NBF=   222
 NBsUse=   222 1.00D-06 NBFU=   222
 Initial guess read from the read-write file.
 B after Tr=     0.000000    0.000000    0.000000
         Rot=    1.000000    0.000000    0.000000    0.000000 Ang=   0.00 deg.
 Initial guess orbital symmetries:
 Alpha Orbitals:
       Occupied  (A) (A) (A) (A) (A) (A) (A) (A) (A) (A) (A) (A)
                 (A) (A) (A) (A) (A) (A) (A) (A) (A) (A) (A) (A)
                 (A)
       Virtual   (A) (A) (A) (A) (A) (A) (A) (A) (A) (A) (A) (A)
                 (A) (A) (A) (A) (A) (A) (A) (A) (A) (A) (A) (A)
                 (A) (A) (A) (A) (A) (A) (A) (A) (A) (A) (A) (A)
                 (A) (A) (A) (A) (A) (A) (A) (A) (A) (A) (A) (A)
                 (A) (A) (A) (A) (A) (A) (A) (A) (A) (A) (A) (A)
                 (A) (A) (A) (A) (A) (A) (A) (A) (A) (A) (A) (A)
                 (A) (A) (A) (A) (A) (A) (A) (A) (A) (A) (A) (A)
                 (A) (A) (A) (A) (A) (A) (A) (A) (A) (A) (A) (A)
                 (A) (A) (A) (A) (A) (A) (A) (A) (A) (A) (A) (A)
[...]
 ---------------------------------------------------------------------
 Rotational constants (GHZ):      6.0318359      1.9094339      1.5253622

 **********************************************************************

            Population analysis using the SCF density.

 **********************************************************************

 Orbital symmetries:
 Alpha Orbitals:
       Occupied  (A) (A) (A) (A) (A) (A) (A) (A) (A) (A) (A) (A)
                 (A) (A) (A) (A) (A) (A) (A) (A) (A) (A) (A) (A)
                 (A)
       Virtual   (A) (A) (A) (A) (A) (A) (A) (A) (A) (A) (A) (A)
                 (A) (A) (A) (A) (A) (A) (A) (A) (A) (A) (A) (A)
                 (A) (A) (A) (A) (A) (A) (A) (A) (A) (A) (A) (A)
                 (A) (A) (A) (A) (A) (A) (A) (A) (A) (A) (A) (A)
                 (A) (A) (A) (A) (A) (A) (A) (A) (A) (A) (A) (A)
                 (A) (A) (A) (A) (A) (A) (A) (A) (A) (A) (A) (A)
                 (A) (A) (A) (A) (A) (A) (A) (A) (A) (A) (A) (A)
                 (A) (A) (A) (A) (A) (A) (A) (A) (A) (A) (A) (A)
                 (A) (A) (A) (A) (A) (A) (A) (A) (A) (A) (A) (A)
                 (A) (A) (A) (A) (A) (A) (A) (A) (A) (A) (A) (A)
                 (A) (A) (A) (A) (A) (A) (A) (A) (A) (A) (A) (A)
                 (A) (A) (A) (A) (A) (A) (A) (A) (A) (A) (A) (A)
                 (A) (A) (A) (A) (A) (A) (A) (A) (A) (A) (A) (A)
                 (A) (A) (A) (A) (A) (A) (A) (A) (A) (A) (A) (A)
                 (A) (A) (A) (A) (A) (A) (A) (A) (A) (A) (A) (A)
                 (A) (A) (A) (A) (A) (A) (A) (A) (A) (A) (A) (A)
                 (A) (A) (A) (A) (A)
 Beta  Orbitals:
       Occupied  (A) (A) (A) (A) (A) (A) (A) (A) (A) (A) (A) (A)
                 (A) (A) (A) (A) (A) (A) (A) (A) (A) (A) (A)
       Virtual   (A) (A) (A) (A) (A) (A) (A) (A) (A) (A) (A) (A)
                 (A) (A) (A) (A) (A) (A) (A) (A) (A) (A) (A) (A)
                 (A) (A) (A) (A) (A) (A) (A) (A) (A) (A) (A) (A)
                 (A) (A) (A) (A) (A) (A) (A) (A) (A) (A) (A) (A)
                 (A) (A) (A) (A) (A) (A) (A) (A) (A) (A) (A) (A)
                 (A) (A) (A) (A) (A) (A) (A) (A) (A) (A) (A) (A)
                 (A) (A) (A) (A) (A) (A) (A) (A) (A) (A) (A) (A)
                 (A) (A) (A) (A) (A) (A) (A) (A) (A) (A) (A) (A)
                 (A) (A) (A) (A) (A) (A) (A) (A) (A) (A) (A) (A)
                 (A) (A) (A) (A) (A) (A) (A) (A) (A) (A) (A) (A)
                 (A) (A) (A) (A) (A) (A) (A) (A) (A) (A) (A) (A)
                 (A) (A) (A) (A) (A) (A) (A) (A) (A) (A) (A) (A)
                 (A) (A) (A) (A) (A) (A) (A) (A) (A) (A) (A) (A)
                 (A) (A) (A) (A) (A) (A) (A) (A) (A) (A) (A) (A)
                 (A) (A) (A) (A) (A) (A) (A) (A) (A) (A) (A) (A)
                 (A) (A) (A) (A) (A) (A) (A) (A) (A) (A) (A) (A)
                 (A) (A) (A) (A) (A) (A) (A)
 The electronic state is 3-A.
 Alpha  occ. eigenvalues --  -19.79973 -19.75548 -19.73821 -19.73653 -19.70635
 Alpha  occ. eigenvalues --  -10.72268  -1.39746  -1.33040  -1.26649  -1.05410
 Alpha  occ. eigenvalues --   -1.02809  -0.75082  -0.69442  -0.65912  -0.65103
 Alpha  occ. eigenvalues --   -0.63888  -0.61601  -0.57587  -0.54020  -0.53924
 Alpha  occ. eigenvalues --   -0.45340  -0.42680  -0.42527  -0.41856  -0.35712
 Alpha virt. eigenvalues --   -0.01047   0.01622   0.02854   0.04877   0.05352
 Alpha virt. eigenvalues --    0.08165   0.10574   0.11658   0.14710   0.16223
 Alpha virt. eigenvalues --    0.17364   0.17875   0.19154   0.20384   0.20607
 Alpha virt. eigenvalues --    0.21167   0.21907   0.22172   0.25179   0.26174
 Alpha virt. eigenvalues --    0.27489   0.27568   0.28845   0.29146   0.30435
 Alpha virt. eigenvalues --    0.32285   0.32733   0.34604   0.39477   0.40159
 Alpha virt. eigenvalues --    0.45594   0.50514   0.54932   0.56732   0.64081
 Alpha virt. eigenvalues --    0.67104   0.70058   0.74892   0.77481   0.79207
 Alpha virt. eigenvalues --    0.80631   0.84562   0.87522   0.93321   0.94255
 Alpha virt. eigenvalues --    0.98069   1.00831   1.02444   1.03935   1.04731
 Alpha virt. eigenvalues --    1.06738   1.07607   1.09674   1.10815   1.13025
 Alpha virt. eigenvalues --    1.13606   1.13967   1.17011   1.19060   1.29640
 Alpha virt. eigenvalues --    1.34161   1.34979   1.40346   1.42638   1.43019
 Alpha virt. eigenvalues --    1.48552   1.49396   1.53245   1.54741   1.56004
 Alpha virt. eigenvalues --    1.56940   1.59519   1.62906   1.65970   1.71673
 Alpha virt. eigenvalues --    1.74764   1.88122   1.92684   1.96912   1.98660
 Alpha virt. eigenvalues --    1.99164   2.08821   2.17709   2.17885   2.21923
 Alpha virt. eigenvalues --    2.23714   2.26408   2.33869   2.43049   2.51496
 Alpha virt. eigenvalues --    2.52202   2.58823   2.60244   2.64604   2.75049
 Alpha virt. eigenvalues --    2.78338   2.95033   2.97560   3.01129   3.11512
 Alpha virt. eigenvalues --    3.18120   3.26348   3.30082   3.36057   3.46024
 Alpha virt. eigenvalues --    3.55278   3.56721   3.58036   3.64060   3.67414
 Alpha virt. eigenvalues --    3.72756   3.79961   3.98515   4.08485   4.11535
 Alpha virt. eigenvalues --    4.23775   4.44274   4.55372   4.57689   4.59922
 Alpha virt. eigenvalues --    4.62225   4.68164   4.70147   4.77230   4.84334
 Alpha virt. eigenvalues --    4.90522   4.95362   4.95787   4.96869   4.99830
 Alpha virt. eigenvalues --    5.00822   5.04956   5.05813   5.06392   5.07284
 Alpha virt. eigenvalues --    5.09783   5.10221   5.12569   5.13260   5.14073
 Alpha virt. eigenvalues --    5.14401   5.18768   5.23296   5.28049   5.30330
 Alpha virt. eigenvalues --    5.31688   5.36737   5.39137   5.42466   5.47980
 Alpha virt. eigenvalues --    5.51117   5.59065   5.65485   5.80209   6.05744
 Alpha virt. eigenvalues --    6.14897   6.24022   6.25483   6.34045   6.42024
 Alpha virt. eigenvalues --    6.42356   6.62386   6.69493   6.72228   6.75208
 Alpha virt. eigenvalues --    6.77751   6.80119   6.81573   6.83766   6.84439
 Alpha virt. eigenvalues --    6.87518   6.92368   6.96031   7.01019   7.01659
 Alpha virt. eigenvalues --    7.04713   7.10469   7.11805   7.20277   7.22912
 Alpha virt. eigenvalues --    7.23671   7.26248   7.37900   7.45182   7.47327
 Alpha virt. eigenvalues --    7.58309   7.65390   7.78678   7.83741   7.85572
 Alpha virt. eigenvalues --    7.91654  24.59295  49.90849  49.93321  49.98626
 Alpha virt. eigenvalues --   49.99010  50.24470
  Beta  occ. eigenvalues --  -19.79275 -19.73961 -19.73499 -19.72674 -19.70247
  Beta  occ. eigenvalues --  -10.71787  -1.36356  -1.31009  -1.25149  -1.00697
  Beta  occ. eigenvalues --   -0.99316  -0.71847  -0.67004  -0.63179  -0.62047
  Beta  occ. eigenvalues --   -0.59217  -0.58471  -0.54463  -0.50555  -0.49557
  Beta  occ. eigenvalues --   -0.41190  -0.40411  -0.36852
  Beta virt. eigenvalues --   -0.14484  -0.11847   0.00947   0.01725   0.03082
  Beta virt. eigenvalues --    0.05129   0.05688   0.08327   0.11222   0.12025
  Beta virt. eigenvalues --    0.14831   0.16191   0.17644   0.18368   0.19698
  Beta virt. eigenvalues --    0.20484   0.21021   0.21789   0.21977   0.23191
  Beta virt. eigenvalues --    0.25649   0.26217   0.27587   0.28232   0.28947
  Beta virt. eigenvalues --    0.29428   0.30487   0.32023   0.33510   0.34846
  Beta virt. eigenvalues --    0.40100   0.40560   0.45716   0.50722   0.55059
  Beta virt. eigenvalues --    0.56855   0.64080   0.67770   0.70962   0.74967
  Beta virt. eigenvalues --    0.77629   0.79567   0.80883   0.84682   0.87722
  Beta virt. eigenvalues --    0.94046   0.95345   0.98194   1.02224   1.04045
  Beta virt. eigenvalues --    1.04506   1.06102   1.07500   1.09263   1.10533
  Beta virt. eigenvalues --    1.11509   1.13758   1.14241   1.14640   1.17569
  Beta virt. eigenvalues --    1.19634   1.30831   1.35222   1.36344   1.41084
  Beta virt. eigenvalues --    1.44037   1.44797   1.49414   1.50445   1.53700
  Beta virt. eigenvalues --    1.55565   1.56656   1.57891   1.60149   1.65305
  Beta virt. eigenvalues --    1.67190   1.72160   1.75173   1.88860   1.93437
  Beta virt. eigenvalues --    1.97680   1.99444   1.99830   2.09787   2.18420
  Beta virt. eigenvalues --    2.19106   2.22429   2.24537   2.26988   2.34258
  Beta virt. eigenvalues --    2.43531   2.51601   2.52247   2.59474   2.60121
  Beta virt. eigenvalues --    2.64085   2.73899   2.77861   2.95919   2.98477
  Beta virt. eigenvalues --    3.02111   3.13051   3.20467   3.27956   3.32246
  Beta virt. eigenvalues --    3.37879   3.47113   3.56241   3.56989   3.59591
  Beta virt. eigenvalues --    3.64230   3.68337   3.72918   3.79408   3.98158
  Beta virt. eigenvalues --    4.08944   4.12216   4.22361   4.47465   4.55849
  Beta virt. eigenvalues --    4.58644   4.60720   4.62111   4.69625   4.70652
  Beta virt. eigenvalues --    4.77344   4.84676   4.91501   4.97982   4.99051
  Beta virt. eigenvalues --    5.00307   5.01284   5.03951   5.06575   5.06912
  Beta virt. eigenvalues --    5.07331   5.09475   5.10451   5.11045   5.13702
  Beta virt. eigenvalues --    5.14526   5.15023   5.15588   5.20099   5.24420
  Beta virt. eigenvalues --    5.28277   5.30870   5.32570   5.37391   5.40494
  Beta virt. eigenvalues --    5.42926   5.48571   5.51779   5.59233   5.66126
  Beta virt. eigenvalues --    5.81060   6.05959   6.15214   6.25241   6.27874
  Beta virt. eigenvalues --    6.34832   6.42632   6.43736   6.71074   6.76198
  Beta virt. eigenvalues --    6.76850   6.79699   6.81601   6.82456   6.83172
  Beta virt. eigenvalues --    6.84405   6.87447   6.88573   6.95312   6.98818
  Beta virt. eigenvalues --    7.02846   7.04662   7.05605   7.12585   7.13534
  Beta virt. eigenvalues --    7.22953   7.23773   7.24900   7.30109   7.39242
  Beta virt. eigenvalues --    7.45117   7.49730   7.58876   7.65238   7.81285
  Beta virt. eigenvalues --    7.83751   7.85570   7.93833  24.59699  49.90438
  Beta virt. eigenvalues --   49.92917  49.98107  49.98521  50.24080
          Condensed to atoms (all electrons):
              1          2          3          4          5          6
     1  C    5.152696   0.085525   0.416217   0.292744  -0.052487   0.028296
     2  O    0.085525   7.793616  -0.051278  -0.042010   0.200762   0.008912
     3  O    0.416217  -0.051278   7.874045  -0.000495   0.004121  -0.000486
     4  H    0.292744  -0.042010  -0.000495   0.366948   0.005508  -0.033130
     5  O   -0.052487   0.200762   0.004121   0.005508   7.907484   0.001172
     6  O    0.028296   0.008912  -0.000486  -0.033130   0.001172   7.757038
     7  O   -0.049344   0.022021  -0.003750   0.106088  -0.000661   0.133124
     8  H   -0.007707   0.003228  -0.000275   0.003974  -0.001898   0.246891
              7          8
     1  C   -0.049344  -0.007707
     2  O    0.022021   0.003228
     3  O   -0.003750  -0.000275
     4  H    0.106088   0.003974
     5  O   -0.000661  -0.001898
     6  O    0.133124   0.246891
     7  O    8.068611  -0.043170
     8  H   -0.043170   0.535782
 Mulliken atomic charges:
              1
     1  C    0.134061
     2  O   -0.020774
     3  O   -0.238098
     4  H    0.300373
     5  O   -0.064001
     6  O   -0.141817
     7  O   -0.232919
     8  H    0.263176
 Sum of Mulliken atomic charges =   0.00000
 Mulliken charges with hydrogens summed into heavy atoms:
              1
     1  C    0.134061
     2  O   -0.020774
     3  O   -0.238098
     5  O   -0.064001
     6  O    0.121359
     7  O    0.067454
 Sum of Mulliken charges with hydrogens summed into heavy atoms =   0.00000
          Atomic-Atomic Spin Densities.
              1          2          3          4          5          6
     1  C    0.496332  -0.069715  -0.078059   0.007751   0.017590   0.040261
     2  O   -0.069715   0.415308  -0.003157   0.005201  -0.157497  -0.009130
     3  O   -0.078059  -0.003157   0.224103  -0.000231   0.010794  -0.001449
     4  H    0.007751   0.005201  -0.000231  -0.101642  -0.000185   0.007866
     5  O    0.017590  -0.157497   0.010794  -0.000185   0.963981   0.002134
     6  O    0.040261  -0.009130  -0.001449   0.007866   0.002134   0.173592
     7  O   -0.086616   0.016283   0.004266   0.021813  -0.004663  -0.079863
     8  H   -0.001190  -0.000387   0.000048   0.000885   0.000148  -0.003406
              7          8
     1  C   -0.086616  -0.001190
     2  O    0.016283  -0.000387
     3  O    0.004266   0.000048
     4  H    0.021813   0.000885
     5  O   -0.004663   0.000148
     6  O   -0.079863  -0.003406
     7  O    0.548216   0.002781
     8  H    0.002781  -0.004432
 Mulliken atomic spin densities:
              1
     1  C    0.326355
     2  O    0.196906
     3  O    0.156316
     4  H   -0.058542
     5  O    0.832301
     6  O    0.130004
     7  O    0.422215
     8  H   -0.005555
 Sum of Mulliken atomic spin densities =   2.00000
 Electronic spatial extent (au):  <R**2>=            698.6418
 Charge=              0.0000 electrons
 Dipole moment (field-independent basis, Debye):
    X=              1.0611    Y=             -1.5321    Z=             -0.6211  Tot=              1.9644
 Quadrupole moment (field-independent basis, Debye-Ang):
   XX=            -38.3020   YY=            -32.9852   ZZ=            -33.2198
   XY=             -3.2448   XZ=             -0.2505   YZ=             -0.2944
 Traceless Quadrupole moment (field-independent basis, Debye-Ang):
   XX=             -3.4663   YY=              1.8505   ZZ=              1.6159
   XY=             -3.2448   XZ=             -0.2505   YZ=             -0.2944
 Octapole moment (field-independent basis, Debye-Ang**2):
  XXX=              2.1736  YYY=            -10.3477  ZZZ=              0.1600  XYY=             11.9413
  XXY=            -11.2588  XXZ=             -3.5644  XZZ=             -2.8858  YZZ=             -0.7777
  YYZ=             -0.7724  XYZ=              2.2919
 Hexadecapole moment (field-independent basis, Debye-Ang**3):
 XXXX=           -577.9026 YYYY=           -184.1929 ZZZZ=            -44.3686 XXXY=            -17.7632
 XXXZ=             -4.6451 YYYX=             -9.6702 YYYZ=             -1.8797 ZZZX=              0.1405
 ZZZY=              0.1214 XXYY=           -115.8947 XXZZ=           -101.8310 YYZZ=            -36.6349
 XXYZ=              2.0380 YYXZ=              0.0761 ZZXY=              0.8720
 N-N= 2.274859159602D+02 E-N=-2.133059965791D+03  KE= 6.176841493396D+02
                          Isotropic Fermi Contact Couplings
        Atom                 a.u.       MegaHertz       Gauss      10(-4) cm-1
     1  C(13)              0.33104     186.07363      66.39570      62.06748
     2  O(17)              0.17791     -53.92513     -19.24183     -17.98749
     3  O(17)              0.05480     -16.60857      -5.92635      -5.54002
     4  H(1)              -0.03978     -88.91007     -31.72532     -29.65721
     5  O(17)              0.10465     -31.72038     -11.31862     -10.58078
     6  O(17)              0.02326      -7.05056      -2.51581      -2.35181
     7  O(17)              0.05006     -15.17326      -5.41420      -5.06125
     8  H(1)              -0.00250      -5.59202      -1.99537      -1.86530
 --------------------------------------------------------
       Center         ----  Spin Dipole Couplings  ----
                      3XX-RR        3YY-RR        3ZZ-RR
 --------------------------------------------------------
     1   Atom        0.333731     -0.178416     -0.155315
     2   Atom       -0.687704     -0.176439      0.864143
     3   Atom        0.469183     -0.214278     -0.254905
     4   Atom        0.188784     -0.087837     -0.100946
     5   Atom       -1.468395     -1.416200      2.884595
     6   Atom        0.645491     -0.323779     -0.321712
     7   Atom        1.913677     -1.079867     -0.833810
     8   Atom       -0.005400      0.024315     -0.018914
 --------------------------------------------------------
                        XY            XZ            YZ
 --------------------------------------------------------
     1   Atom        0.027651     -0.079746     -0.005872
     2   Atom       -0.037194      0.368234     -0.171777
     3   Atom        0.395463     -0.050448     -0.046478
     4   Atom       -0.042172     -0.050813      0.006234
     5   Atom       -0.048442      1.061851     -0.862066
     6   Atom       -0.014542     -0.198412      0.041534
     7   Atom        0.134448     -0.840113     -0.034226
     8   Atom       -0.001736      0.000746      0.012115
 --------------------------------------------------------


 ---------------------------------------------------------------------------------
              Anisotropic Spin Dipole Couplings in Principal Axis System
 ---------------------------------------------------------------------------------

       Atom             a.u.   MegaHertz   Gauss  10(-4) cm-1        Axes

              Baa    -0.1801   -24.168    -8.624    -8.062 -0.0338  0.9914  0.1262
     1 C(13)  Bbb    -0.1678   -22.519    -8.035    -7.512  0.1623 -0.1192  0.9795
              Bcc     0.3479    46.688    16.659    15.573  0.9862  0.0536 -0.1569
 
              Baa    -0.7707    55.764    19.898    18.601  0.9755 -0.0025 -0.2200
     2 O(17)  Bbb    -0.2033    14.710     5.249     4.907  0.0357  0.9885  0.1468
              Bcc     0.9739   -70.473   -25.147   -23.507  0.2171 -0.1510  0.9644
 
              Baa    -0.3985    28.832    10.288     9.617 -0.4027  0.9028  0.1508
     3 O(17)  Bbb    -0.2563    18.548     6.619     6.187  0.1274 -0.1079  0.9860
              Bcc     0.6548   -47.380   -16.906   -15.804  0.9064  0.4163 -0.0715
 
              Baa    -0.1097   -58.506   -20.877   -19.516  0.1756  0.0586  0.9827
     4 H(1)   Bbb    -0.0940   -50.161   -17.899   -16.732  0.1325  0.9877 -0.0826
              Bcc     0.2037   108.668    38.775    36.248  0.9755 -0.1447 -0.1657
 
              Baa    -1.8033   130.482    46.559    43.524  0.8080 -0.5192 -0.2785
     5 O(17)  Bbb    -1.4807   107.144    38.232    35.739  0.5480  0.8359  0.0318
              Bcc     3.2840  -237.626   -84.791   -79.264  0.2163 -0.1783  0.9599
 
              Baa    -0.3847    27.833     9.932     9.284  0.1529 -0.5318  0.8330
     6 O(17)  Bbb    -0.3004    21.740     7.757     7.252  0.1217  0.8466  0.5181
              Bcc     0.6851   -49.574   -17.689   -16.536  0.9807 -0.0221 -0.1942
 
              Baa    -1.0866    78.623    28.055    26.226 -0.0972  0.9768 -0.1909
     7 O(17)  Bbb    -1.0696    77.394    27.616    25.816  0.2562  0.2099  0.9435
              Bcc     2.1561  -156.017   -55.671   -52.042  0.9617  0.0428 -0.2707
 
              Baa    -0.0222   -11.823    -4.219    -3.944 -0.0693 -0.2541  0.9647
     8 H(1)   Bbb    -0.0054    -2.874    -1.026    -0.959  0.9966  0.0262  0.0785
              Bcc     0.0275    14.697     5.244     4.902 -0.0453  0.9668  0.2514
 

 ---------------------------------------------------------------------------------

 1\1\GINC-COMPUTE-3-046\FOpt\UM062X\6-311+G(2df,2p)\C1H2O5(3)\ROOT\03-A
 ug-2017\0\\# m062x/6-311+g(2df,2p) Opt=(ModRedun,Loose) Int(Grid=SG1)\
 \[O]O+[O]OC=O_OO+[O]O[C]=O\\0,3\C,-0.9820737894,-0.4170513856,0.262173
 8095\O,-0.8851260253,0.9652660713,-0.0355131332\O,-1.9636656676,-1.038
 6672516,0.3125310872\H,0.3297908968,-0.7887111741,0.4531764207\O,-2.04
 01238208,1.5088502288,-0.3162961998\O,1.9396263683,-0.2332747721,-0.67
 86910244\O,1.5218075189,-0.707721041,0.5256923262\H,2.0797645191,0.711
 2093242,-0.5232732862\\Version=EM64L-G09RevB.01\State=3-A\HF=-415.0875
 923\S2=2.016111\S2-1=0.\S2A=2.000128\RMSD=4.775e-09\RMSF=3.703e-03\Dip
 ole=0.5659967,0.5261018,0.0135615\Quadrupole=-1.2595731,-0.1349958,1.3
 945689,2.9583963,-0.5844223,-0.1508153\PG=C01 [X(C1H2O5)]\\@


 THE LENGTH OF A MEETING IS PROPORTIONAL TO THE
 SQUARE OF THE PARTICIPANTS.
 Job cpu time:  0 days  9 hours 51 minutes 49.3 seconds.
 File lengths (MBytes):  RWF=   1248 Int=      0 D2E=      0 Chk=     32 Scr=     32
 Normal termination of Gaussian 09 at Thu Aug  3 16:11:20 2017.
