 Entering Gaussian System, Link 0=/shared/apps/gaussian/G09_LINUX_LINDA/g09/g09
 Input=/gss_gpfs_scratch/harms.n/QMscratch/[O]O+[O]O_OO+[O][O]IRC.gjf
 Output=/gss_gpfs_scratch/harms.n/QMscratch/[O]O+[O]O_OO+[O][O]IRC.log
 Initial command:
 /shared/apps/gaussian/G09_LINUX_LINDA/g09/l1.exe /home/harms.n/Code/OOHabstraction/Biofuels/results/Gau-20710.inp -scrdir=/home/harms.n/Code/OOHabstraction/Biofuels/results/
 Entering Link 1 = /shared/apps/gaussian/G09_LINUX_LINDA/g09/l1.exe PID=     20711.
  
 Copyright (c) 1988,1990,1992,1993,1995,1998,2003,2009,2010,
            Gaussian, Inc.  All Rights Reserved.
  
 This is part of the Gaussian(R) 09 program.  It is based on
 the Gaussian(R) 03 system (copyright 2003, Gaussian, Inc.),
 the Gaussian(R) 98 system (copyright 1998, Gaussian, Inc.),
 the Gaussian(R) 94 system (copyright 1995, Gaussian, Inc.),
 the Gaussian 92(TM) system (copyright 1992, Gaussian, Inc.),
 the Gaussian 90(TM) system (copyright 1990, Gaussian, Inc.),
 the Gaussian 88(TM) system (copyright 1988, Gaussian, Inc.),
 the Gaussian 86(TM) system (copyright 1986, Carnegie Mellon
 University), and the Gaussian 82(TM) system (copyright 1983,
 Carnegie Mellon University). Gaussian is a federally registered
 trademark of Gaussian, Inc.
  
 This software contains proprietary and confidential information,
 including trade secrets, belonging to Gaussian, Inc.
  
 This software is provided under written license and may be
 used, copied, transmitted, or stored only in accord with that
 written license.
  
 The following legend is applicable only to US Government
 contracts under FAR:
  
                    RESTRICTED RIGHTS LEGEND
  
 Use, reproduction and disclosure by the US Government is
 subject to restrictions as set forth in subparagraphs (a)
 and (c) of the Commercial Computer Software - Restricted
 Rights clause in FAR 52.227-19.
  
 Gaussian, Inc.
 340 Quinnipiac St., Bldg. 40, Wallingford CT 06492
  
  
 ---------------------------------------------------------------
 Warning -- This program may not be used in any manner that
 competes with the business of Gaussian, Inc. or will provide
 assistance to any competitor of Gaussian, Inc.  The licensee
 of this program is prohibited from giving any competitor of
 Gaussian, Inc. access to this program.  By using this program,
 the user acknowledges that Gaussian, Inc. is engaged in the
 business of creating and licensing software in the field of
 computational chemistry and represents and warrants to the
 licensee that it is not a competitor of Gaussian, Inc. and that
 it will not use this program in any manner prohibited above.
 ---------------------------------------------------------------
  

 Cite this work as:
 Gaussian 09, Revision B.01,
 M. J. Frisch, G. W. Trucks, H. B. Schlegel, G. E. Scuseria, 
 M. A. Robb, J. R. Cheeseman, G. Scalmani, V. Barone, B. Mennucci, 
 G. A. Petersson, H. Nakatsuji, M. Caricato, X. Li, H. P. Hratchian, 
 A. F. Izmaylov, J. Bloino, G. Zheng, J. L. Sonnenberg, M. Hada, 
 M. Ehara, K. Toyota, R. Fukuda, J. Hasegawa, M. Ishida, T. Nakajima, 
 Y. Honda, O. Kitao, H. Nakai, T. Vreven, J. A. Montgomery, Jr., 
 J. E. Peralta, F. Ogliaro, M. Bearpark, J. J. Heyd, E. Brothers, 
 K. N. Kudin, V. N. Staroverov, T. Keith, R. Kobayashi, J. Normand, 
 K. Raghavachari, A. Rendell, J. C. Burant, S. S. Iyengar, J. Tomasi, 
 M. Cossi, N. Rega, J. M. Millam, M. Klene, J. E. Knox, J. B. Cross, 
 V. Bakken, C. Adamo, J. Jaramillo, R. Gomperts, R. E. Stratmann, 
 O. Yazyev, A. J. Austin, R. Cammi, C. Pomelli, J. W. Ochterski, 
 R. L. Martin, K. Morokuma, V. G. Zakrzewski, G. A. Voth, 
 P. Salvador, J. J. Dannenberg, S. Dapprich, A. D. Daniels, 
 O. Farkas, J. B. Foresman, J. V. Ortiz, J. Cioslowski, 
 and D. J. Fox, Gaussian, Inc., Wallingford CT, 2010.
 
 ******************************************
 Gaussian 09:  EM64L-G09RevB.01 12-Aug-2010
                11-May-2017 
 ******************************************
 %nprocshared=20
 Will use up to   20 processors via shared memory.
 %mem=5GB
 %chk=/gss_gpfs_scratch/harms.n/QMscratch/[O]O+[O]O_OO+[O][O]
 ----------------------------------------------------------------------
 # m062x/6-311+g(2df,2p) irc=(calcall,report=read) geom=allcheck guess=
 check nosymm
 ----------------------------------------------------------------------
 1/10=4,14=-1,18=10,26=3,29=7,38=1,44=3,71=1,129=1/1,23;
 2/12=2,15=1,29=1,40=1/2;
 3/5=4,6=6,7=214,11=2,14=-4,16=1,25=1,30=1,71=2,74=-55,116=-2/1,2,3;
 4/5=1/1;
 5/5=2,38=6/2;
 8/6=4,10=90,11=11/1;
 11/6=1,8=1,9=11,15=111,16=1,31=1/1,2,10;
 10/6=1,31=1/2;
 6/7=2,8=2,9=2,10=2,18=1,28=1/1;
 7/10=1,25=1,30=1/1,2,3,16;
 1/10=4,14=-1,18=10,44=3,71=1,129=1/23(3);
 2/15=1,29=1/2;
 7/8=1,9=1,25=1,30=1,44=-1/16;
 99/5=20/99;
 2/15=1,29=1/2;
 3/5=4,6=6,7=214,11=2,14=-2,16=1,25=1,30=1,71=2,74=-55/1,2,3;
 4/5=5,16=3/1;
 5/5=2,38=5/2;
 8/6=4,10=90,11=11/1;
 11/6=1,8=1,9=11,15=111,16=1,31=1/1,2,10;
 10/6=1,31=1/2;
 7/10=1,25=1,30=1/1,2,3,16;
 1/10=4,14=-1,18=10,44=3,71=1,129=1/23(-8);
 2/15=1,29=1/2;
 6/7=2,8=2,9=2,10=2,18=1,19=2,28=1/1;
 7/8=1,9=1,25=1,30=1,44=-1/16;
 99/5=20/99;
 -------------------
 [O]O+[O]O_OO+[O][O]
 -------------------
 Redundant internal coordinates taken from checkpoint file:
 /gss_gpfs_scratch/harms.n/QMscratch/[O]O+[O]O_OO+[O][O].chk
 Charge =  0 Multiplicity = 3
 O,0,-1.247642,-0.586872,-0.090795
 O,0,-1.313438,0.667233,0.07586
 H,0,-0.209824,-0.839089,-0.032293
 O,0,1.313389,0.582417,-0.181642
 O,0,1.138594,-0.693114,0.123115
 H,0,1.082602,1.081775,0.619984
 Recover connectivity data from disk.
 IRC-IRC-IRC-IRC-IRC-IRC-IRC-IRC-IRC-IRC-IRC-IRC-IRC-IRC-IRC-IRC-IRC-IRC
 Reading IRC summary table definitions from input file.
 ------------------------------------------------------------------------
 INPUT DATA FOR L123
 ------------------------------------------------------------------------
 GENERAL PARAMETERS:
 Follow reaction path in both directions.
 Maximum points per path      =  10
 Step size                    =   0.100 bohr
 Integration scheme           = HPC                                 
    Redo corrector integration= Yes                                 
    Max correction cycles     =  20
 Initial Hessian              = CalcFC
 Hessian evaluation           = Full Hessian always
 ------------------------------------------------------------------------
 IRC-IRC-IRC-IRC-IRC-IRC-IRC-IRC-IRC-IRC-IRC-IRC-IRC-IRC-IRC-IRC-IRC-IRC
                          Input orientation:                          
 ---------------------------------------------------------------------
 Center     Atomic      Atomic             Coordinates (Angstroms)
 Number     Number       Type             X           Y           Z
 ---------------------------------------------------------------------
      1          8           0       -1.247642   -0.586872   -0.090795
      2          8           0       -1.313438    0.667233    0.075860
      3          1           0       -0.209824   -0.839089   -0.032293
      4          8           0        1.313389    0.582417   -0.181642
      5          8           0        1.138594   -0.693114    0.123115
      6          1           0        1.082602    1.081775    0.619984
 ---------------------------------------------------------------------
                    Distance matrix (angstroms):
                    1          2          3          4          5
     1  O    0.000000
     2  O    1.266840   0.000000
     3  H    1.069627   1.870472   0.000000
     4  O    2.816801   2.640780   2.088818   0.000000
     5  O    2.398159   2.804503   1.365171   1.323030   0.000000
     6  H    2.952901   2.491771   2.405317   0.972227   1.843975
                    6
     6  H    0.000000
 Symmetry turned off by external request.
 Stoichiometry    H2O4(3)
 Framework group  C1[X(H2O4)]
 Deg. of freedom    12
 Full point group                 C1      NOp   1
 Rotational constants (GHZ):     17.4409729      4.8869259      3.8970296
 Standard basis: 6-311+G(2df,2p) (5D, 7F)
 Integral buffers will be    131072 words long.
 Raffenetti 2 integral format.
 Two-electron integral symmetry is turned off.
   154 basis functions,   230 primitive gaussians,   174 cartesian basis functions
    18 alpha electrons       16 beta electrons
       nuclear repulsion energy       124.7300230763 Hartrees.
 NAtoms=    6 NActive=    6 NUniq=    6 SFac= 1.00D+00 NAtFMM=   50 NAOKFM=F Big=F
 One-electron integrals computed using PRISM.
 NBasis=   154 RedAO= T  NBF=   154
 NBsUse=   154 1.00D-06 NBFU=   154
 Initial guess read from the checkpoint file:  /gss_gpfs_scratch/harms.n/QMscratch/[O]O+[O]O_OO+[O][O].chk
 B after Tr=     0.000000    0.000000    0.000000
         Rot=    1.000000    0.000000    0.000000    0.000000 Ang=   0.00 deg.
 Initial guess <Sx>= 0.0000 <Sy>= 0.0000 <Sz>= 1.0000 <S**2>= 2.0173 S= 1.0058
 Requested convergence on RMS density matrix=1.00D-08 within 128 cycles.
 Requested convergence on MAX density matrix=1.00D-06.
 Requested convergence on             energy=1.00D-06.
 No special actions if energy rises.
 Keep R1 and R2 ints in memory in canonical form, NReq=234659907.
 SCF Done:  E(UM062X) =  -301.805834478     A.U. after    1 cycles
             Convg  =    0.4484D-09             -V/T =  2.0025
 <Sx>= 0.0000 <Sy>= 0.0000 <Sz>= 1.0000 <S**2>= 2.0173 S= 1.0058
 <L.S>= 0.000000000000E+00
 Annihilation of the first spin contaminant:
 S**2 before annihilation     2.0173,   after     2.0002
 Range of M.O.s used for correlation:     1   154
 NBasis=   154 NAE=    18 NBE=    16 NFC=     0 NFV=     0
 NROrb=    154 NOA=    18 NOB=    16 NVA=   136 NVB=   138

 **** Warning!!: The largest alpha MO coefficient is  0.17659797D+02


 **** Warning!!: The largest beta MO coefficient is  0.18297827D+02

 Symmetrizing basis deriv contribution to polar:
 IMax=3 JMax=2 DiffMx= 0.00D+00
 G2DrvN: will do     7 centers at a time, making    1 passes doing MaxLOS=3.
 Calling FoFCou, ICntrl=  3107 FMM=F I1Cent=   0 AccDes= 0.00D+00.
 FoFDir/FoFCou used for L=0 through L=3.
 End of G2Drv Frequency-dependent properties file   721 does not exist.
 End of G2Drv Frequency-dependent properties file   722 does not exist.
          IDoAtm=111111
          Differentiating once with respect to electric field.
                with respect to dipole field.
          Differentiating once with respect to nuclear coordinates.
          Keep R1 and R2 ints in memory in canonical form, NReq=233758395.
          There are    21 degrees of freedom in the 1st order CPHF.  IDoFFX=5.
     18 vectors produced by pass  0 Test12= 2.22D-14 4.76D-09 XBig12= 8.40D+01 8.39D+00.
 AX will form    18 AO Fock derivatives at one time.
     18 vectors produced by pass  1 Test12= 2.22D-14 4.76D-09 XBig12= 1.25D+01 6.92D-01.
     18 vectors produced by pass  2 Test12= 2.22D-14 4.76D-09 XBig12= 9.29D-01 2.68D-01.
     18 vectors produced by pass  3 Test12= 2.22D-14 4.76D-09 XBig12= 2.02D-02 2.30D-02.
     18 vectors produced by pass  4 Test12= 2.22D-14 4.76D-09 XBig12= 4.05D-04 3.12D-03.
     18 vectors produced by pass  5 Test12= 2.22D-14 4.76D-09 XBig12= 7.51D-06 4.16D-04.
     18 vectors produced by pass  6 Test12= 2.22D-14 4.76D-09 XBig12= 1.34D-07 5.70D-05.
     18 vectors produced by pass  7 Test12= 2.22D-14 4.76D-09 XBig12= 1.18D-09 4.88D-06.
      6 vectors produced by pass  8 Test12= 2.22D-14 4.76D-09 XBig12= 1.22D-11 5.52D-07.
      3 vectors produced by pass  9 Test12= 2.22D-14 4.76D-09 XBig12= 9.39D-14 3.66D-08.
 Inverted reduced A of dimension   153 with in-core refinement.
 Isotropic polarizability for W=    0.000000       35.42 Bohr**3.
 End of Minotr Frequency-dependent properties file   721 does not exist.
 End of Minotr Frequency-dependent properties file   722 does not exist.

 **********************************************************************

            Population analysis using the SCF density.

 **********************************************************************

 Alpha  occ. eigenvalues --  -19.77111 -19.77079 -19.74082 -19.73017  -1.39313
 Alpha  occ. eigenvalues --   -1.35780  -1.03113  -0.98175  -0.72053  -0.66891
 Alpha  occ. eigenvalues --   -0.63243  -0.61240  -0.59360  -0.58951  -0.45044
 Alpha  occ. eigenvalues --   -0.41664  -0.39618  -0.37380
 Alpha virt. eigenvalues --    0.03224   0.06442   0.10914   0.11807   0.13215
 Alpha virt. eigenvalues --    0.15985   0.16324   0.17107   0.19342   0.20545
 Alpha virt. eigenvalues --    0.22187   0.23844   0.24817   0.25227   0.26101
 Alpha virt. eigenvalues --    0.30363   0.31345   0.33367   0.36343   0.38129
 Alpha virt. eigenvalues --    0.48633   0.57145   0.65637   0.71332   0.74046
 Alpha virt. eigenvalues --    0.78740   0.87343   0.92429   0.94753   0.97908
 Alpha virt. eigenvalues --    0.99467   1.01821   1.04323   1.06883   1.08956
 Alpha virt. eigenvalues --    1.10113   1.11867   1.16032   1.29487   1.31127
 Alpha virt. eigenvalues --    1.32583   1.37127   1.38755   1.45304   1.46625
 Alpha virt. eigenvalues --    1.53051   1.55434   1.58552   1.61030   1.67153
 Alpha virt. eigenvalues --    1.70917   1.78180   2.01868   2.03508   2.13124
 Alpha virt. eigenvalues --    2.18326   2.20946   2.23383   2.27438   2.29616
 Alpha virt. eigenvalues --    2.44581   2.46857   2.56818   2.63579   2.64696
 Alpha virt. eigenvalues --    2.83845   3.60877   3.62847   3.71812   3.83597
 Alpha virt. eigenvalues --    3.90258   4.07426   4.43568   4.47744   4.55881
 Alpha virt. eigenvalues --    4.58067   4.63092   4.65430   4.67544   4.68633
 Alpha virt. eigenvalues --    4.77553   4.80620   4.92743   4.95371   4.96045
 Alpha virt. eigenvalues --    4.98959   5.02689   5.04490   5.04801   5.08095
 Alpha virt. eigenvalues --    5.08255   5.08871   5.12717   5.13564   5.16876
 Alpha virt. eigenvalues --    5.19583   5.27099   5.27947   5.34366   5.37278
 Alpha virt. eigenvalues --    5.51351   5.55846   5.60585   5.64601   6.27032
 Alpha virt. eigenvalues --    6.28001   6.45163   6.47853   6.60494   6.67507
 Alpha virt. eigenvalues --    6.71708   6.72750   6.78515   6.80223   6.83324
 Alpha virt. eigenvalues --    6.85751   6.91088   6.94084   6.95934   6.98265
 Alpha virt. eigenvalues --    6.99578   7.19527   7.21033   7.23784   7.26585
 Alpha virt. eigenvalues --    7.35688   7.47166   7.65417   7.80215   7.84205
 Alpha virt. eigenvalues --    7.88373   7.95200  49.91972  49.95490  49.96192
 Alpha virt. eigenvalues --   50.01500
  Beta  occ. eigenvalues --  -19.76326 -19.75749 -19.72254 -19.71967  -1.35028
  Beta  occ. eigenvalues --   -1.32618  -0.99185  -0.91979  -0.68640  -0.63779
  Beta  occ. eigenvalues --   -0.57565  -0.57141  -0.51930  -0.50478  -0.39552
  Beta  occ. eigenvalues --   -0.34957
  Beta virt. eigenvalues --   -0.12881  -0.07478   0.03933   0.07007   0.11569
  Beta virt. eigenvalues --    0.12159   0.13699   0.16506   0.16747   0.17652
  Beta virt. eigenvalues --    0.20011   0.21706   0.22557   0.24144   0.25115
  Beta virt. eigenvalues --    0.26518   0.27228   0.31838   0.32092   0.33492
  Beta virt. eigenvalues --    0.36610   0.38432   0.49035   0.57863   0.66254
  Beta virt. eigenvalues --    0.71929   0.74296   0.78821   0.87607   0.93312
  Beta virt. eigenvalues --    0.95546   0.98427   1.02480   1.04690   1.05081
  Beta virt. eigenvalues --    1.09139   1.09748   1.11355   1.14147   1.17617
  Beta virt. eigenvalues --    1.31130   1.31924   1.35372   1.38747   1.40374
  Beta virt. eigenvalues --    1.46286   1.47875   1.53571   1.56469   1.60522
  Beta virt. eigenvalues --    1.63547   1.68646   1.72275   1.79184   2.02757
  Beta virt. eigenvalues --    2.04778   2.14005   2.19290   2.21651   2.24835
  Beta virt. eigenvalues --    2.28054   2.30618   2.44956   2.47481   2.57136
  Beta virt. eigenvalues --    2.64287   2.64738   2.81940   3.61418   3.63395
  Beta virt. eigenvalues --    3.72107   3.83669   3.89956   4.07276   4.46961
  Beta virt. eigenvalues --    4.49958   4.56281   4.59519   4.64000   4.66438
  Beta virt. eigenvalues --    4.67530   4.69932   4.78152   4.81079   4.95329
  Beta virt. eigenvalues --    4.98422   5.00363   5.01618   5.05253   5.06060
  Beta virt. eigenvalues --    5.08736   5.09178   5.09793   5.11331   5.14323
  Beta virt. eigenvalues --    5.15497   5.18868   5.20682   5.28619   5.29304
  Beta virt. eigenvalues --    5.35768   5.40050   5.52230   5.57160   5.61180
  Beta virt. eigenvalues --    5.65198   6.28360   6.28771   6.46883   6.51119
  Beta virt. eigenvalues --    6.68224   6.68506   6.80673   6.80925   6.82445
  Beta virt. eigenvalues --    6.84225   6.86444   6.87605   6.92986   6.97556
  Beta virt. eigenvalues --    6.98456   7.01158   7.03598   7.22358   7.24544
  Beta virt. eigenvalues --    7.27744   7.28965   7.38238   7.47220   7.66686
  Beta virt. eigenvalues --    7.80499   7.85107   7.89382   7.97409  49.91373
  Beta virt. eigenvalues --   49.94647  49.95466  50.00684
          Condensed to atoms (all electrons):
              1          2          3          4          5          6
     1  O    7.699870   0.228658   0.231414   0.011884  -0.016920  -0.002535
     2  O    0.228658   7.960645  -0.073488   0.005063   0.025342   0.008942
     3  H    0.231414  -0.073488   0.382636  -0.009443   0.069822   0.000317
     4  O    0.011884   0.005063  -0.009443   7.608831   0.168934   0.255949
     5  O   -0.016920   0.025342   0.069822   0.168934   8.120170  -0.051781
     6  H   -0.002535   0.008942   0.000317   0.255949  -0.051781   0.523532
 Mulliken atomic charges:
              1
     1  O   -0.152371
     2  O   -0.155163
     3  H    0.398742
     4  O   -0.041218
     5  O   -0.315566
     6  H    0.265575
 Sum of Mulliken atomic charges =   0.00000
 Mulliken charges with hydrogens summed into heavy atoms:
              1
     1  O    0.246371
     2  O   -0.155163
     4  O    0.224357
     5  O   -0.315566
 Sum of Mulliken charges with hydrogens summed into heavy atoms =   0.00000
          Atomic-Atomic Spin Densities.
              1          2          3          4          5          6
     1  O    0.726031  -0.239917   0.022453   0.017749  -0.028175   0.000144
     2  O   -0.239917   1.035489   0.012284  -0.039480   0.027444  -0.001053
     3  H    0.022453   0.012284  -0.094041   0.006506   0.007779   0.000877
     4  O    0.017749  -0.039480   0.006506   0.405484  -0.110803   0.001665
     5  O   -0.028175   0.027444   0.007779  -0.110803   0.586647   0.001173
     6  H    0.000144  -0.001053   0.000877   0.001665   0.001173  -0.016904
 Mulliken atomic spin densities:
              1
     1  O    0.498285
     2  O    0.794767
     3  H   -0.044142
     4  O    0.281121
     5  O    0.484066
     6  H   -0.014098
 Sum of Mulliken atomic spin densities =   2.00000
 APT atomic charges:
              1
     1  O    0.113238
     2  O   -0.090580
     3  H   -0.295835
     4  O   -0.088084
     5  O    0.129638
     6  H    0.231622
 Sum of APT charges=   0.00000
 APT Atomic charges with hydrogens summed into heavy atoms:
              1
     1  O   -0.182597
     2  O   -0.090580
     3  H    0.000000
     4  O    0.143538
     5  O    0.129638
     6  H    0.000000
 Sum of APT charges=   0.00000
 Electronic spatial extent (au):  <R**2>=            291.2219
 Charge=              0.0000 electrons
 Dipole moment (field-independent basis, Debye):
    X=              0.8353    Y=              0.7547    Z=              1.1461  Tot=              1.6066
 Quadrupole moment (field-independent basis, Debye-Ang):
   XX=            -25.6654   YY=            -21.0658   ZZ=            -21.8520
   XY=              2.5466   XZ=              1.4755   YZ=              1.6381
 Traceless Quadrupole moment (field-independent basis, Debye-Ang):
   XX=             -2.8043   YY=              1.7953   ZZ=              1.0091
   XY=              2.5466   XZ=              1.4755   YZ=              1.6381
 Octapole moment (field-independent basis, Debye-Ang**2):
  XXX=              2.3559  YYY=              2.0630  ZZZ=              0.7031  XYY=              2.0400
  XXY=              2.0775  XXZ=              1.8634  XZZ=              0.2431  YZZ=              1.4123
  YYZ=              1.9325  XYZ=              2.1041
 Hexadecapole moment (field-independent basis, Debye-Ang**3):
 XXXX=           -230.7680 YYYY=            -68.1907 ZZZZ=            -19.7808 XXXY=              3.4482
 XXXZ=              2.6451 YYYX=              4.7613 YYYZ=              2.1655 ZZZX=              0.8764
 ZZZY=              1.6033 XXYY=            -51.2933 XXZZ=            -39.7434 YYZZ=            -15.1549
 XXYZ=              1.9676 YYXZ=              2.2926 ZZXY=              1.4762
 N-N= 1.247300230763D+02 E-N=-1.427425408673D+03  KE= 4.479807128166D+02
  Exact polarizability:  59.655  -2.648  29.815   0.474   0.758  16.791
 Approx polarizability:  52.306  -4.193  39.962  -0.483   0.720  19.359
                          Isotropic Fermi Contact Couplings
        Atom                 a.u.       MegaHertz       Gauss      10(-4) cm-1
     1  O(17)              0.07097     -21.51029      -7.67541      -7.17506
     2  O(17)              0.13268     -40.21535     -14.34984     -13.41440
     3  H(1)              -0.03192     -71.33442     -25.45389     -23.79460
     4  O(17)              0.06325     -19.17111      -6.84073      -6.39479
     5  O(17)              0.07763     -23.53076      -8.39636      -7.84902
     6  H(1)              -0.00598     -13.35462      -4.76526      -4.45462
 --------------------------------------------------------
       Center         ----  Spin Dipole Couplings  ----
                      3XX-RR        3YY-RR        3ZZ-RR
 --------------------------------------------------------
     1   Atom       -0.042312     -1.380395      1.422707
     2   Atom       -0.640155     -1.828767      2.468921
     3   Atom        0.203588     -0.092212     -0.111376
     4   Atom        1.402514     -0.786431     -0.616083
     5   Atom        2.005278     -1.139561     -0.865717
     6   Atom       -0.011183     -0.010346      0.021529
 --------------------------------------------------------
                        XY            XZ            YZ
 --------------------------------------------------------
     1   Atom        0.055547     -0.057164     -0.382520
     2   Atom        0.078655     -0.280418     -0.605885
     3   Atom       -0.046008      0.016552     -0.003378
     4   Atom       -0.188462      0.568476     -0.014236
     5   Atom       -0.310532      0.889357     -0.079458
     6   Atom       -0.006004     -0.004711      0.052702
 --------------------------------------------------------


 ---------------------------------------------------------------------------------
              Anisotropic Spin Dipole Couplings in Principal Axis System
 ---------------------------------------------------------------------------------

       Atom             a.u.   MegaHertz   Gauss  10(-4) cm-1        Axes

              Baa    -1.4333   103.711    37.007    34.594 -0.0341  0.9907  0.1320
     1 O(17)  Bbb    -0.0434     3.140     1.120     1.047  0.9985  0.0282  0.0463
              Bcc     1.4767  -106.851   -38.127   -35.642 -0.0421 -0.1334  0.9902
 
              Baa    -1.9138   138.481    49.413    46.192 -0.0315  0.9904  0.1349
     2 O(17)  Bbb    -0.6648    48.103    17.164    16.045  0.9955  0.0190  0.0928
              Bcc     2.5786  -186.584   -66.578   -62.238 -0.0893 -0.1372  0.9865
 
              Baa    -0.1123   -59.925   -21.383   -19.989 -0.0417  0.0719  0.9965
     3 H(1)   Bbb    -0.0991   -52.900   -18.876   -17.646  0.1534  0.9860 -0.0647
              Bcc     0.2115   112.825    40.259    37.634  0.9873 -0.1502  0.0522
 
              Baa    -0.8215    59.446    21.212    19.829  0.1955  0.8542 -0.4818
     4 O(17)  Bbb    -0.7447    53.889    19.229    17.976 -0.1771  0.5140  0.8393
              Bcc     1.5663  -113.336   -40.441   -37.805  0.9646 -0.0788  0.2518
 
              Baa    -1.1709    84.727    30.233    28.262  0.1327  0.9825 -0.1310
     5 O(17)  Bbb    -1.1175    80.860    28.853    26.972 -0.2554  0.1616  0.9532
              Bcc     2.2884  -165.587   -59.086   -55.234  0.9577 -0.0931  0.2724
 
              Baa    -0.0496   -26.451    -9.438    -8.823  0.0530  0.8039 -0.5924
     6 H(1)   Bbb    -0.0118    -6.308    -2.251    -2.104  0.9935  0.0175  0.1127
              Bcc     0.0614    32.759    11.689    10.927 -0.1009  0.5945  0.7978
 

 ---------------------------------------------------------------------------------

 Calling FoFJK, ICntrl=    100127 FMM=F ISym2X=0 I1Cent= 0 IOpClX= 1 NMat=1 NMatS=1 NMatT=0.
 -------------------------------------------------------------------
 Center     Atomic                   Forces (Hartrees/Bohr)
 Number     Number              X              Y              Z
 -------------------------------------------------------------------
      1        8          -0.000000374    0.000011390    0.000002537
      2        8           0.000015493    0.000019732   -0.000008425
      3        1          -0.000013305    0.000024546    0.000004234
      4        8          -0.000011567    0.000013810   -0.000016494
      5        8          -0.000000384   -0.000066301    0.000030038
      6        1           0.000010136   -0.000003176   -0.000011890
 -------------------------------------------------------------------
 Cartesian Forces:  Max     0.000066301 RMS     0.000020794
 IRC-IRC-IRC-IRC-IRC-IRC-IRC-IRC-IRC-IRC-IRC-IRC-IRC-IRC-IRC-IRC-IRC-IRC
          ******** Start new reaction path calculation ********
 Supplied step size of   0.1000 bohr.
    Integration on MW PES will use step size of   0.1249 sqrt(amu)*bohr.
 Point Number:   0          Path Number:   1
 Calculating another point on the path.
 IRC-IRC-IRC-IRC-IRC-IRC-IRC-IRC-IRC-IRC-IRC-IRC-IRC-IRC-IRC-IRC-IRC-IRC
                          Input orientation:                          
 ---------------------------------------------------------------------
 Center     Atomic      Atomic             Coordinates (Angstroms)
 Number     Number       Type             X           Y           Z
 ---------------------------------------------------------------------
      1          8           0       -1.238137   -0.587341   -0.082963
      2          8           0       -1.300074    0.674514    0.085632
      3          1           0       -0.246868   -0.839767   -0.026849
      4          8           0        1.327813    0.583252   -0.172158
      5          8           0        1.157652   -0.685943    0.131792
      6          1           0        1.083995    1.086062    0.625110
 ---------------------------------------------------------------------
                    Distance matrix (angstroms):
                    1          2          3          4          5
     1  O    0.000000
     2  O    1.274574   0.000000
     3  H    1.024443   1.847956   0.000000
     4  O    2.821763   2.642077   2.127373   0.000000
     5  O    2.407415   2.809518   1.421796   1.316129   0.000000
     6  H    2.948550   2.478748   2.430033   0.973602   1.840867
                    6
     6  H    0.000000
 Symmetry turned off by external request.
 Stoichiometry    H2O4(3)
 Framework group  C1[X(H2O4)]
 Deg. of freedom    12
 Full point group                 C1      NOp   1
 Rotational constants (GHZ):     17.4220138      4.8679866      3.8839989
 Standard basis: 6-311+G(2df,2p) (5D, 7F)
 Integral buffers will be    131072 words long.
 Raffenetti 2 integral format.
 Two-electron integral symmetry is turned off.
   154 basis functions,   230 primitive gaussians,   174 cartesian basis functions
    18 alpha electrons       16 beta electrons
       nuclear repulsion energy       124.6471668764 Hartrees.
 NAtoms=    6 NActive=    6 NUniq=    6 SFac= 1.00D+00 NAtFMM=   50 NAOKFM=F Big=F
 One-electron integrals computed using PRISM.
 NBasis=   154 RedAO= T  NBF=   154
 NBsUse=   154 1.00D-06 NBFU=   154
 Initial guess read from the read-write file.
 B after Tr=     0.000000    0.000000    0.000000
         Rot=    1.000000    0.000000    0.000000    0.000000 Ang=   0.00 deg.
 Initial guess <Sx>= 0.0000 <Sy>= 0.0000 <Sz>= 1.0000 <S**2>= 2.0173 S= 1.0057
 Harris functional with IExCor= 1009 diagonalized for initial guess.
 ExpMin= 8.45D-02 ExpMax= 8.59D+03 ExpMxC= 1.30D+03 IAcc=2 IRadAn=         0 AccDes= 0.00D+00
 HarFok:  IExCor= 1009 AccDes= 0.00D+00 IRadAn=         0 IDoV= 1
 ScaDFX=  1.000000  1.000000  1.000000  1.000000
 FoFCou: FMM=F IPFlag=           0 FMFlag=      100000 FMFlg1=           0
         NFxFlg=           0 DoJE=T BraDBF=F KetDBF=T FulRan=T
         Omega=  0.000000  0.000000  1.000000  0.000000  0.000000 ICntrl=     500 IOpCl=  0
         NMat0=    1 NMatS0=    1 NMatT0=    0 NMatD0=    1 NMtDS0=    0 NMtDT0=    0
         I1Cent=           4 NGrid=           0.
 Symmetry not used in FoFCou.
 Requested convergence on RMS density matrix=1.00D-08 within 128 cycles.
 Requested convergence on MAX density matrix=1.00D-06.
 Requested convergence on             energy=1.00D-06.
 No special actions if energy rises.
 Keep R1 and R2 ints in memory in canonical form, NReq=234659907.
 Integral accuracy reduced to 1.0D-05 until final iterations.
 Initial convergence to 1.0D-05 achieved.  Increase integral accuracy.
 SCF Done:  E(UM062X) =  -301.805980464     A.U. after   22 cycles
             Convg  =    0.2546D-08             -V/T =  2.0024
 <Sx>= 0.0000 <Sy>= 0.0000 <Sz>= 1.0000 <S**2>= 2.0149 S= 1.0049
 <L.S>= 0.000000000000E+00
 Annihilation of the first spin contaminant:
 S**2 before annihilation     2.0149,   after     2.0001
 Range of M.O.s used for correlation:     1   154
 NBasis=   154 NAE=    18 NBE=    16 NFC=     0 NFV=     0
 NROrb=    154 NOA=    18 NOB=    16 NVA=   136 NVB=   138

 **** Warning!!: The largest alpha MO coefficient is  0.17477680D+02


 **** Warning!!: The largest beta MO coefficient is  0.18020380D+02

 Symmetrizing basis deriv contribution to polar:
 IMax=3 JMax=2 DiffMx= 0.00D+00
 G2DrvN: will do     7 centers at a time, making    1 passes doing MaxLOS=3.
 Calling FoFCou, ICntrl=  3107 FMM=F I1Cent=   0 AccDes= 0.00D+00.
 FoFDir/FoFCou used for L=0 through L=3.
 End of G2Drv Frequency-dependent properties file   721 does not exist.
 End of G2Drv Frequency-dependent properties file   722 does not exist.
          IDoAtm=111111
          Differentiating once with respect to electric field.
                with respect to dipole field.
          Differentiating once with respect to nuclear coordinates.
          Keep R1 and R2 ints in memory in canonical form, NReq=233758395.
          There are    21 degrees of freedom in the 1st order CPHF.  IDoFFX=5.
     18 vectors produced by pass  0 Test12= 2.22D-14 4.76D-09 XBig12= 6.19D+01 6.97D+00.
 AX will form    18 AO Fock derivatives at one time.
     18 vectors produced by pass  1 Test12= 2.22D-14 4.76D-09 XBig12= 1.17D+01 5.19D-01.
     18 vectors produced by pass  2 Test12= 2.22D-14 4.76D-09 XBig12= 8.98D-01 2.07D-01.
     18 vectors produced by pass  3 Test12= 2.22D-14 4.76D-09 XBig12= 1.54D-02 2.42D-02.
     18 vectors produced by pass  4 Test12= 2.22D-14 4.76D-09 XBig12= 3.03D-04 2.90D-03.
     18 vectors produced by pass  5 Test12= 2.22D-14 4.76D-09 XBig12= 4.94D-06 3.20D-04.
     18 vectors produced by pass  6 Test12= 2.22D-14 4.76D-09 XBig12= 8.08D-08 5.78D-05.
     17 vectors produced by pass  7 Test12= 2.22D-14 4.76D-09 XBig12= 1.02D-09 4.41D-06.
      6 vectors produced by pass  8 Test12= 2.22D-14 4.76D-09 XBig12= 1.09D-11 3.95D-07.
      3 vectors produced by pass  9 Test12= 2.22D-14 4.76D-09 XBig12= 9.04D-14 3.62D-08.
      1 vectors produced by pass 10 Test12= 2.22D-14 4.76D-09 XBig12= 8.80D-16 4.82D-09.
 Inverted reduced A of dimension   153 with in-core refinement.
 Isotropic polarizability for W=    0.000000       31.85 Bohr**3.
 End of Minotr Frequency-dependent properties file   721 does not exist.
 End of Minotr Frequency-dependent properties file   722 does not exist.
 Calling FoFJK, ICntrl=    100127 FMM=F ISym2X=0 I1Cent= 0 IOpClX= 1 NMat=1 NMatS=1 NMatT=0.
 -------------------------------------------------------------------
 Center     Atomic                   Forces (Hartrees/Bohr)
 Number     Number              X              Y              Z
 -------------------------------------------------------------------
      1        8          -0.011070014   -0.002831925   -0.001634245
      2        8           0.000413837    0.003620302    0.001119316
      3        1           0.002507745   -0.001534858    0.000300772
      4        8           0.001988762   -0.002474328    0.000822566
      5        8           0.007111601    0.003306833   -0.000020965
      6        1          -0.000951931   -0.000086025   -0.000587444
 -------------------------------------------------------------------
 Cartesian Forces:  Max     0.011070014 RMS     0.003574794
 IRC-IRC-IRC-IRC-IRC-IRC-IRC-IRC-IRC-IRC-IRC-IRC-IRC-IRC-IRC-IRC-IRC-IRC
 Pt  1 Step number   1 out of a maximum of  20
 CORRECTOR INTEGRATION CONVERGENCE:
   Recorrection delta-x convergence threshold:    0.010000
   Delta-x Convergence NOT Met
 IRC-IRC-IRC-IRC-IRC-IRC-IRC-IRC-IRC-IRC-IRC-IRC-IRC-IRC-IRC-IRC-IRC-IRC
                          Input orientation:                          
 ---------------------------------------------------------------------
 Center     Atomic      Atomic             Coordinates (Angstroms)
 Number     Number       Type             X           Y           Z
 ---------------------------------------------------------------------
      1          8           0       -1.240005   -0.587230   -0.083156
      2          8           0       -1.299915    0.674539    0.085749
      3          1           0       -0.237845   -0.841666   -0.025262
      4          8           0        1.328288    0.583270   -0.172162
      5          8           0        1.158521   -0.685983    0.131874
      6          1           0        1.080762    1.086132    0.623516
 ---------------------------------------------------------------------
                    Distance matrix (angstroms):
                    1          2          3          4          5
     1  O    0.000000
     2  O    1.274434   0.000000
     3  H    1.035575   1.854507   0.000000
     4  O    2.823849   2.642404   2.122450   0.000000
     5  O    2.410170   2.810171   1.413778   1.316154   0.000000
     6  H    2.947115   2.475121   2.424054   0.973263   1.840692
                    6
     6  H    0.000000
 Symmetry turned off by external request.
 Stoichiometry    H2O4(3)
 Framework group  C1[X(H2O4)]
 Deg. of freedom    12
 Full point group                 C1      NOp   1
 Rotational constants (GHZ):     17.4206723      4.8629570      3.8806754
 Standard basis: 6-311+G(2df,2p) (5D, 7F)
 Integral buffers will be    131072 words long.
 Raffenetti 2 integral format.
 Two-electron integral symmetry is turned off.
   154 basis functions,   230 primitive gaussians,   174 cartesian basis functions
    18 alpha electrons       16 beta electrons
       nuclear repulsion energy       124.5947402638 Hartrees.
 NAtoms=    6 NActive=    6 NUniq=    6 SFac= 1.00D+00 NAtFMM=   50 NAOKFM=F Big=F
 One-electron integrals computed using PRISM.
 NBasis=   154 RedAO= T  NBF=   154
 NBsUse=   154 1.00D-06 NBFU=   154
 Initial guess read from the read-write file.
 B after Tr=     0.000000    0.000000    0.000000
         Rot=    1.000000    0.000000    0.000000    0.000000 Ang=   0.00 deg.
 Initial guess <Sx>= 0.0000 <Sy>= 0.0000 <Sz>= 1.0000 <S**2>= 2.0149 S= 1.0050
 Harris functional with IExCor= 1009 diagonalized for initial guess.
 ExpMin= 8.45D-02 ExpMax= 8.59D+03 ExpMxC= 1.30D+03 IAcc=2 IRadAn=         0 AccDes= 0.00D+00
 HarFok:  IExCor= 1009 AccDes= 0.00D+00 IRadAn=         0 IDoV= 1
 ScaDFX=  1.000000  1.000000  1.000000  1.000000
 FoFCou: FMM=F IPFlag=           0 FMFlag=      100000 FMFlg1=           0
         NFxFlg=           0 DoJE=T BraDBF=F KetDBF=T FulRan=T
         Omega=  0.000000  0.000000  1.000000  0.000000  0.000000 ICntrl=     500 IOpCl=  0
         NMat0=    1 NMatS0=    1 NMatT0=    0 NMatD0=    1 NMtDS0=    0 NMtDT0=    0
         I1Cent=           4 NGrid=           0.
 Symmetry not used in FoFCou.
 Requested convergence on RMS density matrix=1.00D-08 within 128 cycles.
 Requested convergence on MAX density matrix=1.00D-06.
 Requested convergence on             energy=1.00D-06.
 No special actions if energy rises.
 Keep R1 and R2 ints in memory in canonical form, NReq=234659907.
 Integral accuracy reduced to 1.0D-05 until final iterations.
 Initial convergence to 1.0D-05 achieved.  Increase integral accuracy.
 SCF Done:  E(UM062X) =  -301.806046230     A.U. after   17 cycles
             Convg  =    0.9299D-08             -V/T =  2.0024
 <Sx>= 0.0000 <Sy>= 0.0000 <Sz>= 1.0000 <S**2>= 2.0153 S= 1.0051
 <L.S>= 0.000000000000E+00
 Annihilation of the first spin contaminant:
 S**2 before annihilation     2.0153,   after     2.0001
 Range of M.O.s used for correlation:     1   154
 NBasis=   154 NAE=    18 NBE=    16 NFC=     0 NFV=     0
 NROrb=    154 NOA=    18 NOB=    16 NVA=   136 NVB=   138

 **** Warning!!: The largest alpha MO coefficient is  0.17468029D+02


 **** Warning!!: The largest beta MO coefficient is  0.18076126D+02

 Symmetrizing basis deriv contribution to polar:
 IMax=3 JMax=2 DiffMx= 0.00D+00
 G2DrvN: will do     7 centers at a time, making    1 passes doing MaxLOS=3.
 Calling FoFCou, ICntrl=  3107 FMM=F I1Cent=   0 AccDes= 0.00D+00.
 FoFDir/FoFCou used for L=0 through L=3.
 End of G2Drv Frequency-dependent properties file   721 does not exist.
 End of G2Drv Frequency-dependent properties file   722 does not exist.
          IDoAtm=111111
          Differentiating once with respect to electric field.
                with respect to dipole field.
          Differentiating once with respect to nuclear coordinates.
          Keep R1 and R2 ints in memory in canonical form, NReq=233758395.
          There are    21 degrees of freedom in the 1st order CPHF.  IDoFFX=5.
     18 vectors produced by pass  0 Test12= 2.22D-14 4.76D-09 XBig12= 6.53D+01 7.19D+00.
 AX will form    18 AO Fock derivatives at one time.
     18 vectors produced by pass  1 Test12= 2.22D-14 4.76D-09 XBig12= 1.18D+01 5.23D-01.
     18 vectors produced by pass  2 Test12= 2.22D-14 4.76D-09 XBig12= 9.06D-01 2.04D-01.
     18 vectors produced by pass  3 Test12= 2.22D-14 4.76D-09 XBig12= 1.62D-02 2.44D-02.
     18 vectors produced by pass  4 Test12= 2.22D-14 4.76D-09 XBig12= 3.23D-04 2.91D-03.
     18 vectors produced by pass  5 Test12= 2.22D-14 4.76D-09 XBig12= 5.40D-06 3.42D-04.
     18 vectors produced by pass  6 Test12= 2.22D-14 4.76D-09 XBig12= 8.66D-08 5.84D-05.
     18 vectors produced by pass  7 Test12= 2.22D-14 4.76D-09 XBig12= 1.07D-09 4.56D-06.
      6 vectors produced by pass  8 Test12= 2.22D-14 4.76D-09 XBig12= 1.07D-11 4.52D-07.
      3 vectors produced by pass  9 Test12= 2.22D-14 4.76D-09 XBig12= 8.10D-14 3.00D-08.
 Inverted reduced A of dimension   153 with in-core refinement.
 Isotropic polarizability for W=    0.000000       32.42 Bohr**3.
 End of Minotr Frequency-dependent properties file   721 does not exist.
 End of Minotr Frequency-dependent properties file   722 does not exist.
 Calling FoFJK, ICntrl=    100127 FMM=F ISym2X=0 I1Cent= 0 IOpClX= 1 NMat=1 NMatS=1 NMatT=0.
 -------------------------------------------------------------------
 Center     Atomic                   Forces (Hartrees/Bohr)
 Number     Number              X              Y              Z
 -------------------------------------------------------------------
      1        8          -0.005966966   -0.002191947   -0.000996385
      2        8           0.000423418    0.002053298    0.000809433
      3        1          -0.000915475   -0.000445697    0.000047990
      4        8           0.001833320   -0.001533064    0.000398715
      5        8           0.005516980    0.002079518    0.000096018
      6        1          -0.000891277    0.000037893   -0.000355771
 -------------------------------------------------------------------
 Cartesian Forces:  Max     0.005966966 RMS     0.002224298
 IRC-IRC-IRC-IRC-IRC-IRC-IRC-IRC-IRC-IRC-IRC-IRC-IRC-IRC-IRC-IRC-IRC-IRC
 Error in corrector energy =          -0.0000022999
 Magnitude of corrector gradient =     0.0099172047
 Magnitude of analytic gradient =      0.0094368972
 Magnitude of difference =             0.0005441266
 Angle between gradients (degrees)=    1.5144
 Pt  1 Step number   2 out of a maximum of  20
 CORRECTOR INTEGRATION CONVERGENCE:
   Recorrection delta-x convergence threshold:    0.010000
   Delta-x Convergence Met
 Point Number:   1          Path Number:   1
   CHANGE IN THE REACTION COORDINATE =    0.11802
   NET REACTION COORDINATE UP TO THIS POINT =    0.11802
  # OF POINTS ALONG THE PATH =   1
  # OF STEPS =   2

 Calculating another point on the path.
 IRC-IRC-IRC-IRC-IRC-IRC-IRC-IRC-IRC-IRC-IRC-IRC-IRC-IRC-IRC-IRC-IRC-IRC
                          Input orientation:                          
 ---------------------------------------------------------------------
 Center     Atomic      Atomic             Coordinates (Angstroms)
 Number     Number       Type             X           Y           Z
 ---------------------------------------------------------------------
      1          8           0       -1.248506   -0.590131   -0.084575
      2          8           0       -1.299307    0.677015    0.086952
      3          1           0       -0.264134   -0.849511   -0.023969
      4          8           0        1.331309    0.581510   -0.171685
      5          8           0        1.166499   -0.683383    0.132085
      6          1           0        1.057748    1.087399    0.614715
 ---------------------------------------------------------------------
                    Distance matrix (angstroms):
                    1          2          3          4          5
     1  O    0.000000
     2  O    1.279711   0.000000
     3  H    1.019774   1.847747   0.000000
     4  O    2.834744   2.645025   2.148274   0.000000
     5  O    2.426497   2.816544   1.448676   1.311256   0.000000
     6  H    2.936310   2.450032   2.430413   0.974260   1.838593
                    6
     6  H    0.000000
 Symmetry turned off by external request.
 Stoichiometry    H2O4(3)
 Framework group  C1[X(H2O4)]
 Deg. of freedom    12
 Full point group                 C1      NOp   1
 Rotational constants (GHZ):     17.4021754      4.8305856      3.8589103
 Standard basis: 6-311+G(2df,2p) (5D, 7F)
 Integral buffers will be    131072 words long.
 Raffenetti 2 integral format.
 Two-electron integral symmetry is turned off.
   154 basis functions,   230 primitive gaussians,   174 cartesian basis functions
    18 alpha electrons       16 beta electrons
       nuclear repulsion energy       124.3966293727 Hartrees.
 NAtoms=    6 NActive=    6 NUniq=    6 SFac= 1.00D+00 NAtFMM=   50 NAOKFM=F Big=F
 One-electron integrals computed using PRISM.
 NBasis=   154 RedAO= T  NBF=   154
 NBsUse=   154 1.00D-06 NBFU=   154
 Initial guess read from the read-write file.
 B after Tr=     0.000000    0.000000    0.000000
         Rot=    1.000000    0.000000    0.000000    0.000000 Ang=   0.00 deg.
 Initial guess <Sx>= 0.0000 <Sy>= 0.0000 <Sz>= 1.0000 <S**2>= 2.0153 S= 1.0051
 Harris functional with IExCor= 1009 diagonalized for initial guess.
 ExpMin= 8.45D-02 ExpMax= 8.59D+03 ExpMxC= 1.30D+03 IAcc=2 IRadAn=         0 AccDes= 0.00D+00
 HarFok:  IExCor= 1009 AccDes= 0.00D+00 IRadAn=         0 IDoV= 1
 ScaDFX=  1.000000  1.000000  1.000000  1.000000
 FoFCou: FMM=F IPFlag=           0 FMFlag=      100000 FMFlg1=           0
         NFxFlg=           0 DoJE=T BraDBF=F KetDBF=T FulRan=T
         Omega=  0.000000  0.000000  1.000000  0.000000  0.000000 ICntrl=     500 IOpCl=  0
         NMat0=    1 NMatS0=    1 NMatT0=    0 NMatD0=    1 NMtDS0=    0 NMtDT0=    0
         I1Cent=           4 NGrid=           0.
 Symmetry not used in FoFCou.
 Requested convergence on RMS density matrix=1.00D-08 within 128 cycles.
 Requested convergence on MAX density matrix=1.00D-06.
 Requested convergence on             energy=1.00D-06.
 No special actions if energy rises.
 Keep R1 and R2 ints in memory in canonical form, NReq=234659907.
 Integral accuracy reduced to 1.0D-05 until final iterations.
 Initial convergence to 1.0D-05 achieved.  Increase integral accuracy.
 SCF Done:  E(UM062X) =  -301.806424519     A.U. after   23 cycles
             Convg  =    0.6855D-08             -V/T =  2.0024
 <Sx>= 0.0000 <Sy>= 0.0000 <Sz>= 1.0000 <S**2>= 2.0142 S= 1.0047
 <L.S>= 0.000000000000E+00
 Annihilation of the first spin contaminant:
 S**2 before annihilation     2.0142,   after     2.0001
 Range of M.O.s used for correlation:     1   154
 NBasis=   154 NAE=    18 NBE=    16 NFC=     0 NFV=     0
 NROrb=    154 NOA=    18 NOB=    16 NVA=   136 NVB=   138

 **** Warning!!: The largest alpha MO coefficient is  0.17308522D+02


 **** Warning!!: The largest beta MO coefficient is  0.17907612D+02

 Symmetrizing basis deriv contribution to polar:
 IMax=3 JMax=2 DiffMx= 0.00D+00
 G2DrvN: will do     7 centers at a time, making    1 passes doing MaxLOS=3.
 Calling FoFCou, ICntrl=  3107 FMM=F I1Cent=   0 AccDes= 0.00D+00.
 FoFDir/FoFCou used for L=0 through L=3.
 End of G2Drv Frequency-dependent properties file   721 does not exist.
 End of G2Drv Frequency-dependent properties file   722 does not exist.
          IDoAtm=111111
          Differentiating once with respect to electric field.
                with respect to dipole field.
          Differentiating once with respect to nuclear coordinates.
          Keep R1 and R2 ints in memory in canonical form, NReq=233758395.
          There are    21 degrees of freedom in the 1st order CPHF.  IDoFFX=5.
     18 vectors produced by pass  0 Test12= 2.22D-14 4.76D-09 XBig12= 5.43D+01 6.38D+00.
 AX will form    18 AO Fock derivatives at one time.
     18 vectors produced by pass  1 Test12= 2.22D-14 4.76D-09 XBig12= 1.15D+01 5.12D-01.
     18 vectors produced by pass  2 Test12= 2.22D-14 4.76D-09 XBig12= 9.05D-01 2.50D-01.
     18 vectors produced by pass  3 Test12= 2.22D-14 4.76D-09 XBig12= 1.47D-02 2.35D-02.
     18 vectors produced by pass  4 Test12= 2.22D-14 4.76D-09 XBig12= 2.81D-04 2.24D-03.
     18 vectors produced by pass  5 Test12= 2.22D-14 4.76D-09 XBig12= 4.10D-06 3.37D-04.
     18 vectors produced by pass  6 Test12= 2.22D-14 4.76D-09 XBig12= 7.54D-08 5.81D-05.
     17 vectors produced by pass  7 Test12= 2.22D-14 4.76D-09 XBig12= 9.45D-10 3.97D-06.
      6 vectors produced by pass  8 Test12= 2.22D-14 4.76D-09 XBig12= 1.04D-11 3.59D-07.
      3 vectors produced by pass  9 Test12= 2.22D-14 4.76D-09 XBig12= 9.05D-14 3.38D-08.
 Inverted reduced A of dimension   152 with in-core refinement.
 Isotropic polarizability for W=    0.000000       30.63 Bohr**3.
 End of Minotr Frequency-dependent properties file   721 does not exist.
 End of Minotr Frequency-dependent properties file   722 does not exist.
 Calling FoFJK, ICntrl=    100127 FMM=F ISym2X=0 I1Cent= 0 IOpClX= 1 NMat=1 NMatS=1 NMatT=0.
 -------------------------------------------------------------------
 Center     Atomic                   Forces (Hartrees/Bohr)
 Number     Number              X              Y              Z
 -------------------------------------------------------------------
      1        8          -0.008947158   -0.001896848   -0.001382229
      2        8           0.000520864    0.001754740    0.001095782
      3        1          -0.000330311   -0.000711956    0.000267261
      4        8           0.003038743   -0.000853951    0.000687223
      5        8           0.007098095    0.001844909    0.000248696
      6        1          -0.001380232   -0.000136894   -0.000916733
 -------------------------------------------------------------------
 Cartesian Forces:  Max     0.008947158 RMS     0.002961296
 IRC-IRC-IRC-IRC-IRC-IRC-IRC-IRC-IRC-IRC-IRC-IRC-IRC-IRC-IRC-IRC-IRC-IRC
 Pt  2 Step number   1 out of a maximum of  20
 CORRECTOR INTEGRATION CONVERGENCE:
   Recorrection delta-x convergence threshold:    0.010000
   Delta-x Convergence Met
 Point Number:   2          Path Number:   1
   CHANGE IN THE REACTION COORDINATE =    0.12447
   NET REACTION COORDINATE UP TO THIS POINT =    0.24249
  # OF POINTS ALONG THE PATH =   2
  # OF STEPS =   1

 Calculating another point on the path.
 IRC-IRC-IRC-IRC-IRC-IRC-IRC-IRC-IRC-IRC-IRC-IRC-IRC-IRC-IRC-IRC-IRC-IRC
                          Input orientation:                          
 ---------------------------------------------------------------------
 Center     Atomic      Atomic             Coordinates (Angstroms)
 Number     Number       Type             X           Y           Z
 ---------------------------------------------------------------------
      1          8           0       -1.257855   -0.592176   -0.086075
      2          8           0       -1.298732    0.678602    0.088214
      3          1           0       -0.283094   -0.857770   -0.019104
      4          8           0        1.335264    0.580641   -0.171261
      5          8           0        1.174389   -0.681603    0.132387
      6          1           0        1.027965    1.088467    0.602122
 ---------------------------------------------------------------------
                    Distance matrix (angstroms):
                    1          2          3          4          5
     1  O    0.000000
     2  O    1.283326   0.000000
     3  H    1.012514   1.844852   0.000000
     4  O    2.847283   2.648558   2.170544   0.000000
     5  O    2.443672   2.822843   1.475886   1.308183   0.000000
     6  H    2.919443   2.417770   2.427475   0.974906   1.837183
                    6
     6  H    0.000000
 Symmetry turned off by external request.
 Stoichiometry    H2O4(3)
 Framework group  C1[X(H2O4)]
 Deg. of freedom    12
 Full point group                 C1      NOp   1
 Rotational constants (GHZ):     17.3856162      4.7960723      3.8355881
 Standard basis: 6-311+G(2df,2p) (5D, 7F)
 Integral buffers will be    131072 words long.
 Raffenetti 2 integral format.
 Two-electron integral symmetry is turned off.
   154 basis functions,   230 primitive gaussians,   174 cartesian basis functions
    18 alpha electrons       16 beta electrons
       nuclear repulsion energy       124.1779330982 Hartrees.
 NAtoms=    6 NActive=    6 NUniq=    6 SFac= 1.00D+00 NAtFMM=   50 NAOKFM=F Big=F
 One-electron integrals computed using PRISM.
 NBasis=   154 RedAO= T  NBF=   154
 NBsUse=   154 1.00D-06 NBFU=   154
 Initial guess read from the read-write file.
 B after Tr=     0.000000    0.000000    0.000000
         Rot=    1.000000    0.000000    0.000000    0.000000 Ang=   0.00 deg.
 Initial guess <Sx>= 0.0000 <Sy>= 0.0000 <Sz>= 1.0000 <S**2>= 2.0143 S= 1.0048
 Harris functional with IExCor= 1009 diagonalized for initial guess.
 ExpMin= 8.45D-02 ExpMax= 8.59D+03 ExpMxC= 1.30D+03 IAcc=2 IRadAn=         0 AccDes= 0.00D+00
 HarFok:  IExCor= 1009 AccDes= 0.00D+00 IRadAn=         0 IDoV= 1
 ScaDFX=  1.000000  1.000000  1.000000  1.000000
 FoFCou: FMM=F IPFlag=           0 FMFlag=      100000 FMFlg1=           0
         NFxFlg=           0 DoJE=T BraDBF=F KetDBF=T FulRan=T
         Omega=  0.000000  0.000000  1.000000  0.000000  0.000000 ICntrl=     500 IOpCl=  0
         NMat0=    1 NMatS0=    1 NMatT0=    0 NMatD0=    1 NMtDS0=    0 NMtDT0=    0
         I1Cent=           4 NGrid=           0.
 Symmetry not used in FoFCou.
 Requested convergence on RMS density matrix=1.00D-08 within 128 cycles.
 Requested convergence on MAX density matrix=1.00D-06.
 Requested convergence on             energy=1.00D-06.
 No special actions if energy rises.
 Keep R1 and R2 ints in memory in canonical form, NReq=234659907.
 Integral accuracy reduced to 1.0D-05 until final iterations.
 Initial convergence to 1.0D-05 achieved.  Increase integral accuracy.
 SCF Done:  E(UM062X) =  -301.806895352     A.U. after   26 cycles
             Convg  =    0.2977D-08             -V/T =  2.0024
 <Sx>= 0.0000 <Sy>= 0.0000 <Sz>= 1.0000 <S**2>= 2.0136 S= 1.0045
 <L.S>= 0.000000000000E+00
 Annihilation of the first spin contaminant:
 S**2 before annihilation     2.0136,   after     2.0001
 Range of M.O.s used for correlation:     1   154
 NBasis=   154 NAE=    18 NBE=    16 NFC=     0 NFV=     0
 NROrb=    154 NOA=    18 NOB=    16 NVA=   136 NVB=   138

 **** Warning!!: The largest alpha MO coefficient is  0.17136629D+02


 **** Warning!!: The largest beta MO coefficient is  0.17652288D+02

 Symmetrizing basis deriv contribution to polar:
 IMax=3 JMax=2 DiffMx= 0.00D+00
 G2DrvN: will do     7 centers at a time, making    1 passes doing MaxLOS=3.
 Calling FoFCou, ICntrl=  3107 FMM=F I1Cent=   0 AccDes= 0.00D+00.
 FoFDir/FoFCou used for L=0 through L=3.
 End of G2Drv Frequency-dependent properties file   721 does not exist.
 End of G2Drv Frequency-dependent properties file   722 does not exist.
          IDoAtm=111111
          Differentiating once with respect to electric field.
                with respect to dipole field.
          Differentiating once with respect to nuclear coordinates.
          Keep R1 and R2 ints in memory in canonical form, NReq=233758395.
          There are    21 degrees of freedom in the 1st order CPHF.  IDoFFX=5.
     18 vectors produced by pass  0 Test12= 2.22D-14 4.76D-09 XBig12= 4.73D+01 5.78D+00.
 AX will form    18 AO Fock derivatives at one time.
     18 vectors produced by pass  1 Test12= 2.22D-14 4.76D-09 XBig12= 1.13D+01 5.04D-01.
     18 vectors produced by pass  2 Test12= 2.22D-14 4.76D-09 XBig12= 9.11D-01 2.67D-01.
     18 vectors produced by pass  3 Test12= 2.22D-14 4.76D-09 XBig12= 1.40D-02 2.17D-02.
     18 vectors produced by pass  4 Test12= 2.22D-14 4.76D-09 XBig12= 2.56D-04 2.42D-03.
     18 vectors produced by pass  5 Test12= 2.22D-14 4.76D-09 XBig12= 3.47D-06 3.16D-04.
     18 vectors produced by pass  6 Test12= 2.22D-14 4.76D-09 XBig12= 6.68D-08 5.79D-05.
     17 vectors produced by pass  7 Test12= 2.22D-14 4.76D-09 XBig12= 8.35D-10 3.87D-06.
      6 vectors produced by pass  8 Test12= 2.22D-14 4.76D-09 XBig12= 9.39D-12 3.46D-07.
      3 vectors produced by pass  9 Test12= 2.22D-14 4.76D-09 XBig12= 8.45D-14 3.43D-08.
 Inverted reduced A of dimension   152 with in-core refinement.
 Isotropic polarizability for W=    0.000000       29.46 Bohr**3.
 End of Minotr Frequency-dependent properties file   721 does not exist.
 End of Minotr Frequency-dependent properties file   722 does not exist.
 Calling FoFJK, ICntrl=    100127 FMM=F ISym2X=0 I1Cent= 0 IOpClX= 1 NMat=1 NMatS=1 NMatT=0.
 -------------------------------------------------------------------
 Center     Atomic                   Forces (Hartrees/Bohr)
 Number     Number              X              Y              Z
 -------------------------------------------------------------------
      1        8          -0.009202643   -0.001722169   -0.001451211
      2        8           0.000453863    0.001307696    0.001275777
      3        1          -0.000839647   -0.000564938    0.000350466
      4        8           0.003868174   -0.000343591    0.000897465
      5        8           0.007453278    0.001550366    0.000252003
      6        1          -0.001733025   -0.000227364   -0.001324501
 -------------------------------------------------------------------
 Cartesian Forces:  Max     0.009202643 RMS     0.003101660
 IRC-IRC-IRC-IRC-IRC-IRC-IRC-IRC-IRC-IRC-IRC-IRC-IRC-IRC-IRC-IRC-IRC-IRC
 Pt  3 Step number   1 out of a maximum of  20
 CORRECTOR INTEGRATION CONVERGENCE:
   Recorrection delta-x convergence threshold:    0.010000
   Delta-x Convergence Met
 Point Number:   3          Path Number:   1
   CHANGE IN THE REACTION COORDINATE =    0.12470
   NET REACTION COORDINATE UP TO THIS POINT =    0.36719
  # OF POINTS ALONG THE PATH =   3
  # OF STEPS =   1

 Calculating another point on the path.
 IRC-IRC-IRC-IRC-IRC-IRC-IRC-IRC-IRC-IRC-IRC-IRC-IRC-IRC-IRC-IRC-IRC-IRC
                          Input orientation:                          
 ---------------------------------------------------------------------
 Center     Atomic      Atomic             Coordinates (Angstroms)
 Number     Number       Type             X           Y           Z
 ---------------------------------------------------------------------
      1          8           0       -1.266837   -0.593873   -0.087529
      2          8           0       -1.298353    0.679767    0.089554
      3          1           0       -0.300518   -0.865313   -0.013144
      4          8           0        1.339632    0.580137   -0.170780
      5          8           0        1.181784   -0.680143    0.132622
      6          1           0        0.995249    1.089282    0.586601
 ---------------------------------------------------------------------
                    Distance matrix (angstroms):
                    1          2          3          4          5
     1  O    0.000000
     2  O    1.286277   0.000000
     3  H    1.006472   1.842144   0.000000
     4  O    2.859880   2.652671   2.191863   0.000000
     5  O    2.460012   2.828832   1.500918   1.305861   0.000000
     6  H    2.899051   2.382303   2.420567   0.975426   1.836234
                    6
     6  H    0.000000
 Symmetry turned off by external request.
 Stoichiometry    H2O4(3)
 Framework group  C1[X(H2O4)]
 Deg. of freedom    12
 Full point group                 C1      NOp   1
 Rotational constants (GHZ):     17.3733275      4.7625204      3.8128283
 Standard basis: 6-311+G(2df,2p) (5D, 7F)
 Integral buffers will be    131072 words long.
 Raffenetti 2 integral format.
 Two-electron integral symmetry is turned off.
   154 basis functions,   230 primitive gaussians,   174 cartesian basis functions
    18 alpha electrons       16 beta electrons
       nuclear repulsion energy       123.9711835960 Hartrees.
 NAtoms=    6 NActive=    6 NUniq=    6 SFac= 1.00D+00 NAtFMM=   50 NAOKFM=F Big=F
 One-electron integrals computed using PRISM.
 NBasis=   154 RedAO= T  NBF=   154
 NBsUse=   154 1.00D-06 NBFU=   154
 Initial guess read from the read-write file.
 B after Tr=     0.000000    0.000000    0.000000
         Rot=    1.000000    0.000000    0.000000    0.000000 Ang=   0.00 deg.
 Initial guess <Sx>= 0.0000 <Sy>= 0.0000 <Sz>= 1.0000 <S**2>= 2.0136 S= 1.0045
 Harris functional with IExCor= 1009 diagonalized for initial guess.
 ExpMin= 8.45D-02 ExpMax= 8.59D+03 ExpMxC= 1.30D+03 IAcc=2 IRadAn=         0 AccDes= 0.00D+00
 HarFok:  IExCor= 1009 AccDes= 0.00D+00 IRadAn=         0 IDoV= 1
 ScaDFX=  1.000000  1.000000  1.000000  1.000000
 FoFCou: FMM=F IPFlag=           0 FMFlag=      100000 FMFlg1=           0
         NFxFlg=           0 DoJE=T BraDBF=F KetDBF=T FulRan=T
         Omega=  0.000000  0.000000  1.000000  0.000000  0.000000 ICntrl=     500 IOpCl=  0
         NMat0=    1 NMatS0=    1 NMatT0=    0 NMatD0=    1 NMtDS0=    0 NMtDT0=    0
         I1Cent=           4 NGrid=           0.
 Symmetry not used in FoFCou.
 Requested convergence on RMS density matrix=1.00D-08 within 128 cycles.
 Requested convergence on MAX density matrix=1.00D-06.
 Requested convergence on             energy=1.00D-06.
 No special actions if energy rises.
 Keep R1 and R2 ints in memory in canonical form, NReq=234659907.
 Integral accuracy reduced to 1.0D-05 until final iterations.
 Initial convergence to 1.0D-05 achieved.  Increase integral accuracy.
 SCF Done:  E(UM062X) =  -301.807420804     A.U. after   26 cycles
             Convg  =    0.3770D-08             -V/T =  2.0023
 <Sx>= 0.0000 <Sy>= 0.0000 <Sz>= 1.0000 <S**2>= 2.0130 S= 1.0043
 <L.S>= 0.000000000000E+00
 Annihilation of the first spin contaminant:
 S**2 before annihilation     2.0130,   after     2.0001
 Range of M.O.s used for correlation:     1   154
 NBasis=   154 NAE=    18 NBE=    16 NFC=     0 NFV=     0
 NROrb=    154 NOA=    18 NOB=    16 NVA=   136 NVB=   138

 **** Warning!!: The largest alpha MO coefficient is  0.16971675D+02


 **** Warning!!: The largest beta MO coefficient is  0.17323936D+02

 Symmetrizing basis deriv contribution to polar:
 IMax=3 JMax=2 DiffMx= 0.00D+00
 G2DrvN: will do     7 centers at a time, making    1 passes doing MaxLOS=3.
 Calling FoFCou, ICntrl=  3107 FMM=F I1Cent=   0 AccDes= 0.00D+00.
 FoFDir/FoFCou used for L=0 through L=3.
 End of G2Drv Frequency-dependent properties file   721 does not exist.
 End of G2Drv Frequency-dependent properties file   722 does not exist.
          IDoAtm=111111
          Differentiating once with respect to electric field.
                with respect to dipole field.
          Differentiating once with respect to nuclear coordinates.
          Keep R1 and R2 ints in memory in canonical form, NReq=233758395.
          There are    21 degrees of freedom in the 1st order CPHF.  IDoFFX=5.
     18 vectors produced by pass  0 Test12= 2.22D-14 4.76D-09 XBig12= 4.14D+01 5.22D+00.
 AX will form    18 AO Fock derivatives at one time.
     18 vectors produced by pass  1 Test12= 2.22D-14 4.76D-09 XBig12= 1.12D+01 4.98D-01.
     18 vectors produced by pass  2 Test12= 2.22D-14 4.76D-09 XBig12= 9.20D-01 2.78D-01.
     18 vectors produced by pass  3 Test12= 2.22D-14 4.76D-09 XBig12= 1.37D-02 1.95D-02.
     18 vectors produced by pass  4 Test12= 2.22D-14 4.76D-09 XBig12= 2.36D-04 2.22D-03.
     18 vectors produced by pass  5 Test12= 2.22D-14 4.76D-09 XBig12= 3.04D-06 2.76D-04.
     18 vectors produced by pass  6 Test12= 2.22D-14 4.76D-09 XBig12= 5.16D-08 5.13D-05.
     17 vectors produced by pass  7 Test12= 2.22D-14 4.76D-09 XBig12= 6.51D-10 3.86D-06.
      6 vectors produced by pass  8 Test12= 2.22D-14 4.76D-09 XBig12= 7.45D-12 3.58D-07.
      3 vectors produced by pass  9 Test12= 2.22D-14 4.76D-09 XBig12= 6.78D-14 3.85D-08.
 Inverted reduced A of dimension   152 with in-core refinement.
 Isotropic polarizability for W=    0.000000       28.45 Bohr**3.
 End of Minotr Frequency-dependent properties file   721 does not exist.
 End of Minotr Frequency-dependent properties file   722 does not exist.
 Calling FoFJK, ICntrl=    100127 FMM=F ISym2X=0 I1Cent= 0 IOpClX= 1 NMat=1 NMatS=1 NMatT=0.
 -------------------------------------------------------------------
 Center     Atomic                   Forces (Hartrees/Bohr)
 Number     Number              X              Y              Z
 -------------------------------------------------------------------
      1        8          -0.009655971   -0.001560063   -0.001531744
      2        8           0.000351492    0.001018133    0.001471509
      3        1          -0.000892642   -0.000548462    0.000454224
      4        8           0.004648542    0.000007863    0.001105785
      5        8           0.007653402    0.001396097    0.000205137
      6        1          -0.002104823   -0.000313568   -0.001704911
 -------------------------------------------------------------------
 Cartesian Forces:  Max     0.009655971 RMS     0.003278550
 IRC-IRC-IRC-IRC-IRC-IRC-IRC-IRC-IRC-IRC-IRC-IRC-IRC-IRC-IRC-IRC-IRC-IRC
 Pt  4 Step number   1 out of a maximum of  20
 CORRECTOR INTEGRATION CONVERGENCE:
   Recorrection delta-x convergence threshold:    0.010000
   Delta-x Convergence Met
 Point Number:   4          Path Number:   1
   CHANGE IN THE REACTION COORDINATE =    0.12474
   NET REACTION COORDINATE UP TO THIS POINT =    0.49193
  # OF POINTS ALONG THE PATH =   4
  # OF STEPS =   1

 Calculating another point on the path.
 IRC-IRC-IRC-IRC-IRC-IRC-IRC-IRC-IRC-IRC-IRC-IRC-IRC-IRC-IRC-IRC-IRC-IRC
                          Input orientation:                          
 ---------------------------------------------------------------------
 Center     Atomic      Atomic             Coordinates (Angstroms)
 Number     Number       Type             X           Y           Z
 ---------------------------------------------------------------------
      1          8           0       -1.275284   -0.595275   -0.088885
      2          8           0       -1.298057    0.680599    0.090940
      3          1           0       -0.315918   -0.872151   -0.006295
      4          8           0        1.344281    0.579924   -0.170185
      5          8           0        1.188540   -0.678937    0.132753
      6          1           0        0.958986    1.089423    0.567746
 ---------------------------------------------------------------------
                    Distance matrix (angstroms):
                    1          2          3          4          5
     1  O    0.000000
     2  O    1.288685   0.000000
     3  H    1.001930   1.839860   0.000000
     4  O    2.872251   2.657117   2.211706   0.000000
     5  O    2.475187   2.834299   1.523174   1.304131   0.000000
     6  H    2.874253   2.342802   2.408874   0.976004   1.835487
                    6
     6  H    0.000000
 Symmetry turned off by external request.
 Stoichiometry    H2O4(3)
 Framework group  C1[X(H2O4)]
 Deg. of freedom    12
 Full point group                 C1      NOp   1
 Rotational constants (GHZ):     17.3663538      4.7310107      3.7913323
 Standard basis: 6-311+G(2df,2p) (5D, 7F)
 Integral buffers will be    131072 words long.
 Raffenetti 2 integral format.
 Two-electron integral symmetry is turned off.
   154 basis functions,   230 primitive gaussians,   174 cartesian basis functions
    18 alpha electrons       16 beta electrons
       nuclear repulsion energy       123.7818893148 Hartrees.
 NAtoms=    6 NActive=    6 NUniq=    6 SFac= 1.00D+00 NAtFMM=   50 NAOKFM=F Big=F
 One-electron integrals computed using PRISM.
 NBasis=   154 RedAO= T  NBF=   154
 NBsUse=   154 1.00D-06 NBFU=   154
 Initial guess read from the read-write file.
 B after Tr=     0.000000    0.000000    0.000000
         Rot=    1.000000    0.000000    0.000000    0.000000 Ang=   0.00 deg.
 Initial guess <Sx>= 0.0000 <Sy>= 0.0000 <Sz>= 1.0000 <S**2>= 2.0131 S= 1.0044
 Harris functional with IExCor= 1009 diagonalized for initial guess.
 ExpMin= 8.45D-02 ExpMax= 8.59D+03 ExpMxC= 1.30D+03 IAcc=2 IRadAn=         0 AccDes= 0.00D+00
 HarFok:  IExCor= 1009 AccDes= 0.00D+00 IRadAn=         0 IDoV= 1
 ScaDFX=  1.000000  1.000000  1.000000  1.000000
 FoFCou: FMM=F IPFlag=           0 FMFlag=      100000 FMFlg1=           0
         NFxFlg=           0 DoJE=T BraDBF=F KetDBF=T FulRan=T
         Omega=  0.000000  0.000000  1.000000  0.000000  0.000000 ICntrl=     500 IOpCl=  0
         NMat0=    1 NMatS0=    1 NMatT0=    0 NMatD0=    1 NMtDS0=    0 NMtDT0=    0
         I1Cent=           4 NGrid=           0.
 Symmetry not used in FoFCou.
 Requested convergence on RMS density matrix=1.00D-08 within 128 cycles.
 Requested convergence on MAX density matrix=1.00D-06.
 Requested convergence on             energy=1.00D-06.
 No special actions if energy rises.
 Keep R1 and R2 ints in memory in canonical form, NReq=234659907.
 Integral accuracy reduced to 1.0D-05 until final iterations.
 Initial convergence to 1.0D-05 achieved.  Increase integral accuracy.
 SCF Done:  E(UM062X) =  -301.808004981     A.U. after   26 cycles
             Convg  =    0.4687D-08             -V/T =  2.0023
 <Sx>= 0.0000 <Sy>= 0.0000 <Sz>= 1.0000 <S**2>= 2.0126 S= 1.0042
 <L.S>= 0.000000000000E+00
 Annihilation of the first spin contaminant:
 S**2 before annihilation     2.0126,   after     2.0001
 Range of M.O.s used for correlation:     1   154
 NBasis=   154 NAE=    18 NBE=    16 NFC=     0 NFV=     0
 NROrb=    154 NOA=    18 NOB=    16 NVA=   136 NVB=   138

 **** Warning!!: The largest alpha MO coefficient is  0.16828851D+02


 **** Warning!!: The largest beta MO coefficient is  0.16934081D+02

 Symmetrizing basis deriv contribution to polar:
 IMax=3 JMax=2 DiffMx= 0.00D+00
 G2DrvN: will do     7 centers at a time, making    1 passes doing MaxLOS=3.
 Calling FoFCou, ICntrl=  3107 FMM=F I1Cent=   0 AccDes= 0.00D+00.
 FoFDir/FoFCou used for L=0 through L=3.
 End of G2Drv Frequency-dependent properties file   721 does not exist.
 End of G2Drv Frequency-dependent properties file   722 does not exist.
          IDoAtm=111111
          Differentiating once with respect to electric field.
                with respect to dipole field.
          Differentiating once with respect to nuclear coordinates.
          Keep R1 and R2 ints in memory in canonical form, NReq=233758395.
          There are    21 degrees of freedom in the 1st order CPHF.  IDoFFX=5.
     18 vectors produced by pass  0 Test12= 2.22D-14 4.76D-09 XBig12= 3.66D+01 4.71D+00.
 AX will form    18 AO Fock derivatives at one time.
     18 vectors produced by pass  1 Test12= 2.22D-14 4.76D-09 XBig12= 1.10D+01 4.92D-01.
     18 vectors produced by pass  2 Test12= 2.22D-14 4.76D-09 XBig12= 9.28D-01 2.84D-01.
     18 vectors produced by pass  3 Test12= 2.22D-14 4.76D-09 XBig12= 1.36D-02 1.87D-02.
     18 vectors produced by pass  4 Test12= 2.22D-14 4.76D-09 XBig12= 2.24D-04 1.85D-03.
     18 vectors produced by pass  5 Test12= 2.22D-14 4.76D-09 XBig12= 2.77D-06 2.43D-04.
     18 vectors produced by pass  6 Test12= 2.22D-14 4.76D-09 XBig12= 3.72D-08 3.87D-05.
     18 vectors produced by pass  7 Test12= 2.22D-14 4.76D-09 XBig12= 3.95D-10 3.35D-06.
      7 vectors produced by pass  8 Test12= 2.22D-14 4.76D-09 XBig12= 4.19D-12 3.20D-07.
      3 vectors produced by pass  9 Test12= 2.22D-14 4.76D-09 XBig12= 3.34D-14 3.08D-08.
 Inverted reduced A of dimension   154 with in-core refinement.
 Isotropic polarizability for W=    0.000000       27.59 Bohr**3.
 End of Minotr Frequency-dependent properties file   721 does not exist.
 End of Minotr Frequency-dependent properties file   722 does not exist.
 Calling FoFJK, ICntrl=    100127 FMM=F ISym2X=0 I1Cent= 0 IOpClX= 1 NMat=1 NMatS=1 NMatT=0.
 -------------------------------------------------------------------
 Center     Atomic                   Forces (Hartrees/Bohr)
 Number     Number              X              Y              Z
 -------------------------------------------------------------------
      1        8          -0.009950019   -0.001465108   -0.001596838
      2        8           0.000327399    0.000819254    0.001664262
      3        1          -0.000963886   -0.000521474    0.000558844
      4        8           0.005318566    0.000325675    0.001499844
      5        8           0.007713285    0.001290142    0.000090766
      6        1          -0.002445344   -0.000448491   -0.002216877
 -------------------------------------------------------------------
 Cartesian Forces:  Max     0.009950019 RMS     0.003429175
 IRC-IRC-IRC-IRC-IRC-IRC-IRC-IRC-IRC-IRC-IRC-IRC-IRC-IRC-IRC-IRC-IRC-IRC
 Pt  5 Step number   1 out of a maximum of  20
 CORRECTOR INTEGRATION CONVERGENCE:
   Recorrection delta-x convergence threshold:    0.010000
   Delta-x Convergence Met
 Point Number:   5          Path Number:   1
   CHANGE IN THE REACTION COORDINATE =    0.12474
   NET REACTION COORDINATE UP TO THIS POINT =    0.61666
  # OF POINTS ALONG THE PATH =   5
  # OF STEPS =   1

 Calculating another point on the path.
 IRC-IRC-IRC-IRC-IRC-IRC-IRC-IRC-IRC-IRC-IRC-IRC-IRC-IRC-IRC-IRC-IRC-IRC
                          Input orientation:                          
 ---------------------------------------------------------------------
 Center     Atomic      Atomic             Coordinates (Angstroms)
 Number     Number       Type             X           Y           Z
 ---------------------------------------------------------------------
      1          8           0       -1.283254   -0.596476   -0.090186
      2          8           0       -1.297806    0.681207    0.092348
      3          1           0       -0.329949   -0.878343    0.001339
      4          8           0        1.349110    0.579912   -0.169403
      5          8           0        1.194711   -0.677907    0.132786
      6          1           0        0.920968    1.088858    0.545480
 ---------------------------------------------------------------------
                    Distance matrix (angstroms):
                    1          2          3          4          5
     1  O    0.000000
     2  O    1.290738   0.000000
     3  H    0.998307   1.837723   0.000000
     4  O    2.884355   2.661754   2.230447   0.000000
     5  O    2.489309   2.839272   1.543386   1.302791   0.000000
     6  H    2.846580   2.300970   2.393901   0.976416   1.834860
                    6
     6  H    0.000000
 Symmetry turned off by external request.
 Stoichiometry    H2O4(3)
 Framework group  C1[X(H2O4)]
 Deg. of freedom    12
 Full point group                 C1      NOp   1
 Rotational constants (GHZ):     17.3642576      4.7013708      3.7709863
 Standard basis: 6-311+G(2df,2p) (5D, 7F)
 Integral buffers will be    131072 words long.
 Raffenetti 2 integral format.
 Two-electron integral symmetry is turned off.
   154 basis functions,   230 primitive gaussians,   174 cartesian basis functions
    18 alpha electrons       16 beta electrons
       nuclear repulsion energy       123.6095963122 Hartrees.
 NAtoms=    6 NActive=    6 NUniq=    6 SFac= 1.00D+00 NAtFMM=   50 NAOKFM=F Big=F
 One-electron integrals computed using PRISM.
 NBasis=   154 RedAO= T  NBF=   154
 NBsUse=   154 1.00D-06 NBFU=   154
 Initial guess read from the read-write file.
 B after Tr=     0.000000    0.000000    0.000000
         Rot=    1.000000    0.000000    0.000000    0.000000 Ang=   0.00 deg.
 Initial guess <Sx>= 0.0000 <Sy>= 0.0000 <Sz>= 1.0000 <S**2>= 2.0126 S= 1.0042
 Harris functional with IExCor= 1009 diagonalized for initial guess.
 ExpMin= 8.45D-02 ExpMax= 8.59D+03 ExpMxC= 1.30D+03 IAcc=2 IRadAn=         0 AccDes= 0.00D+00
 HarFok:  IExCor= 1009 AccDes= 0.00D+00 IRadAn=         0 IDoV= 1
 ScaDFX=  1.000000  1.000000  1.000000  1.000000
 FoFCou: FMM=F IPFlag=           0 FMFlag=      100000 FMFlg1=           0
         NFxFlg=           0 DoJE=T BraDBF=F KetDBF=T FulRan=T
         Omega=  0.000000  0.000000  1.000000  0.000000  0.000000 ICntrl=     500 IOpCl=  0
         NMat0=    1 NMatS0=    1 NMatT0=    0 NMatD0=    1 NMtDS0=    0 NMtDT0=    0
         I1Cent=           4 NGrid=           0.
 Symmetry not used in FoFCou.
 Requested convergence on RMS density matrix=1.00D-08 within 128 cycles.
 Requested convergence on MAX density matrix=1.00D-06.
 Requested convergence on             energy=1.00D-06.
 No special actions if energy rises.
 Keep R1 and R2 ints in memory in canonical form, NReq=234659907.
 Integral accuracy reduced to 1.0D-05 until final iterations.
 Initial convergence to 1.0D-05 achieved.  Increase integral accuracy.
 SCF Done:  E(UM062X) =  -301.808647050     A.U. after   22 cycles
             Convg  =    0.9807D-08             -V/T =  2.0023
 <Sx>= 0.0000 <Sy>= 0.0000 <Sz>= 1.0000 <S**2>= 2.0122 S= 1.0041
 <L.S>= 0.000000000000E+00
 Annihilation of the first spin contaminant:
 S**2 before annihilation     2.0122,   after     2.0001
 Range of M.O.s used for correlation:     1   154
 NBasis=   154 NAE=    18 NBE=    16 NFC=     0 NFV=     0
 NROrb=    154 NOA=    18 NOB=    16 NVA=   136 NVB=   138

 **** Warning!!: The largest alpha MO coefficient is  0.16729143D+02


 **** Warning!!: The largest beta MO coefficient is  0.16523023D+02

 Symmetrizing basis deriv contribution to polar:
 IMax=3 JMax=2 DiffMx= 0.00D+00
 G2DrvN: will do     7 centers at a time, making    1 passes doing MaxLOS=3.
 Calling FoFCou, ICntrl=  3107 FMM=F I1Cent=   0 AccDes= 0.00D+00.
 FoFDir/FoFCou used for L=0 through L=3.
 End of G2Drv Frequency-dependent properties file   721 does not exist.
 End of G2Drv Frequency-dependent properties file   722 does not exist.
          IDoAtm=111111
          Differentiating once with respect to electric field.
                with respect to dipole field.
          Differentiating once with respect to nuclear coordinates.
          Keep R1 and R2 ints in memory in canonical form, NReq=233758395.
          There are    21 degrees of freedom in the 1st order CPHF.  IDoFFX=5.
     18 vectors produced by pass  0 Test12= 2.22D-14 4.76D-09 XBig12= 3.26D+01 4.24D+00.
 AX will form    18 AO Fock derivatives at one time.
     18 vectors produced by pass  1 Test12= 2.22D-14 4.76D-09 XBig12= 1.09D+01 4.87D-01.
     18 vectors produced by pass  2 Test12= 2.22D-14 4.76D-09 XBig12= 9.34D-01 2.88D-01.
     18 vectors produced by pass  3 Test12= 2.22D-14 4.76D-09 XBig12= 1.38D-02 2.01D-02.
     18 vectors produced by pass  4 Test12= 2.22D-14 4.76D-09 XBig12= 2.20D-04 1.88D-03.
     18 vectors produced by pass  5 Test12= 2.22D-14 4.76D-09 XBig12= 2.79D-06 2.32D-04.
     18 vectors produced by pass  6 Test12= 2.22D-14 4.76D-09 XBig12= 4.07D-08 2.92D-05.
     17 vectors produced by pass  7 Test12= 2.22D-14 4.76D-09 XBig12= 3.87D-10 3.14D-06.
      6 vectors produced by pass  8 Test12= 2.22D-14 4.76D-09 XBig12= 3.20D-12 2.87D-07.
      3 vectors produced by pass  9 Test12= 2.22D-14 4.76D-09 XBig12= 2.83D-14 1.82D-08.
 Inverted reduced A of dimension   152 with in-core refinement.
 Isotropic polarizability for W=    0.000000       26.86 Bohr**3.
 End of Minotr Frequency-dependent properties file   721 does not exist.
 End of Minotr Frequency-dependent properties file   722 does not exist.
 Calling FoFJK, ICntrl=    100127 FMM=F ISym2X=0 I1Cent= 0 IOpClX= 1 NMat=1 NMatS=1 NMatT=0.
 -------------------------------------------------------------------
 Center     Atomic                   Forces (Hartrees/Bohr)
 Number     Number              X              Y              Z
 -------------------------------------------------------------------
      1        8          -0.010206091   -0.001364587   -0.001645122
      2        8           0.000317955    0.000658868    0.001853397
      3        1          -0.000974402   -0.000508626    0.000663028
      4        8           0.005938576    0.000570951    0.001842754
      5        8           0.007649335    0.001201808   -0.000038079
      6        1          -0.002725373   -0.000558414   -0.002675979
 -------------------------------------------------------------------
 Cartesian Forces:  Max     0.010206091 RMS     0.003560569
 IRC-IRC-IRC-IRC-IRC-IRC-IRC-IRC-IRC-IRC-IRC-IRC-IRC-IRC-IRC-IRC-IRC-IRC
 Pt  6 Step number   1 out of a maximum of  20
 CORRECTOR INTEGRATION CONVERGENCE:
   Recorrection delta-x convergence threshold:    0.010000
   Delta-x Convergence Met
 Point Number:   6          Path Number:   1
   CHANGE IN THE REACTION COORDINATE =    0.12476
   NET REACTION COORDINATE UP TO THIS POINT =    0.74142
  # OF POINTS ALONG THE PATH =   6
  # OF STEPS =   1

 Calculating another point on the path.
 IRC-IRC-IRC-IRC-IRC-IRC-IRC-IRC-IRC-IRC-IRC-IRC-IRC-IRC-IRC-IRC-IRC-IRC
                          Input orientation:                          
 ---------------------------------------------------------------------
 Center     Atomic      Atomic             Coordinates (Angstroms)
 Number     Number       Type             X           Y           Z
 ---------------------------------------------------------------------
      1          8           0       -1.290819   -0.597505   -0.091418
      2          8           0       -1.297589    0.681658    0.093788
      3          1           0       -0.342789   -0.883965    0.009591
      4          8           0        1.354084    0.580045   -0.168458
      5          8           0        1.200340   -0.677023    0.132722
      6          1           0        0.882135    1.087499    0.519963
 ---------------------------------------------------------------------
                    Distance matrix (angstroms):
                    1          2          3          4          5
     1  O    0.000000
     2  O    1.292519   0.000000
     3  H    0.995502   1.835731   0.000000
     4  O    2.896216   2.666545   2.248200   0.000000
     5  O    2.502486   2.843797   1.561805   1.301756   0.000000
     6  H    2.816870   2.257771   2.376466   0.976815   1.834325
                    6
     6  H    0.000000
 Symmetry turned off by external request.
 Stoichiometry    H2O4(3)
 Framework group  C1[X(H2O4)]
 Deg. of freedom    12
 Full point group                 C1      NOp   1
[...]
          IDoAtm=111111
          Differentiating once with respect to electric field.
                with respect to dipole field.
          Differentiating once with respect to nuclear coordinates.
          Keep R1 and R2 ints in memory in canonical form, NReq=233758402.
          There are    21 degrees of freedom in the 1st order CPHF.  IDoFFX=5.
     18 vectors produced by pass  0 Test12= 2.22D-14 4.76D-09 XBig12= 2.69D+01 2.43D+00.
 AX will form    18 AO Fock derivatives at one time.
     18 vectors produced by pass  1 Test12= 2.22D-14 4.76D-09 XBig12= 1.23D+01 7.96D-01.
     18 vectors produced by pass  2 Test12= 2.22D-14 4.76D-09 XBig12= 1.25D+00 2.79D-01.
     18 vectors produced by pass  3 Test12= 2.22D-14 4.76D-09 XBig12= 5.19D-02 5.17D-02.
     18 vectors produced by pass  4 Test12= 2.22D-14 4.76D-09 XBig12= 1.03D-03 7.43D-03.
     18 vectors produced by pass  5 Test12= 2.22D-14 4.76D-09 XBig12= 1.97D-05 7.94D-04.
     18 vectors produced by pass  6 Test12= 2.22D-14 4.76D-09 XBig12= 2.94D-07 1.42D-04.
     16 vectors produced by pass  7 Test12= 2.22D-14 4.76D-09 XBig12= 4.11D-09 1.33D-05.
      5 vectors produced by pass  8 Test12= 2.22D-14 4.76D-09 XBig12= 3.51D-11 9.22D-07.
      2 vectors produced by pass  9 Test12= 2.22D-14 4.76D-09 XBig12= 2.67D-13 7.30D-08.
 Inverted reduced A of dimension   149 with in-core refinement.
 Isotropic polarizability for W=    0.000000       23.69 Bohr**3.
 End of Minotr Frequency-dependent properties file   721 does not exist.
 End of Minotr Frequency-dependent properties file   722 does not exist.
 Calling FoFJK, ICntrl=    100127 FMM=F ISym2X=0 I1Cent= 0 IOpClX= 1 NMat=1 NMatS=1 NMatT=0.
 -------------------------------------------------------------------
 Center     Atomic                   Forces (Hartrees/Bohr)
 Number     Number              X              Y              Z
 -------------------------------------------------------------------
      1        8          -0.026535803    0.006899093   -0.001823291
      2        8          -0.005606852   -0.000218661    0.000046163
      3        1           0.003560717   -0.003113084   -0.004342445
      4        8          -0.002135318    0.009933970   -0.004753698
      5        8           0.028391929   -0.012876684    0.010116517
      6        1           0.002325327   -0.000624635    0.000756754
 -------------------------------------------------------------------
 Cartesian Forces:  Max     0.028391929 RMS     0.010630798
 IRC-IRC-IRC-IRC-IRC-IRC-IRC-IRC-IRC-IRC-IRC-IRC-IRC-IRC-IRC-IRC-IRC-IRC
 Pt 20 Step number   1 out of a maximum of  20
 CORRECTOR INTEGRATION CONVERGENCE:
   Recorrection delta-x convergence threshold:    0.010000
   Delta-x Convergence Met
 Point Number:  10          Path Number:   2
   CHANGE IN THE REACTION COORDINATE =    0.12454
   NET REACTION COORDINATE UP TO THIS POINT =    1.24027
  # OF POINTS ALONG THE PATH =  20
  # OF STEPS =   1

 Maximum number of steps reached.
 Calculation of REVERSE path complete.
 Reaction path calculation complete.
 
 Energies reported relative to the TS energy of        -301.805834
 --------------------------------------------------------------------------
    Summary of reaction path following
 --------------------------------------------------------------------------
                        Energy   Rx Coord
   1                   -0.04453  -1.24027
   2                   -0.04280  -1.11573
   3                   -0.04078  -0.99145
   4                   -0.03826  -0.86745
   5                   -0.03452  -0.74656
   6                   -0.02778  -0.62225
   7                   -0.01885  -0.49747
   8                   -0.01007  -0.37266
   9                   -0.00367  -0.24786
  10                   -0.00063  -0.12313
  11                    0.00000   0.00000
  12                   -0.00020   0.11802
  13                   -0.00059   0.24249
  14                   -0.00106   0.36719
  15                   -0.00159   0.49193
  16                   -0.00217   0.61666
  17                   -0.00281   0.74142
  18                   -0.00351   0.86619
  19                   -0.00426   0.99095
  20                   -0.00507   1.11572
  21                   -0.00592   1.24050
 --------------------------------------------------------------------------
 
 Total number of points:                   20
 Total number of gradient calculations:    23
 Total number of Hessian calculations:     23
 IRC-IRC-IRC-IRC-IRC-IRC-IRC-IRC-IRC-IRC-IRC-IRC-IRC-IRC-IRC-IRC-IRC-IRC
                          Input orientation:                          
 ---------------------------------------------------------------------
 Center     Atomic      Atomic             Coordinates (Angstroms)
 Number     Number       Type             X           Y           Z
 ---------------------------------------------------------------------
      1          8           0       -1.266490   -0.541853   -0.079271
      2          8           0       -1.305413    0.639019    0.079317
      3          1           0        0.239685   -0.909216   -0.051490
      4          8           0        1.324473    0.618055   -0.182583
      5          8           0        1.158810   -0.725654    0.144714
      6          1           0        1.166773    1.074784    0.651789
 ---------------------------------------------------------------------
                    Distance matrix (angstroms):
                    1          2          3          4          5
     1  O    0.000000
     2  O    1.192109   0.000000
     3  H    1.550577   2.191226   0.000000
     4  O    2.840624   2.642978   1.877900   0.000000
     5  O    2.442546   2.817624   0.957591   1.392882   0.000000
     6  H    3.011433   2.574746   2.300075   0.964182   1.870498
                    6
     6  H    0.000000
 Symmetry turned off by external request.
 Stoichiometry    H2O4(3)
 Framework group  C1[X(H2O4)]
 Deg. of freedom    12
 Full point group                 C1      NOp   1
 Rotational constants (GHZ):     17.2965184      4.7967656      3.8373983

 **********************************************************************

            Population analysis using the SCF density.

 **********************************************************************

 Alpha  occ. eigenvalues --  -19.82055 -19.81584 -19.68963 -19.67491  -1.49509
 Alpha  occ. eigenvalues --   -1.27865  -1.02450  -0.98912  -0.73194  -0.70970
 Alpha  occ. eigenvalues --   -0.68391  -0.63004  -0.57621  -0.52179  -0.44627
 Alpha  occ. eigenvalues --   -0.43059  -0.38317  -0.37194
 Alpha virt. eigenvalues --    0.04495   0.06852   0.10548   0.10875   0.13007
 Alpha virt. eigenvalues --    0.16226   0.17260   0.17647   0.19466   0.20284
 Alpha virt. eigenvalues --    0.22791   0.23968   0.24702   0.26492   0.27691
 Alpha virt. eigenvalues --    0.32130   0.33071   0.33482   0.37596   0.39059
 Alpha virt. eigenvalues --    0.52372   0.60087   0.68466   0.73091   0.76767
 Alpha virt. eigenvalues --    0.80282   0.89039   0.93215   0.94509   0.96714
 Alpha virt. eigenvalues --    0.98105   1.00739   1.02999   1.04404   1.08832
 Alpha virt. eigenvalues --    1.12008   1.13876   1.16142   1.28182   1.29888
 Alpha virt. eigenvalues --    1.31116   1.32232   1.38540   1.42875   1.48591
 Alpha virt. eigenvalues --    1.51097   1.55583   1.59128   1.61313   1.66481
 Alpha virt. eigenvalues --    1.69802   1.79650   1.94264   2.01938   2.14136
 Alpha virt. eigenvalues --    2.20031   2.23687   2.25241   2.26941   2.31220
 Alpha virt. eigenvalues --    2.43716   2.47470   2.53808   2.61371   2.71482
 Alpha virt. eigenvalues --    2.94302   3.60199   3.71137   3.75609   3.85602
 Alpha virt. eigenvalues --    4.12339   4.21371   4.44511   4.46834   4.50149
 Alpha virt. eigenvalues --    4.51339   4.58458   4.61634   4.67338   4.75419
 Alpha virt. eigenvalues --    4.78839   4.80548   4.83941   4.89073   4.91236
 Alpha virt. eigenvalues --    4.96151   4.98485   5.02418   5.04642   5.06658
 Alpha virt. eigenvalues --    5.10472   5.13461   5.14486   5.18750   5.22978
 Alpha virt. eigenvalues --    5.29027   5.30905   5.35560   5.37720   5.53160
 Alpha virt. eigenvalues --    5.56918   5.64948   5.68529   5.71131   6.08255
 Alpha virt. eigenvalues --    6.11717   6.52930   6.61484   6.68522   6.70388
 Alpha virt. eigenvalues --    6.71804   6.74380   6.80235   6.80483   6.84153
 Alpha virt. eigenvalues --    6.86519   6.89189   6.94707   6.97861   7.06454
 Alpha virt. eigenvalues --    7.11609   7.17634   7.21906   7.27134   7.27899
 Alpha virt. eigenvalues --    7.35783   7.47020   7.55084   7.74669   7.92369
 Alpha virt. eigenvalues --    7.95582   8.05617  49.92753  49.98745  50.02550
 Alpha virt. eigenvalues --   50.10623
  Beta  occ. eigenvalues --  -19.79517 -19.79265 -19.68877 -19.67388  -1.42509
  Beta  occ. eigenvalues --   -1.27557  -1.01388  -0.89199  -0.66822  -0.62117
  Beta  occ. eigenvalues --   -0.59914  -0.57511  -0.55041  -0.51077  -0.38488
  Beta  occ. eigenvalues --   -0.38049
  Beta virt. eigenvalues --   -0.09108  -0.08526   0.04716   0.06960   0.10684
  Beta virt. eigenvalues --    0.11155   0.13441   0.16345   0.17479   0.17823
  Beta virt. eigenvalues --    0.19891   0.20440   0.22952   0.24109   0.24829
  Beta virt. eigenvalues --    0.26710   0.28730   0.32806   0.33139   0.35074
  Beta virt. eigenvalues --    0.37903   0.39742   0.52445   0.60323   0.68970
  Beta virt. eigenvalues --    0.73661   0.76860   0.80620   0.89221   0.93447
  Beta virt. eigenvalues --    0.95346   0.98340   1.00779   1.02909   1.03746
  Beta virt. eigenvalues --    1.07805   1.10690   1.12402   1.14151   1.17647
  Beta virt. eigenvalues --    1.30290   1.32050   1.32940   1.35673   1.39390
  Beta virt. eigenvalues --    1.44676   1.49440   1.51976   1.55732   1.60654
  Beta virt. eigenvalues --    1.63635   1.68147   1.72367   1.80132   1.94467
  Beta virt. eigenvalues --    2.02781   2.14758   2.20095   2.24649   2.26419
  Beta virt. eigenvalues --    2.28578   2.32189   2.43967   2.48261   2.54108
  Beta virt. eigenvalues --    2.61546   2.71512   2.94153   3.60372   3.71283
  Beta virt. eigenvalues --    3.75647   3.85648   4.12277   4.21174   4.47731
  Beta virt. eigenvalues --    4.49013   4.52263   4.53444   4.58480   4.61704
  Beta virt. eigenvalues --    4.67593   4.75590   4.81044   4.83151   4.86131
  Beta virt. eigenvalues --    4.91642   4.94179   5.00817   5.01685   5.04719
  Beta virt. eigenvalues --    5.06188   5.09511   5.11029   5.15167   5.15518
  Beta virt. eigenvalues --    5.18948   5.24857   5.29502   5.31182   5.35905
  Beta virt. eigenvalues --    5.37828   5.53284   5.57098   5.66555   5.69793
  Beta virt. eigenvalues --    5.71324   6.08282   6.11913   6.63940   6.72933
  Beta virt. eigenvalues --    6.74423   6.75750   6.77862   6.78634   6.81743
  Beta virt. eigenvalues --    6.84764   6.86343   6.88801   6.90655   6.96712
  Beta virt. eigenvalues --    7.00472   7.07735   7.13255   7.19418   7.23137
  Beta virt. eigenvalues --    7.27553   7.28302   7.36537   7.47064   7.55460
  Beta virt. eigenvalues --    7.74845   7.92526   7.97567   8.06706  49.91461
  Beta virt. eigenvalues --   49.98646  50.02379  50.09353
          Condensed to atoms (all electrons):
              1          2          3          4          5          6
     1  O    7.735105   0.333673  -0.027355   0.011850   0.005444  -0.004834
     2  O    0.333673   7.620170  -0.016355   0.000596   0.018604   0.006154
     3  H   -0.027355  -0.016355   0.499829  -0.043609   0.242309   0.007393
     4  O    0.011850   0.000596  -0.043609   7.856278   0.127566   0.244669
     5  O    0.005444   0.018604   0.242309   0.127566   8.014126  -0.050603
     6  H   -0.004834   0.006154   0.007393   0.244669  -0.050603   0.563489
 Mulliken atomic charges:
              1
     1  O   -0.053882
     2  O    0.037158
     3  H    0.337789
     4  O   -0.197350
     5  O   -0.357446
     6  H    0.233732
 Sum of Mulliken atomic charges =   0.00000
 Mulliken charges with hydrogens summed into heavy atoms:
              1
     1  O   -0.053882
     2  O    0.037158
     4  O    0.036382
     5  O   -0.019657
 Sum of Mulliken charges with hydrogens summed into heavy atoms =   0.00000
          Atomic-Atomic Spin Densities.
              1          2          3          4          5          6
     1  O    1.338968  -0.422756  -0.006336   0.023848  -0.019942  -0.000224
     2  O   -0.422756   1.462268   0.012387  -0.030828   0.012700   0.001565
     3  H   -0.006336   0.012387  -0.022452  -0.001974   0.013082   0.000049
     4  O    0.023848  -0.030828  -0.001974   0.037334  -0.010039   0.000236
     5  O   -0.019942   0.012700   0.013082  -0.010039   0.040642   0.001054
     6  H   -0.000224   0.001565   0.000049   0.000236   0.001054  -0.002400
 Mulliken atomic spin densities:
              1
     1  O    0.913557
     2  O    1.035336
     3  H   -0.005245
     4  O    0.018576
     5  O    0.037496
     6  H    0.000280
 Sum of Mulliken atomic spin densities =   2.00000
 APT atomic charges:
              1
     1  O   -0.040834
     2  O    0.076931
     3  H    0.293647
     4  O   -0.272439
     5  O   -0.310632
     6  H    0.253327
 Sum of APT charges=   0.00000
 APT Atomic charges with hydrogens summed into heavy atoms:
              1
     1  O   -0.040834
     2  O    0.076931
     3  H    0.000000
     4  O   -0.019112
     5  O   -0.016985
     6  H    0.000000
 Sum of APT charges=   0.00000
 Electronic spatial extent (au):  <R**2>=            295.1213
 Charge=              0.0000 electrons
 Dipole moment (field-independent basis, Debye):
    X=             -2.0740    Y=              0.7269    Z=              1.0765  Tot=              2.4472
 Quadrupole moment (field-independent basis, Debye-Ang):
   XX=            -25.1627   YY=            -21.0339   ZZ=            -21.7876
   XY=              1.9703   XZ=              1.4796   YZ=              2.0701
 Traceless Quadrupole moment (field-independent basis, Debye-Ang):
   XX=             -2.5013   YY=              1.6275   ZZ=              0.8738
   XY=              1.9703   XZ=              1.4796   YZ=              2.0701
 Octapole moment (field-independent basis, Debye-Ang**2):
  XXX=            -10.5931  YYY=              1.7068  ZZZ=              0.1192  XYY=             -1.2671
  XXY=              2.8009  XXZ=              1.7236  XZZ=             -1.2988  YZZ=              1.2945
  YYZ=              1.5598  XYZ=              2.4726
 Hexadecapole moment (field-independent basis, Debye-Ang**3):
 XXXX=           -231.8269 YYYY=            -68.6371 ZZZZ=            -20.1279 XXXY=              2.8578
 XXXZ=              2.7723 YYYX=              5.0878 YYYZ=              3.1597 ZZZX=              0.7373
 ZZZY=              2.5566 XXYY=            -51.7776 XXZZ=            -40.1530 YYZZ=            -15.3401
 XXYZ=              3.1361 YYXZ=              2.0826 ZZXY=              1.7822
 N-N= 1.246176058095D+02 E-N=-1.427500799039D+03  KE= 4.483336331701D+02
  Exact polarizability:  26.237  -0.121  27.839  -0.079   0.946  16.988
 Approx polarizability:  25.410   0.104  36.214  -0.366   1.478  19.554
                          Isotropic Fermi Contact Couplings
        Atom                 a.u.       MegaHertz       Gauss      10(-4) cm-1
     1  O(17)              0.17601     -53.34807     -19.03592     -17.79500
     2  O(17)              0.18554     -56.23554     -20.06624     -18.75816
     3  H(1)              -0.00717     -16.03389      -5.72129      -5.34833
     4  O(17)              0.00637      -1.93170      -0.68928      -0.64434
     5  O(17)             -0.00485       1.46965       0.52441       0.49022
     6  H(1)              -0.00038      -0.84334      -0.30093      -0.28131
 --------------------------------------------------------
       Center         ----  Spin Dipole Couplings  ----
                      3XX-RR        3YY-RR        3ZZ-RR
 --------------------------------------------------------
     1   Atom        1.088792     -2.332863      1.244071
     2   Atom        1.295372     -2.557385      1.262012
     3   Atom        0.103490     -0.041008     -0.062482
     4   Atom        0.173340     -0.088794     -0.084546
     5   Atom        0.223548     -0.122740     -0.100808
     6   Atom        0.016425     -0.009534     -0.006891
 --------------------------------------------------------
                        XY            XZ            YZ
 --------------------------------------------------------
     1   Atom        0.172954      0.067568     -0.489488
     2   Atom        0.170189     -0.035744     -0.537959
     3   Atom       -0.035804      0.008461      0.002105
     4   Atom       -0.009641     -0.001840      0.003277
     5   Atom       -0.028300      0.055284     -0.002685
     6   Atom        0.010314      0.008518      0.008140
 --------------------------------------------------------


 ---------------------------------------------------------------------------------
              Anisotropic Spin Dipole Couplings in Principal Axis System
 ---------------------------------------------------------------------------------

       Atom             a.u.   MegaHertz   Gauss  10(-4) cm-1        Axes

              Baa    -2.4079   174.237    62.172    58.119 -0.0515  0.9897  0.1336
     1 O(17)  Bbb     1.0894   -78.826   -28.127   -26.294  0.9795  0.0762 -0.1867
              Bcc     1.3186   -95.411   -34.045   -31.826  0.1949 -0.1212  0.9733
 
              Baa    -2.6385   190.922    68.126    63.685 -0.0416  0.9898  0.1361
     2 O(17)  Bbb     1.2582   -91.041   -32.486   -30.368  0.7992 -0.0488  0.5991
              Bcc     1.3803   -99.881   -35.640   -33.317 -0.5997 -0.1337  0.7890
 
              Baa    -0.0639   -34.102   -12.168   -11.375 -0.1016 -0.2474  0.9636
     3 H(1)   Bbb    -0.0483   -25.773    -9.197    -8.597  0.2075  0.9420  0.2637
              Bcc     0.1122    59.875    21.365    19.972  0.9729 -0.2267  0.0444
 
              Baa    -0.0908     6.570     2.344     2.192  0.0293  0.8888 -0.4573
     4 O(17)  Bbb    -0.0829     5.999     2.141     2.001  0.0236  0.4568  0.8893
              Bcc     0.1737   -12.569    -4.485    -4.193  0.9993 -0.0368 -0.0076
 
              Baa    -0.1252     9.063     3.234     3.023  0.0982  0.9887 -0.1136
     5 O(17)  Bbb    -0.1097     7.939     2.833     2.648 -0.1517  0.1277  0.9801
              Bcc     0.2350   -17.002    -6.067    -5.671  0.9835 -0.0790  0.1626
 
              Baa    -0.0167    -8.910    -3.179    -2.972 -0.1018  0.8072 -0.5815
     6 H(1)   Bbb    -0.0071    -3.813    -1.361    -1.272 -0.4753  0.4740  0.7412
              Bcc     0.0238    12.723     4.540     4.244  0.8739  0.3518  0.3354
 

 ---------------------------------------------------------------------------------

 -------------------------------------------------------------------
 Center     Atomic                   Forces (Hartrees/Bohr)
 Number     Number              X              Y              Z
 -------------------------------------------------------------------
      1        8          -0.026535803    0.006899093   -0.001823291
      2        8          -0.005606852   -0.000218661    0.000046163
      3        1           0.003560717   -0.003113084   -0.004342445
      4        8          -0.002135318    0.009933970   -0.004753698
      5        8           0.028391929   -0.012876684    0.010116517
      6        1           0.002325327   -0.000624635    0.000756754
 -------------------------------------------------------------------
 Cartesian Forces:  Max     0.028391929 RMS     0.010630798

 This type of calculation cannot be archived.


 A FOOL CAN ASK MORE QUESTIONS THAN
 A WISE MAN CAN ANSWER.
 Job cpu time:  0 days 14 hours  9 minutes 54.7 seconds.
 File lengths (MBytes):  RWF=     88 Int=      0 D2E=      0 Chk=     32 Scr=      1
 Normal termination of Gaussian 09 at Thu May 11 19:04:06 2017.
