 Entering Gaussian System, Link 0=/shared/apps/gaussian/G09_LINUX_LINDA/g09/g09
 Input=/gss_gpfs_scratch/harms.n/QMscratch/[O]O+[O]OCO_OO+[O]O[CH]OEst.gjf
 Output=/gss_gpfs_scratch/harms.n/QMscratch/[O]O+[O]OCO_OO+[O]O[CH]OEst.log
 Initial command:
 /shared/apps/gaussian/G09_LINUX_LINDA/g09/l1.exe /gss_gpfs_scratch/harms.n/comparerTST/Gau-27918.inp -scrdir=/gss_gpfs_scratch/harms.n/comparerTST/
 Entering Link 1 = /shared/apps/gaussian/G09_LINUX_LINDA/g09/l1.exe PID=     27919.
  
 Copyright (c) 1988,1990,1992,1993,1995,1998,2003,2009,2010,
            Gaussian, Inc.  All Rights Reserved.
  
 This is part of the Gaussian(R) 09 program.  It is based on
 the Gaussian(R) 03 system (copyright 2003, Gaussian, Inc.),
 the Gaussian(R) 98 system (copyright 1998, Gaussian, Inc.),
 the Gaussian(R) 94 system (copyright 1995, Gaussian, Inc.),
 the Gaussian 92(TM) system (copyright 1992, Gaussian, Inc.),
 the Gaussian 90(TM) system (copyright 1990, Gaussian, Inc.),
 the Gaussian 88(TM) system (copyright 1988, Gaussian, Inc.),
 the Gaussian 86(TM) system (copyright 1986, Carnegie Mellon
 University), and the Gaussian 82(TM) system (copyright 1983,
 Carnegie Mellon University). Gaussian is a federally registered
 trademark of Gaussian, Inc.
  
 This software contains proprietary and confidential information,
 including trade secrets, belonging to Gaussian, Inc.
  
 This software is provided under written license and may be
 used, copied, transmitted, or stored only in accord with that
 written license.
  
 The following legend is applicable only to US Government
 contracts under FAR:
  
                    RESTRICTED RIGHTS LEGEND
  
 Use, reproduction and disclosure by the US Government is
 subject to restrictions as set forth in subparagraphs (a)
 and (c) of the Commercial Computer Software - Restricted
 Rights clause in FAR 52.227-19.
  
 Gaussian, Inc.
 340 Quinnipiac St., Bldg. 40, Wallingford CT 06492
  
  
 ---------------------------------------------------------------
 Warning -- This program may not be used in any manner that
 competes with the business of Gaussian, Inc. or will provide
 assistance to any competitor of Gaussian, Inc.  The licensee
 of this program is prohibited from giving any competitor of
 Gaussian, Inc. access to this program.  By using this program,
 the user acknowledges that Gaussian, Inc. is engaged in the
 business of creating and licensing software in the field of
 computational chemistry and represents and warrants to the
 licensee that it is not a competitor of Gaussian, Inc. and that
 it will not use this program in any manner prohibited above.
 ---------------------------------------------------------------
  

 Cite this work as:
 Gaussian 09, Revision B.01,
 M. J. Frisch, G. W. Trucks, H. B. Schlegel, G. E. Scuseria, 
 M. A. Robb, J. R. Cheeseman, G. Scalmani, V. Barone, B. Mennucci, 
 G. A. Petersson, H. Nakatsuji, M. Caricato, X. Li, H. P. Hratchian, 
 A. F. Izmaylov, J. Bloino, G. Zheng, J. L. Sonnenberg, M. Hada, 
 M. Ehara, K. Toyota, R. Fukuda, J. Hasegawa, M. Ishida, T. Nakajima, 
 Y. Honda, O. Kitao, H. Nakai, T. Vreven, J. A. Montgomery, Jr., 
 J. E. Peralta, F. Ogliaro, M. Bearpark, J. J. Heyd, E. Brothers, 
 K. N. Kudin, V. N. Staroverov, T. Keith, R. Kobayashi, J. Normand, 
 K. Raghavachari, A. Rendell, J. C. Burant, S. S. Iyengar, J. Tomasi, 
 M. Cossi, N. Rega, J. M. Millam, M. Klene, J. E. Knox, J. B. Cross, 
 V. Bakken, C. Adamo, J. Jaramillo, R. Gomperts, R. E. Stratmann, 
 O. Yazyev, A. J. Austin, R. Cammi, C. Pomelli, J. W. Ochterski, 
 R. L. Martin, K. Morokuma, V. G. Zakrzewski, G. A. Voth, 
 P. Salvador, J. J. Dannenberg, S. Dapprich, A. D. Daniels, 
 O. Farkas, J. B. Foresman, J. V. Ortiz, J. Cioslowski, 
 and D. J. Fox, Gaussian, Inc., Wallingford CT, 2010.
 
 ******************************************
 Gaussian 09:  EM64L-G09RevB.01 12-Aug-2010
                 3-Aug-2017 
 ******************************************
 %nprocshared=20
 Will use up to   20 processors via shared memory.
 %mem=5GB
 ----------------------------------------------------------
 # m062x/6-311+g(2df,2p) Opt=(ModRedun,Loose) Int(Grid=SG1)
 ----------------------------------------------------------
 1/7=-1,14=-1,18=120,19=15,26=2,38=1/1,3;
 2/9=110,12=2,17=6,18=5,40=1/2;
 3/5=4,6=6,7=214,11=2,16=1,25=1,30=1,71=1,74=-55,75=1/1,2,3;
 4//1;
 5/5=2,38=5/2;
 6/7=2,8=2,9=2,10=2,28=1/1;
 7//1,2,3,16;
 1/7=-1,14=-1,18=20,19=15/3(2);
 2/9=110/2;
 99//99;
 2/9=110/2;
 3/5=4,6=6,7=214,11=2,16=1,25=1,30=1,71=1,74=-55,75=1/1,2,3;
 4/5=5,16=3/1;
 5/5=2,38=5/2;
 7//1,2,3,16;
 1/7=-1,14=-1,18=20,19=15/3(-5);
 2/9=110/2;
 6/7=2,8=2,9=2,10=2,19=2,28=1/1;
 99/9=1/99;
 ------------------------
 [O]O+[O]OCO_OO+[O]O[CH]O
 ------------------------
 Symbolic Z-matrix:
 Charge =  0 Multiplicity = 3
 C                    -1.0518   -0.471    -0.228 
 O                    -1.7471    0.5408   -0.8447 
 O                    -1.1932   -0.5263    1.1372 
 H                     0.1911   -0.1146   -0.384 
 H                    -1.0616   -1.4343   -0.7442 
 O                    -1.6841    1.6057   -0.0897 
 H                    -0.3267   -0.4763    1.6271 
 O                     2.6516   -0.017    -0.162 
 O                     1.4125    0.0491   -0.6311 
 H                     2.8094    0.8438    0.3194 
 
 The following ModRedundant input section has been read:
 B       1       4 F                                                           
 B       1       9 F                                                           
 B       4       9 F                                                           

 GradGradGradGradGradGradGradGradGradGradGradGradGradGradGradGradGradGrad
 Berny optimization.
 Initialization pass.
                           ----------------------------
                           !    Initial Parameters    !
                           ! (Angstroms and Degrees)  !
 --------------------------                            --------------------------
 ! Name  Definition              Value          Derivative Info.                !
 --------------------------------------------------------------------------------
 ! R1    R(1,2)                  1.3739         estimate D2E/DX2                !
 ! R2    R(1,3)                  1.3736         estimate D2E/DX2                !
 ! R3    R(1,4)                  1.3024         Frozen                          !
 ! R4    R(1,5)                  1.0929         estimate D2E/DX2                !
 ! R5    R(1,9)                  2.5506         Frozen                          !
 ! R6    R(2,6)                  1.3069         estimate D2E/DX2                !
 ! R7    R(3,7)                  0.9967         estimate D2E/DX2                !
 ! R8    R(4,9)                  1.2569         Frozen                          !
 ! R9    R(8,9)                  1.3266         estimate D2E/DX2                !
 ! R10   R(8,10)                 0.9988         estimate D2E/DX2                !
 ! A1    A(2,1,3)              115.0673         estimate D2E/DX2                !
 ! A2    A(2,1,4)              103.1604         estimate D2E/DX2                !
 ! A3    A(2,1,5)              115.6304         estimate D2E/DX2                !
 ! A4    A(3,1,4)              103.1973         estimate D2E/DX2                !
 ! A5    A(3,1,5)              115.6585         estimate D2E/DX2                !
 ! A6    A(4,1,5)              101.1385         estimate D2E/DX2                !
 ! A7    A(1,2,6)              108.4438         estimate D2E/DX2                !
 ! A8    A(1,3,7)              113.3917         estimate D2E/DX2                !
 ! A9    A(1,4,9)              170.6146         estimate D2E/DX2                !
 ! A10   A(9,8,10)             105.9657         estimate D2E/DX2                !
 ! A11   A(4,9,8)              146.2741         estimate D2E/DX2                !
 ! D1    D(3,1,2,6)             38.7187         estimate D2E/DX2                !
 ! D2    D(4,1,2,6)            -72.8865         estimate D2E/DX2                !
 ! D3    D(5,1,2,6)            177.7098         estimate D2E/DX2                !
 ! D4    D(2,1,3,7)           -123.2217         estimate D2E/DX2                !
 ! D5    D(4,1,3,7)            -11.6384         estimate D2E/DX2                !
 ! D6    D(5,1,3,7)             97.7989         estimate D2E/DX2                !
 ! D7    D(2,1,4,9)           -121.5193         estimate D2E/DX2                !
 ! D8    D(3,1,4,9)            118.3654         estimate D2E/DX2                !
 ! D9    D(5,1,4,9)             -1.5989         estimate D2E/DX2                !
 ! D10   D(1,4,9,8)            -99.4396         estimate D2E/DX2                !
 ! D11   D(10,8,9,4)           -83.7897         estimate D2E/DX2                !
 --------------------------------------------------------------------------------
 Trust Radius=3.00D-01 FncErr=1.00D-05 GrdErr=1.00D-04
 Number of steps in this run=     42 maximum allowed number of steps=    100.
 GradGradGradGradGradGradGradGradGradGradGradGradGradGradGradGradGradGrad

                          Input orientation:                          
 ---------------------------------------------------------------------
 Center     Atomic      Atomic             Coordinates (Angstroms)
 Number     Number       Type             X           Y           Z
 ---------------------------------------------------------------------
      1          6           0       -1.051800   -0.471000   -0.228000
      2          8           0       -1.747100    0.540800   -0.844700
      3          8           0       -1.193200   -0.526300    1.137200
      4          1           0        0.191100   -0.114600   -0.384000
      5          1           0       -1.061600   -1.434300   -0.744200
      6          8           0       -1.684100    1.605700   -0.089700
      7          1           0       -0.326700   -0.476300    1.627100
      8          8           0        2.651600   -0.017000   -0.162000
      9          8           0        1.412500    0.049100   -0.631100
     10          1           0        2.809400    0.843800    0.319400
 ---------------------------------------------------------------------
                    Distance matrix (angstroms):
                    1          2          3          4          5
     1  C    0.000000
     2  O    1.373863   0.000000
     3  O    1.373617   2.318067   0.000000
     4  H    1.302366   2.097239   2.097578   0.000000
     5  H    1.092934   2.093091   2.093191   1.854888   0.000000
     6  O    2.175227   1.306907   2.508324   2.561722   3.171352
     7  H    1.991782   3.026850   0.996657   2.107953   2.660997
     8  O    3.731708   4.486177   4.090207   2.472422   4.016908
     9  O    2.550641   3.204757   3.201194   1.256851   2.886943
    10  H    4.115484   4.712603   4.308918   2.875552   4.615802
                    6          7          8          9         10
     6  O    0.000000
     7  H    3.020705   0.000000
     8  O    4.629976   3.504584   0.000000
     9  O    3.507855   2.898332   1.326572   0.000000
    10  H    4.575959   3.645253   0.998811   1.867171   0.000000
 Stoichiometry    CH4O5(3)
 Framework group  C1[X(CH4O5)]
 Deg. of freedom    24
 Full point group                 C1      NOp   1
 Largest Abelian subgroup         C1      NOp   1
 Largest concise Abelian subgroup C1      NOp   1
                         Standard orientation:                         
 ---------------------------------------------------------------------
 Center     Atomic      Atomic             Coordinates (Angstroms)
 Number     Number       Type             X           Y           Z
 ---------------------------------------------------------------------
      1          6           0       -0.773444    0.486640    0.602524
      2          8           0       -1.559102   -0.638033    0.529373
      3          8           0       -0.970984    1.400982   -0.403349
      4          1           0        0.421590    0.029908    0.358707
      5          1           0       -0.639350    0.905399    1.603107
      6          8           0       -1.664310   -0.988008   -0.725400
      7          1           0       -0.141405    1.613957   -0.913022
      8          8           0        2.837775   -0.069404   -0.156128
      9          8           0        1.623509   -0.334071    0.307877
     10          1           0        2.864727   -0.440835   -1.082916
 ---------------------------------------------------------------------
 Rotational constants (GHZ):      5.7262030      1.6211381      1.4559377
 Standard basis: 6-311+G(2df,2p) (5D, 7F)
 There are   240 symmetry adapted basis functions of A   symmetry.
 Integral buffers will be    131072 words long.
 Raffenetti 2 integral format.
 Two-electron integral symmetry is turned on.
   240 basis functions,   356 primitive gaussians,   270 cartesian basis functions
    26 alpha electrons       24 beta electrons
       nuclear repulsion energy       245.5106906868 Hartrees.
 NAtoms=   10 NActive=   10 NUniq=   10 SFac= 1.00D+00 NAtFMM=   50 NAOKFM=F Big=F
 One-electron integrals computed using PRISM.
 NBasis=   240 RedAO= T  NBF=   240
 NBsUse=   240 1.00D-06 NBFU=   240
 Harris functional with IExCor= 1009 diagonalized for initial guess.
 ExpMin= 4.38D-02 ExpMax= 8.59D+03 ExpMxC= 1.30D+03 IAcc=2 IRadAn=         1 AccDes= 0.00D+00
 HarFok:  IExCor= 1009 AccDes= 0.00D+00 IRadAn=         1 IDoV= 1
 ScaDFX=  1.000000  1.000000  1.000000  1.000000
 FoFCou: FMM=F IPFlag=           0 FMFlag=      100000 FMFlg1=           0
         NFxFlg=           0 DoJE=T BraDBF=F KetDBF=T FulRan=T
         Omega=  0.000000  0.000000  1.000000  0.000000  0.000000 ICntrl=     500 IOpCl=  0
         NMat0=    1 NMatS0=    1 NMatT0=    0 NMatD0=    1 NMtDS0=    0 NMtDT0=    0
         I1Cent=           4 NGrid=           0.
 Petite list used in FoFCou.
 Initial guess orbital symmetries:
 Alpha Orbitals:
       Occupied  (A) (A) (A) (A) (A) (A) (A) (A) (A) (A) (A) (A)
                 (A) (A) (A) (A) (A) (A) (A) (A) (A) (A) (A) (A)
                 (A) (A)
       Virtual   (A) (A) (A) (A) (A) (A) (A) (A) (A) (A) (A) (A)
                 (A) (A) (A) (A) (A) (A) (A) (A) (A) (A) (A) (A)
                 (A) (A) (A) (A) (A) (A) (A) (A) (A) (A) (A) (A)
                 (A) (A) (A) (A) (A) (A) (A) (A) (A) (A) (A) (A)
                 (A) (A) (A) (A) (A) (A) (A) (A) (A) (A) (A) (A)
                 (A) (A) (A) (A) (A) (A) (A) (A) (A) (A) (A) (A)
                 (A) (A) (A) (A) (A) (A) (A) (A) (A) (A) (A) (A)
                 (A) (A) (A) (A) (A) (A) (A) (A) (A) (A) (A) (A)
                 (A) (A) (A) (A) (A) (A) (A) (A) (A) (A) (A) (A)
                 (A) (A) (A) (A) (A) (A) (A) (A) (A) (A) (A) (A)
                 (A) (A) (A) (A) (A) (A) (A) (A) (A) (A) (A) (A)
                 (A) (A) (A) (A) (A) (A) (A) (A) (A) (A) (A) (A)
                 (A) (A) (A) (A) (A) (A) (A) (A) (A) (A) (A) (A)
                 (A) (A) (A) (A) (A) (A) (A) (A) (A) (A) (A) (A)
                 (A) (A) (A) (A) (A) (A) (A) (A) (A) (A) (A) (A)
                 (A) (A) (A) (A) (A) (A) (A) (A) (A) (A) (A) (A)
                 (A) (A) (A) (A) (A) (A) (A) (A) (A) (A) (A) (A)
                 (A) (A) (A) (A) (A) (A) (A) (A) (A) (A)
 Beta  Orbitals:
       Occupied  (A) (A) (A) (A) (A) (A) (A) (A) (A) (A) (A) (A)
                 (A) (A) (A) (A) (A) (A) (A) (A) (A) (A) (A) (A)
       Virtual   (A) (A) (A) (A) (A) (A) (A) (A) (A) (A) (A) (A)
                 (A) (A) (A) (A) (A) (A) (A) (A) (A) (A) (A) (A)
                 (A) (A) (A) (A) (A) (A) (A) (A) (A) (A) (A) (A)
                 (A) (A) (A) (A) (A) (A) (A) (A) (A) (A) (A) (A)
                 (A) (A) (A) (A) (A) (A) (A) (A) (A) (A) (A) (A)
                 (A) (A) (A) (A) (A) (A) (A) (A) (A) (A) (A) (A)
                 (A) (A) (A) (A) (A) (A) (A) (A) (A) (A) (A) (A)
                 (A) (A) (A) (A) (A) (A) (A) (A) (A) (A) (A) (A)
                 (A) (A) (A) (A) (A) (A) (A) (A) (A) (A) (A) (A)
                 (A) (A) (A) (A) (A) (A) (A) (A) (A) (A) (A) (A)
                 (A) (A) (A) (A) (A) (A) (A) (A) (A) (A) (A) (A)
                 (A) (A) (A) (A) (A) (A) (A) (A) (A) (A) (A) (A)
                 (A) (A) (A) (A) (A) (A) (A) (A) (A) (A) (A) (A)
                 (A) (A) (A) (A) (A) (A) (A) (A) (A) (A) (A) (A)
                 (A) (A) (A) (A) (A) (A) (A) (A) (A) (A) (A) (A)
                 (A) (A) (A) (A) (A) (A) (A) (A) (A) (A) (A) (A)
                 (A) (A) (A) (A) (A) (A) (A) (A) (A) (A) (A) (A)
                 (A) (A) (A) (A) (A) (A) (A) (A) (A) (A) (A) (A)
 The electronic state of the initial guess is 3-A.
 Initial guess <Sx>= 0.0000 <Sy>= 0.0000 <Sz>= 1.0000 <S**2>= 2.0000 S= 1.0000
 Requested convergence on RMS density matrix=1.00D-08 within 128 cycles.
 Requested convergence on MAX density matrix=1.00D-06.
 Requested convergence on             energy=1.00D-06.
 No special actions if energy rises.
 Restarting incremental Fock formation.
 SCF Done:  E(UM062X) =  -416.255703203     A.U. after   23 cycles
             Convg  =    0.9429D-08             -V/T =  2.0026
 <Sx>= 0.0000 <Sy>= 0.0000 <Sz>= 1.0000 <S**2>= 2.0133 S= 1.0044
 <L.S>= 0.000000000000E+00
 Annihilation of the first spin contaminant:
 S**2 before annihilation     2.0133,   after     2.0001

 **********************************************************************

            Population analysis using the SCF density.

 **********************************************************************

 Orbital symmetries:
 Alpha Orbitals:
       Occupied  (A) (A) (A) (A) (A) (A) (A) (A) (A) (A) (A) (A)
                 (A) (A) (A) (A) (A) (A) (A) (A) (A) (A) (A) (A)
                 (A) (A)
       Virtual   (A) (A) (A) (A) (A) (A) (A) (A) (A) (A) (A) (A)
                 (A) (A) (A) (A) (A) (A) (A) (A) (A) (A) (A) (A)
                 (A) (A) (A) (A) (A) (A) (A) (A) (A) (A) (A) (A)
                 (A) (A) (A) (A) (A) (A) (A) (A) (A) (A) (A) (A)
                 (A) (A) (A) (A) (A) (A) (A) (A) (A) (A) (A) (A)
                 (A) (A) (A) (A) (A) (A) (A) (A) (A) (A) (A) (A)
                 (A) (A) (A) (A) (A) (A) (A) (A) (A) (A) (A) (A)
                 (A) (A) (A) (A) (A) (A) (A) (A) (A) (A) (A) (A)
                 (A) (A) (A) (A) (A) (A) (A) (A) (A) (A) (A) (A)
                 (A) (A) (A) (A) (A) (A) (A) (A) (A) (A) (A) (A)
                 (A) (A) (A) (A) (A) (A) (A) (A) (A) (A) (A) (A)
                 (A) (A) (A) (A) (A) (A) (A) (A) (A) (A) (A) (A)
                 (A) (A) (A) (A) (A) (A) (A) (A) (A) (A) (A) (A)
                 (A) (A) (A) (A) (A) (A) (A) (A) (A) (A) (A) (A)
                 (A) (A) (A) (A) (A) (A) (A) (A) (A) (A) (A) (A)
                 (A) (A) (A) (A) (A) (A) (A) (A) (A) (A) (A) (A)
                 (A) (A) (A) (A) (A) (A) (A) (A) (A) (A) (A) (A)
                 (A) (A) (A) (A) (A) (A) (A) (A) (A) (A)
 Beta  Orbitals:
       Occupied  (A) (A) (A) (A) (A) (A) (A) (A) (A) (A) (A) (A)
                 (A) (A) (A) (A) (A) (A) (A) (A) (A) (A) (A) (A)
       Virtual   (A) (A) (A) (A) (A) (A) (A) (A) (A) (A) (A) (A)
                 (A) (A) (A) (A) (A) (A) (A) (A) (A) (A) (A) (A)
                 (A) (A) (A) (A) (A) (A) (A) (A) (A) (A) (A) (A)
                 (A) (A) (A) (A) (A) (A) (A) (A) (A) (A) (A) (A)
                 (A) (A) (A) (A) (A) (A) (A) (A) (A) (A) (A) (A)
                 (A) (A) (A) (A) (A) (A) (A) (A) (A) (A) (A) (A)
                 (A) (A) (A) (A) (A) (A) (A) (A) (A) (A) (A) (A)
                 (A) (A) (A) (A) (A) (A) (A) (A) (A) (A) (A) (A)
                 (A) (A) (A) (A) (A) (A) (A) (A) (A) (A) (A) (A)
                 (A) (A) (A) (A) (A) (A) (A) (A) (A) (A) (A) (A)
                 (A) (A) (A) (A) (A) (A) (A) (A) (A) (A) (A) (A)
                 (A) (A) (A) (A) (A) (A) (A) (A) (A) (A) (A) (A)
                 (A) (A) (A) (A) (A) (A) (A) (A) (A) (A) (A) (A)
                 (A) (A) (A) (A) (A) (A) (A) (A) (A) (A) (A) (A)
                 (A) (A) (A) (A) (A) (A) (A) (A) (A) (A) (A) (A)
                 (A) (A) (A) (A) (A) (A) (A) (A) (A) (A) (A) (A)
                 (A) (A) (A) (A) (A) (A) (A) (A) (A) (A) (A) (A)
                 (A) (A) (A) (A) (A) (A) (A) (A) (A) (A) (A) (A)
 The electronic state is 3-A.
 Alpha  occ. eigenvalues --  -19.76001 -19.75600 -19.72681 -19.70546 -19.65656
 Alpha  occ. eigenvalues --  -10.65801  -1.36140  -1.34679  -1.17944  -1.02723
 Alpha  occ. eigenvalues --   -1.01492  -0.77037  -0.70577  -0.65067  -0.63575
 Alpha  occ. eigenvalues --   -0.62259  -0.60773  -0.59557  -0.55438  -0.51054
 Alpha  occ. eigenvalues --   -0.43322  -0.41627  -0.40887  -0.40092  -0.38728
 Alpha  occ. eigenvalues --   -0.31169
 Alpha virt. eigenvalues --   -0.00215   0.02719   0.03659   0.04821   0.06396
 Alpha virt. eigenvalues --    0.09802   0.10984   0.14079   0.15794   0.16375
 Alpha virt. eigenvalues --    0.17386   0.17826   0.18985   0.19682   0.20870
 Alpha virt. eigenvalues --    0.22077   0.23362   0.23932   0.24991   0.25976
 Alpha virt. eigenvalues --    0.26579   0.27179   0.27779   0.29028   0.30808
 Alpha virt. eigenvalues --    0.32261   0.33710   0.35448   0.36728   0.40507
 Alpha virt. eigenvalues --    0.40972   0.44192   0.46575   0.50605   0.51711
 Alpha virt. eigenvalues --    0.57697   0.60489   0.62218   0.65087   0.67200
 Alpha virt. eigenvalues --    0.68385   0.75008   0.76588   0.77511   0.87813
 Alpha virt. eigenvalues --    0.89087   0.89748   0.94781   0.98493   0.99115
 Alpha virt. eigenvalues --    1.00182   1.02058   1.03894   1.05070   1.06344
 Alpha virt. eigenvalues --    1.06411   1.09527   1.10723   1.12899   1.13582
 Alpha virt. eigenvalues --    1.15040   1.18239   1.20163   1.21536   1.23702
 Alpha virt. eigenvalues --    1.28158   1.29221   1.32996   1.36878   1.37783
 Alpha virt. eigenvalues --    1.41127   1.46083   1.48679   1.50339   1.52746
 Alpha virt. eigenvalues --    1.54012   1.56087   1.58331   1.62635   1.65631
 Alpha virt. eigenvalues --    1.67749   1.69020   1.77396   1.81901   1.84680
 Alpha virt. eigenvalues --    1.88406   1.92717   1.98804   2.03997   2.08849
 Alpha virt. eigenvalues --    2.12178   2.20043   2.22435   2.24571   2.25002
 Alpha virt. eigenvalues --    2.29364   2.34930   2.37650   2.43134   2.45745
 Alpha virt. eigenvalues --    2.54292   2.58435   2.61227   2.67651   2.73296
 Alpha virt. eigenvalues --    2.82831   3.08380   3.12315   3.22439   3.27015
 Alpha virt. eigenvalues --    3.30809   3.32698   3.38308   3.44084   3.48749
 Alpha virt. eigenvalues --    3.56331   3.58069   3.60164   3.65892   3.69236
 Alpha virt. eigenvalues --    3.73041   3.77857   3.79889   3.87793   3.98238
 Alpha virt. eigenvalues --    4.00087   4.09276   4.11320   4.13411   4.18804
 Alpha virt. eigenvalues --    4.30941   4.44074   4.51126   4.55917   4.62316
 Alpha virt. eigenvalues --    4.64930   4.70634   4.75335   4.77206   4.78223
 Alpha virt. eigenvalues --    4.89985   4.97070   4.98335   5.00722   5.00924
 Alpha virt. eigenvalues --    5.01986   5.03486   5.05640   5.10901   5.11552
 Alpha virt. eigenvalues --    5.12287   5.13066   5.14147   5.14419   5.15478
 Alpha virt. eigenvalues --    5.18913   5.20930   5.24467   5.26008   5.30484
 Alpha virt. eigenvalues --    5.32724   5.37093   5.38928   5.40720   5.49019
 Alpha virt. eigenvalues --    5.49883   5.54330   5.57877   5.64989   5.71571
 Alpha virt. eigenvalues --    5.83126   5.96858   6.12815   6.28253   6.34404
 Alpha virt. eigenvalues --    6.37689   6.52120   6.55971   6.62246   6.67114
 Alpha virt. eigenvalues --    6.72161   6.72573   6.78326   6.81639   6.84062
 Alpha virt. eigenvalues --    6.84699   6.90933   6.94506   6.95994   6.97494
 Alpha virt. eigenvalues --    7.02230   7.05688   7.08964   7.11248   7.16526
 Alpha virt. eigenvalues --    7.24902   7.28982   7.32797   7.35006   7.45065
 Alpha virt. eigenvalues --    7.49311   7.53241   7.59555   7.71566   7.82710
 Alpha virt. eigenvalues --    7.88987   7.93451   7.98231  24.48872  49.91197
 Alpha virt. eigenvalues --   49.97480  49.97924  50.04645  50.15762
  Beta  occ. eigenvalues --  -19.75384 -19.74798 -19.71448 -19.69118 -19.65596
  Beta  occ. eigenvalues --  -10.65590  -1.32982  -1.31877  -1.17443  -0.98748
  Beta  occ. eigenvalues --   -0.97145  -0.75026  -0.68689  -0.62894  -0.62303
  Beta  occ. eigenvalues --   -0.59980  -0.55900  -0.52206  -0.50711  -0.49049
  Beta  occ. eigenvalues --   -0.41554  -0.39333  -0.35960  -0.33091
  Beta virt. eigenvalues --   -0.12680  -0.05595   0.00258   0.02832   0.03981
  Beta virt. eigenvalues --    0.05067   0.06656   0.10296   0.11667   0.14614
  Beta virt. eigenvalues --    0.16249   0.17029   0.17861   0.18388   0.19616
  Beta virt. eigenvalues --    0.19957   0.21514   0.22551   0.23772   0.24337
  Beta virt. eigenvalues --    0.25346   0.26297   0.26963   0.27589   0.27996
  Beta virt. eigenvalues --    0.29312   0.30977   0.32472   0.34180   0.35823
  Beta virt. eigenvalues --    0.36827   0.40198   0.41863   0.44202   0.46860
  Beta virt. eigenvalues --    0.50654   0.51870   0.58221   0.60685   0.62561
  Beta virt. eigenvalues --    0.65426   0.67245   0.68632   0.75233   0.76750
  Beta virt. eigenvalues --    0.77792   0.88113   0.89574   0.89927   0.95366
  Beta virt. eigenvalues --    0.98786   1.00099   1.01292   1.03304   1.04989
  Beta virt. eigenvalues --    1.06094   1.06820   1.07038   1.10251   1.11847
  Beta virt. eigenvalues --    1.14587   1.15293   1.16440   1.19104   1.20636
  Beta virt. eigenvalues --    1.21822   1.24110   1.28777   1.29588   1.33909
  Beta virt. eigenvalues --    1.37143   1.38606   1.41830   1.47742   1.49214
  Beta virt. eigenvalues --    1.51335   1.53514   1.55272   1.56907   1.60131
  Beta virt. eigenvalues --    1.63774   1.66270   1.68880   1.71040   1.78400
  Beta virt. eigenvalues --    1.82898   1.85589   1.88818   1.93643   1.99533
  Beta virt. eigenvalues --    2.04462   2.09496   2.12766   2.20528   2.22799
  Beta virt. eigenvalues --    2.25593   2.25936   2.29551   2.35452   2.38139
  Beta virt. eigenvalues --    2.43438   2.46632   2.54777   2.58980   2.61608
  Beta virt. eigenvalues --    2.67952   2.72929   2.80932   3.08717   3.12378
  Beta virt. eigenvalues --    3.23060   3.27395   3.31333   3.33123   3.38850
  Beta virt. eigenvalues --    3.45102   3.49725   3.56716   3.58899   3.60994
  Beta virt. eigenvalues --    3.66654   3.69313   3.73450   3.78189   3.80464
  Beta virt. eigenvalues --    3.88575   3.97880   3.99925   4.08181   4.11032
  Beta virt. eigenvalues --    4.12836   4.19246   4.31605   4.44795   4.53810
  Beta virt. eigenvalues --    4.56588   4.63260   4.65610   4.71125   4.76552
  Beta virt. eigenvalues --    4.77572   4.78878   4.90849   4.99006   5.00645
  Beta virt. eigenvalues --    5.02871   5.03676   5.05278   5.06498   5.08674
  Beta virt. eigenvalues --    5.12244   5.12768   5.13423   5.14272   5.15412
  Beta virt. eigenvalues --    5.16254   5.17402   5.20310   5.21842   5.25316
  Beta virt. eigenvalues --    5.26567   5.30422   5.33662   5.37486   5.39391
  Beta virt. eigenvalues --    5.41377   5.50163   5.50818   5.55155   5.58379
  Beta virt. eigenvalues --    5.65567   5.71834   5.83615   5.96914   6.13332
  Beta virt. eigenvalues --    6.28726   6.36257   6.39474   6.52606   6.56058
  Beta virt. eigenvalues --    6.62901   6.73076   6.79528   6.81559   6.82586
  Beta virt. eigenvalues --    6.86114   6.87851   6.89458   6.91765   6.96495
  Beta virt. eigenvalues --    6.99210   7.00602   7.03888   7.07571   7.09954
  Beta virt. eigenvalues --    7.12983   7.17288   7.26021   7.31383   7.34338
  Beta virt. eigenvalues --    7.37535   7.47047   7.49885   7.55912   7.59704
  Beta virt. eigenvalues --    7.71453   7.83023   7.89195   7.95083   7.99580
  Beta virt. eigenvalues --   24.48920  49.90752  49.96968  49.97386  50.04239
  Beta virt. eigenvalues --   50.15559
          Condensed to atoms (all electrons):
              1          2          3          4          5          6
     1  C    5.086281   0.102728   0.169961   0.397858   0.452229  -0.041196
     2  O    0.102728   7.737629  -0.011325  -0.016761  -0.052718   0.200318
     3  O    0.169961  -0.011325   8.009070  -0.007485  -0.047498  -0.001933
     4  H    0.397858  -0.016761  -0.007485   0.582928  -0.044153  -0.009451
     5  H    0.452229  -0.052718  -0.047498  -0.044153   0.494556   0.010746
     6  O   -0.041196   0.200318  -0.001933  -0.009451   0.010746   7.988958
     7  H   -0.027852  -0.006604   0.253404  -0.011526   0.006274   0.000278
     8  O    0.025980  -0.003938  -0.006042   0.034831  -0.001890  -0.000004
     9  O   -0.046091   0.022512   0.003743  -0.223002   0.012749   0.008482
    10  H   -0.000276  -0.000048   0.000032  -0.000911  -0.000018   0.000041
              7          8          9         10
     1  C   -0.027852   0.025980  -0.046091  -0.000276
     2  O   -0.006604  -0.003938   0.022512  -0.000048
     3  O    0.253404  -0.006042   0.003743   0.000032
     4  H   -0.011526   0.034831  -0.223002  -0.000911
     5  H    0.006274  -0.001890   0.012749  -0.000018
     6  O    0.000278  -0.000004   0.008482   0.000041
     7  H    0.498734  -0.001484   0.009930   0.000186
     8  O   -0.001484   7.767023   0.052915   0.241210
     9  O    0.009930   0.052915   8.518586  -0.050683
    10  H    0.000186   0.241210  -0.050683   0.529207
 Mulliken atomic charges:
              1
     1  C   -0.119621
     2  O    0.028208
     3  O   -0.361925
     4  H    0.297673
     5  H    0.169725
     6  O   -0.156239
     7  H    0.278659
     8  O   -0.108600
     9  O   -0.309140
    10  H    0.281260
 Sum of Mulliken atomic charges =   0.00000
 Mulliken charges with hydrogens summed into heavy atoms:
              1
     1  C    0.050103
     2  O    0.028208
     3  O   -0.083266
     6  O   -0.156239
     8  O    0.172661
     9  O   -0.011468
 Sum of Mulliken charges with hydrogens summed into heavy atoms =   0.00000
          Atomic-Atomic Spin Densities.
              1          2          3          4          5          6
     1  C    0.258488  -0.026284  -0.030026   0.080587  -0.009326   0.003926
     2  O   -0.026284   0.444155   0.003818  -0.029093   0.003009  -0.150443
     3  O   -0.030026   0.003818   0.038985  -0.014896   0.002377  -0.001245
     4  H    0.080587  -0.029093  -0.014896   0.024123  -0.006662   0.007398
     5  H   -0.009326   0.003009   0.002377  -0.006662   0.002602   0.000281
     6  O    0.003926  -0.150443  -0.001245   0.007398   0.000281   0.878082
     7  H   -0.009556  -0.000644   0.001818  -0.003516   0.001075   0.000912
     8  O    0.015358  -0.000608  -0.002606   0.019986  -0.001385  -0.000675
     9  O   -0.067022   0.010526   0.014906  -0.067419   0.007033  -0.003470
    10  H    0.000460  -0.000076  -0.000157   0.001313  -0.000021  -0.000016
              7          8          9         10
     1  C   -0.009556   0.015358  -0.067022   0.000460
     2  O   -0.000644  -0.000608   0.010526  -0.000076
     3  O    0.001818  -0.002606   0.014906  -0.000157
     4  H   -0.003516   0.019986  -0.067419   0.001313
     5  H    0.001075  -0.001385   0.007033  -0.000021
     6  O    0.000912  -0.000675  -0.003470  -0.000016
     7  H    0.010039  -0.002883   0.008114  -0.000069
     8  O   -0.002883   0.351202  -0.149661   0.002655
     9  O    0.008114  -0.149661   0.790792  -0.000092
    10  H   -0.000069   0.002655  -0.000092  -0.013866
 Mulliken atomic spin densities:
              1
     1  C    0.216606
     2  O    0.254359
     3  O    0.012972
     4  H    0.011821
     5  H   -0.001019
     6  O    0.734751
     7  H    0.005290
     8  O    0.231381
     9  O    0.543707
    10  H   -0.009868
 Sum of Mulliken atomic spin densities =   2.00000
 Electronic spatial extent (au):  <R**2>=            774.5162
 Charge=              0.0000 electrons
 Dipole moment (field-independent basis, Debye):
    X=              3.1459    Y=              1.0248    Z=             -1.0006  Tot=              3.4566
 Quadrupole moment (field-independent basis, Debye-Ang):
   XX=            -36.3566   YY=            -35.9525   ZZ=            -30.9419
   XY=             -1.6263   XZ=             -8.0804   YZ=              0.4609
 Traceless Quadrupole moment (field-independent basis, Debye-Ang):
   XX=             -1.9396   YY=             -1.5355   ZZ=              3.4751
   XY=             -1.6263   XZ=             -8.0804   YZ=              0.4609
 Octapole moment (field-independent basis, Debye-Ang**2):
  XXX=             18.1106  YYY=             -1.6234  ZZZ=             -4.5236  XYY=              9.1460
  XXY=             -5.8696  XXZ=            -14.3234  XZZ=              8.6873  YZZ=              2.4615
  YYZ=             -2.5194  XYZ=              1.4726
 Hexadecapole moment (field-independent basis, Debye-Ang**3):
 XXXX=           -602.9691 YYYY=           -167.5559 ZZZZ=            -83.2979 XXXY=            -23.0339
 XXXZ=            -49.5601 YYYX=              6.1372 YYYZ=             -6.2263 ZZZX=            -11.0525
 ZZZY=              0.8171 XXYY=           -139.6773 XXZZ=           -102.1943 YYZZ=            -37.2007
 XXYZ=              9.5182 YYXZ=             -5.2718 ZZXY=             -4.2034
 N-N= 2.455106906868D+02 E-N=-2.191730389681D+03  KE= 6.194800364465D+02
                          Isotropic Fermi Contact Couplings
        Atom                 a.u.       MegaHertz       Gauss      10(-4) cm-1
     1  C(13)              0.05749      32.31718      11.53157      10.77985
     2  O(17)              0.06934     -21.01609      -7.49906      -7.01021
     3  O(17)              0.00052      -0.15864      -0.05661      -0.05292
     4  H(1)              -0.00480     -10.72052      -3.82535      -3.57598
     5  H(1)               0.00030       0.67765       0.24180       0.22604
     6  O(17)              0.10796     -32.72132     -11.67578     -10.91466
     7  H(1)               0.00325       7.25739       2.58962       2.42080
     8  O(17)              0.04711     -14.27898      -5.09510      -4.76296
     9  O(17)              0.13159     -39.88472     -14.23186     -13.30411
    10  H(1)              -0.00524     -11.70451      -4.17646      -3.90420
 --------------------------------------------------------
       Center         ----  Spin Dipole Couplings  ----
                      3XX-RR        3YY-RR        3ZZ-RR
 --------------------------------------------------------
     1   Atom        0.209377     -0.075542     -0.133835
     2   Atom        1.043350     -0.177420     -0.865929
     3   Atom       -0.008909      0.074512     -0.065603
     4   Atom        0.151515     -0.071083     -0.080431
     5   Atom       -0.004947     -0.007622      0.012570
     6   Atom        1.462700      0.069629     -1.532330
     7   Atom       -0.000096      0.005529     -0.005432
     8   Atom       -0.200559      0.612858     -0.412299
     9   Atom       -0.793624      1.583235     -0.789611
    10   Atom       -0.021665     -0.019469      0.041134
 --------------------------------------------------------
                        XY            XZ            YZ
 --------------------------------------------------------
     1   Atom       -0.145356     -0.098899      0.056244
     2   Atom       -1.041269      0.161364     -0.095517
     3   Atom       -0.100631      0.020443     -0.014674
     4   Atom       -0.034058     -0.031521      0.006928
     5   Atom        0.000757      0.005459      0.023594
     6   Atom       -2.217503      0.339960     -0.271168
     7   Atom        0.004023     -0.002710     -0.011351
     8   Atom       -0.813955      0.316685     -0.460863
     9   Atom       -1.182665      0.505813     -1.184924
    10   Atom       -0.011236     -0.012133      0.024921
 --------------------------------------------------------


 ---------------------------------------------------------------------------------
              Anisotropic Spin Dipole Couplings in Principal Axis System
 ---------------------------------------------------------------------------------

       Atom             a.u.   MegaHertz   Gauss  10(-4) cm-1        Axes

              Baa    -0.1686   -22.629    -8.074    -7.548  0.0657 -0.4389  0.8961
     1 C(13)  Bbb    -0.1313   -17.614    -6.285    -5.876  0.4530  0.8133  0.3651
              Bcc     0.2999    40.243    14.360    13.424  0.8891 -0.3820 -0.2523
 
              Baa    -0.8799    63.672    22.720    21.239 -0.0519  0.0586  0.9969
     2 O(17)  Bbb    -0.7740    56.003    19.983    18.680  0.4987  0.8664 -0.0249
              Bcc     1.6539  -119.675   -42.703   -39.919  0.8652 -0.4958  0.0742
 
              Baa    -0.0818     5.921     2.113     1.975  0.7297  0.4189 -0.5405
     3 O(17)  Bbb    -0.0626     4.526     1.615     1.510  0.3985  0.3818  0.8339
              Bcc     0.1444   -10.447    -3.728    -3.485 -0.5557  0.8238 -0.1117
 
              Baa    -0.0852   -45.483   -16.230   -15.172  0.0925 -0.2491  0.9640
     4 H(1)   Bbb    -0.0757   -40.368   -14.404   -13.465  0.1755  0.9571  0.2305
              Bcc     0.1609    85.852    30.634    28.637  0.9801 -0.1478 -0.1323
 
              Baa    -0.0235   -12.539    -4.474    -4.183  0.1302  0.8206 -0.5565
     5 H(1)   Bbb    -0.0054    -2.865    -1.022    -0.956  0.9807 -0.1892 -0.0495
              Bcc     0.0289    15.404     5.497     5.138  0.1460  0.5393  0.8294
 
              Baa    -1.5843   114.640    40.907    38.240  0.2649  0.4912  0.8298
     6 O(17)  Bbb    -1.5467   111.915    39.934    37.331  0.5347  0.6413 -0.5503
              Bcc     3.1310  -226.555   -80.841   -75.571  0.8024 -0.5895  0.0928
 
              Baa    -0.0126    -6.701    -2.391    -2.235  0.0136  0.5293  0.8483
     7 H(1)   Bbb    -0.0017    -0.922    -0.329    -0.308  0.9475 -0.2778  0.1582
              Bcc     0.0143     7.623     2.720     2.543  0.3194  0.8016 -0.5053
 
              Baa    -0.7095    51.342    18.320    17.126  0.8637  0.4589 -0.2087
     8 O(17)  Bbb    -0.5889    42.613    15.205    14.214  0.0259  0.3732  0.9274
              Bcc     1.2984   -93.955   -33.525   -31.340 -0.5034  0.8064 -0.3104
 
              Baa    -1.2975    93.883    33.500    31.316  0.7264  0.0156 -0.6871
     9 O(17)  Bbb    -1.2686    91.792    32.754    30.619  0.5869  0.5060  0.6320
              Bcc     2.5660  -185.676   -66.254   -61.935 -0.3575  0.8624 -0.3584
 
              Baa    -0.0332   -17.714    -6.321    -5.909  0.5916  0.7886 -0.1678
    10 H(1)   Bbb    -0.0200   -10.659    -3.803    -3.555  0.7809 -0.5087  0.3625
              Bcc     0.0532    28.374    10.124     9.464 -0.2005  0.3455  0.9168
 

 ---------------------------------------------------------------------------------

 Calling FoFJK, ICntrl=      2127 FMM=F ISym2X=0 I1Cent= 0 IOpClX= 1 NMat=1 NMatS=1 NMatT=0.
 ***** Axes restored to original set *****
 -------------------------------------------------------------------
 Center     Atomic                   Forces (Hartrees/Bohr)
 Number     Number              X              Y              Z
 -------------------------------------------------------------------
      1        6           0.103909619   -0.007934818    0.017997436
      2        8          -0.027365278    0.011592343    0.000796891
      3        8           0.005384194   -0.009551900    0.020358724
      4        1          -0.070549675   -0.024149435    0.016825036
      5        1          -0.019522292    0.006233361   -0.002296204
      6        8          -0.001725236    0.010022023   -0.008611397
      7        1          -0.030278440    0.001363126   -0.023658413
      8        8           0.011840507    0.014802845    0.030144945
      9        8           0.032838498    0.018285597   -0.039310331
     10        1          -0.004531897   -0.020663142   -0.012246687
 -------------------------------------------------------------------
 Cartesian Forces:  Max     0.103909619 RMS     0.029069419

 GradGradGradGradGradGradGradGradGradGradGradGradGradGradGradGradGradGrad
 Berny optimization.
 Internal  Forces:  Max     0.040025711 RMS     0.018089217
 Search for a local minimum.
 Step number   1 out of a maximum of   42
 All quantities printed in internal units (Hartrees-Bohrs-Radians)
 Mixed Optimization -- RFO/linear search
 Second derivative matrix not updated -- first step.
 ITU=  0
     Eigenvalues ---    0.00230   0.00230   0.02038   0.02041   0.02266
     Eigenvalues ---    0.06698   0.09369   0.10095   0.14147   0.16000
     Eigenvalues ---    0.16000   0.16000   0.17562   0.25000   0.34476
     Eigenvalues ---    0.47898   0.48281   0.50241   0.50288   0.60323
     Eigenvalues ---    0.653111000.000001000.000001000.000001000.00000
     Eigenvalues --- 1000.000001000.000001000.000001000.000001000.00000
     Eigenvalues --- 1000.000001000.00000
 RFO step:  Lambda=-3.37290408D-02 EMin= 2.30000000D-03
 Linear search not attempted -- first point.
 Maximum step size (   0.300) exceeded in Quadratic search.
    -- Step size scaled by   0.879
 Iteration  1 RMS(Cart)=  0.08494499 RMS(Int)=  0.00796635
 Iteration  2 RMS(Cart)=  0.00765662 RMS(Int)=  0.00391702
 Iteration  3 RMS(Cart)=  0.00007638 RMS(Int)=  0.00391673
 Iteration  4 RMS(Cart)=  0.00000057 RMS(Int)=  0.00391673
 Iteration  1 RMS(Cart)=  0.00000000 RMS(Int)=  0.00000000
 Variable       Old X    -DE/DX   Delta X   Delta X   Delta X     New X
                                 (Linear)    (Quad)   (Total)
    R1        2.59623   0.03416   0.00000   0.05598   0.05598   2.65221
    R2        2.59576  -0.00037   0.00000  -0.00060  -0.00060   2.59516
    R3        2.46112  -0.03646   0.00000   0.00000   0.00000   2.46112
    R4        2.06535  -0.00420   0.00000  -0.00975  -0.00975   2.05559
    R5        4.82001   0.00482   0.00000   0.00000   0.00000   4.82001
    R6        2.46970   0.00299   0.00000   0.00383   0.00383   2.47352
    R7        1.88341  -0.03790   0.00000  -0.06447  -0.06447   1.81894
    R8        2.37510   0.04003   0.00000   0.00000   0.00000   2.37510
    R9        2.50686   0.01345   0.00000   0.01855   0.01855   2.52541
   R10        1.88748  -0.02435   0.00000  -0.04173  -0.04173   1.84575
    A1        2.00830  -0.00715   0.00000  -0.03659  -0.04692   1.96139
    A2        1.80049   0.00632   0.00000   0.06346   0.06324   1.86373
    A3        2.01813  -0.01212   0.00000  -0.10665  -0.11463   1.90350
    A4        1.80113   0.01813   0.00000   0.13322   0.13147   1.93260
    A5        2.01862  -0.00205   0.00000  -0.03682  -0.04956   1.96906
    A6        1.76520   0.00589   0.00000   0.05926   0.06068   1.82588
    A7        1.89270   0.02921   0.00000   0.09046   0.09046   1.98316
    A8        1.97906  -0.01105   0.00000  -0.05014  -0.05014   1.92892
    A9        2.97779   0.00644   0.00000   0.00000   0.00000   2.97779
   A10        1.84945  -0.00169   0.00000  -0.00766  -0.00766   1.84179
   A11        2.55297  -0.03787   0.00000  -0.17178  -0.17178   2.38118
    D1        0.67577   0.02097   0.00000   0.21094   0.20433   0.88010
    D2       -1.27211  -0.00120   0.00000   0.03095   0.02986  -1.24225
    D3        3.10162  -0.00686   0.00000  -0.03230  -0.02459   3.07703
    D4       -2.15062  -0.01403   0.00000  -0.10921  -0.10543  -2.25605
    D5       -0.20313   0.00116   0.00000   0.02951   0.02965  -0.17348
    D6        1.70691   0.01802   0.00000   0.16326   0.15934   1.86625
    D7       -2.12091   0.00312   0.00000   0.02589   0.02938  -2.09153
    D8        2.06587   0.00108   0.00000  -0.01363  -0.01467   2.05119
    D9       -0.02791  -0.00553   0.00000  -0.04458  -0.04702  -0.07493
   D10       -1.73555  -0.00090   0.00000  -0.02190  -0.02190  -1.75745
   D11       -1.46241  -0.00062   0.00000  -0.00960  -0.00960  -1.47200
         Item               Value     Threshold  Converged?
 Maximum Force            0.037895     0.002500     NO 
 RMS     Force            0.016055     0.001667     NO 
 Maximum Displacement     0.197850     0.010000     NO 
 RMS     Displacement     0.086918     0.006667     NO 
 Predicted change in Energy=-1.924992D-02
 GradGradGradGradGradGradGradGradGradGradGradGradGradGradGradGradGradGrad

                          Input orientation:                          
 ---------------------------------------------------------------------
 Center     Atomic      Atomic             Coordinates (Angstroms)
 Number     Number       Type             X           Y           Z
 ---------------------------------------------------------------------
      1          6           0       -0.966826   -0.451789   -0.187972
      2          8           0       -1.788952    0.515333   -0.786771
      3          8           0       -1.195423   -0.569649    1.161029
      4          1           0        0.264026   -0.093263   -0.417362
      5          1           0       -1.081801   -1.394015   -0.719234
      6          8           0       -1.777991    1.668874   -0.168284
      7          1           0       -0.367771   -0.515662    1.649461
      8          8           0        2.654462   -0.040018   -0.130015
      9          8           0        1.468556    0.072201   -0.735798
     10          1           0        2.791821    0.807888    0.334946
 ---------------------------------------------------------------------
                    Distance matrix (angstroms):
                    1          2          3          4          5
     1  C    0.000000
     2  O    1.403487   0.000000
     3  O    1.373300   2.307247   0.000000
     4  H    1.302366   2.172917   2.201875   0.000000
     5  H    1.087772   2.037212   2.056181   1.895872   0.000000
     6  O    2.270591   1.308932   2.667853   2.708689   3.188968
     7  H    1.933677   3.002987   0.962543   2.202123   2.625274
     8  O    3.645085   4.525889   4.094987   2.408233   4.017480
     9  O    2.550641   3.287906   3.332673   1.256851   2.941834
    10  H    3.998457   4.725179   4.298620   2.787075   4.578714
                    6          7          8          9         10
     6  O    0.000000
     7  H    3.172556   0.000000
     8  O    4.750622   3.539302   0.000000
     9  O    3.662172   3.067106   1.336390   0.000000
    10  H    4.677362   3.669163   0.976729   1.854388   0.000000
 Stoichiometry    CH4O5(3)
 Framework group  C1[X(CH4O5)]
 Deg. of freedom    24
 Full point group                 C1      NOp   1
 Largest Abelian subgroup         C1      NOp   1
 Largest concise Abelian subgroup C1      NOp   1
                         Standard orientation:                         
 ---------------------------------------------------------------------
 Center     Atomic      Atomic             Coordinates (Angstroms)
 Number     Number       Type             X           Y           Z
 ---------------------------------------------------------------------
      1          6           0       -0.681232    0.495935    0.557877
      2          8           0       -1.596719   -0.566917    0.513083
      3          8           0       -0.959271    1.465153   -0.374465
      4          1           0        0.498966   -0.015404    0.353372
      5          1           0       -0.639257    0.886143    1.572384
      6          8           0       -1.774908   -1.055525   -0.688089
      7          1           0       -0.172480    1.675326   -0.887570
      8          8           0        2.842073   -0.047771   -0.201957
      9          8           0        1.684033   -0.433926    0.341885
     10          1           0        2.838495   -0.409789   -1.109111
 ---------------------------------------------------------------------
 Rotational constants (GHZ):      5.4989793      1.5807485      1.3966262
 Standard basis: 6-311+G(2df,2p) (5D, 7F)
 There are   240 symmetry adapted basis functions of A   symmetry.
 Integral buffers will be    131072 words long.
 Raffenetti 2 integral format.
 Two-electron integral symmetry is turned on.
   240 basis functions,   356 primitive gaussians,   270 cartesian basis functions
    26 alpha electrons       24 beta electrons
       nuclear repulsion energy       242.4930649574 Hartrees.
 NAtoms=   10 NActive=   10 NUniq=   10 SFac= 1.00D+00 NAtFMM=   50 NAOKFM=F Big=F
 One-electron integrals computed using PRISM.
 NBasis=   240 RedAO= T  NBF=   240
 NBsUse=   240 1.00D-06 NBFU=   240
 Initial guess read from the read-write file.
 B after Tr=     0.000000    0.000000    0.000000
         Rot=    1.000000    0.000000    0.000000    0.000000 Ang=   0.00 deg.
 Initial guess orbital symmetries:
 Alpha Orbitals:
       Occupied  (A) (A) (A) (A) (A) (A) (A) (A) (A) (A) (A) (A)
                 (A) (A) (A) (A) (A) (A) (A) (A) (A) (A) (A) (A)
                 (A) (A)
       Virtual   (A) (A) (A) (A) (A) (A) (A) (A) (A) (A) (A) (A)
                 (A) (A) (A) (A) (A) (A) (A) (A) (A) (A) (A) (A)
                 (A) (A) (A) (A) (A) (A) (A) (A) (A) (A) (A) (A)
                 (A) (A) (A) (A) (A) (A) (A) (A) (A) (A) (A) (A)
                 (A) (A) (A) (A) (A) (A) (A) (A) (A) (A) (A) (A)
                 (A) (A) (A) (A) (A) (A) (A) (A) (A) (A) (A) (A)
                 (A) (A) (A) (A) (A) (A) (A) (A) (A) (A) (A) (A)
                 (A) (A) (A) (A) (A) (A) (A) (A) (A) (A) (A) (A)
                 (A) (A) (A) (A) (A) (A) (A) (A) (A) (A) (A) (A)
                 (A) (A) (A) (A) (A) (A) (A) (A) (A) (A) (A) (A)
                 (A) (A) (A) (A) (A) (A) (A) (A) (A) (A) (A) (A)
                 (A) (A) (A) (A) (A) (A) (A) (A) (A) (A) (A) (A)
                 (A) (A) (A) (A) (A) (A) (A) (A) (A) (A) (A) (A)
                 (A) (A) (A) (A) (A) (A) (A) (A) (A) (A) (A) (A)
                 (A) (A) (A) (A) (A) (A) (A) (A) (A) (A) (A) (A)
                 (A) (A) (A) (A) (A) (A) (A) (A) (A) (A) (A) (A)
                 (A) (A) (A) (A) (A) (A) (A) (A) (A) (A) (A) (A)
                 (A) (A) (A) (A) (A) (A) (A) (A) (A) (A)
 Beta  Orbitals:
       Occupied  (A) (A) (A) (A) (A) (A) (A) (A) (A) (A) (A) (A)
                 (A) (A) (A) (A) (A) (A) (A) (A) (A) (A) (A) (A)
       Virtual   (A) (A) (A) (A) (A) (A) (A) (A) (A) (A) (A) (A)
                 (A) (A) (A) (A) (A) (A) (A) (A) (A) (A) (A) (A)
                 (A) (A) (A) (A) (A) (A) (A) (A) (A) (A) (A) (A)
                 (A) (A) (A) (A) (A) (A) (A) (A) (A) (A) (A) (A)
                 (A) (A) (A) (A) (A) (A) (A) (A) (A) (A) (A) (A)
                 (A) (A) (A) (A) (A) (A) (A) (A) (A) (A) (A) (A)
                 (A) (A) (A) (A) (A) (A) (A) (A) (A) (A) (A) (A)
                 (A) (A) (A) (A) (A) (A) (A) (A) (A) (A) (A) (A)
                 (A) (A) (A) (A) (A) (A) (A) (A) (A) (A) (A) (A)
                 (A) (A) (A) (A) (A) (A) (A) (A) (A) (A) (A) (A)
                 (A) (A) (A) (A) (A) (A) (A) (A) (A) (A) (A) (A)
                 (A) (A) (A) (A) (A) (A) (A) (A) (A) (A) (A) (A)
                 (A) (A) (A) (A) (A) (A) (A) (A) (A) (A) (A) (A)
                 (A) (A) (A) (A) (A) (A) (A) (A) (A) (A) (A) (A)
                 (A) (A) (A) (A) (A) (A) (A) (A) (A) (A) (A) (A)
                 (A) (A) (A) (A) (A) (A) (A) (A) (A) (A) (A) (A)
                 (A) (A) (A) (A) (A) (A) (A) (A) (A) (A) (A) (A)
                 (A) (A) (A) (A) (A) (A) (A) (A) (A) (A) (A) (A)
 Initial guess <Sx>= 0.0000 <Sy>= 0.0000 <Sz>= 1.0000 <S**2>= 2.0131 S= 1.0044
 Harris functional with IExCor= 1009 diagonalized for initial guess.
 ExpMin= 4.38D-02 ExpMax= 8.59D+03 ExpMxC= 1.30D+03 IAcc=2 IRadAn=         1 AccDes= 0.00D+00
 HarFok:  IExCor= 1009 AccDes= 0.00D+00 IRadAn=         1 IDoV= 1
 ScaDFX=  1.000000  1.000000  1.000000  1.000000
 FoFCou: FMM=F IPFlag=           0 FMFlag=      100000 FMFlg1=           0
         NFxFlg=           0 DoJE=T BraDBF=F KetDBF=T FulRan=T
         Omega=  0.000000  0.000000  1.000000  0.000000  0.000000 ICntrl=     500 IOpCl=  0
         NMat0=    1 NMatS0=    1 NMatT0=    0 NMatD0=    1 NMtDS0=    0 NMtDT0=    0
         I1Cent=           4 NGrid=           0.
 Petite list used in FoFCou.
 Requested convergence on RMS density matrix=1.00D-08 within 128 cycles.
 Requested convergence on MAX density matrix=1.00D-06.
 Requested convergence on             energy=1.00D-06.
 No special actions if energy rises.
 Restarting incremental Fock formation.
 SCF Done:  E(UM062X) =  -416.275608646     A.U. after   21 cycles
             Convg  =    0.3924D-08             -V/T =  2.0027
 <Sx>= 0.0000 <Sy>= 0.0000 <Sz>= 1.0000 <S**2>= 2.0139 S= 1.0046
 <L.S>= 0.000000000000E+00
 Annihilation of the first spin contaminant:
 S**2 before annihilation     2.0139,   after     2.0001
 Calling FoFJK, ICntrl=      2127 FMM=F ISym2X=0 I1Cent= 0 IOpClX= 1 NMat=1 NMatS=1 NMatT=0.
 ***** Axes restored to original set *****
 -------------------------------------------------------------------
 Center     Atomic                   Forces (Hartrees/Bohr)
 Number     Number              X              Y              Z
 -------------------------------------------------------------------
      1        6           0.054825797    0.006513690    0.008574292
      2        8          -0.016772156    0.006565100   -0.004427963
      3        8          -0.001518365   -0.002104330    0.000624078
      4        1          -0.061094213   -0.018756508    0.025031678
      5        1          -0.008780606    0.002440406   -0.004604710
      6        8           0.006039132   -0.007419893   -0.002125357
      7        1          -0.004466110    0.002100640   -0.002282843
      8        8          -0.002186558   -0.000026991    0.016825575
      9        8           0.035253593    0.015449341   -0.033171120
     10        1          -0.001300515   -0.004761454   -0.004443631
 -------------------------------------------------------------------
 Cartesian Forces:  Max     0.061094213 RMS     0.019431527

 GradGradGradGradGradGradGradGradGradGradGradGradGradGradGradGradGradGrad
 Berny optimization.
 Using GEDIIS/GDIIS optimizer.
 Internal  Forces:  Max     0.034661850 RMS     0.011253993
 Search for a local minimum.
 Step number   2 out of a maximum of   42
 All quantities printed in internal units (Hartrees-Bohrs-Radians)
 Mixed Optimization -- RFO/linear search
 Update second derivatives using D2CorX and points    1    2
 DE= -1.99D-02 DEPred=-1.92D-02 R= 1.03D+00
 SS=  1.41D+00  RLast= 4.21D-01 DXNew= 5.0454D-01 1.2622D+00
 Trust test= 1.03D+00 RLast= 4.21D-01 DXMaxT set to 5.05D-01
 ITU=  1  0
 Use linear search instead of GDIIS.
     Eigenvalues ---    0.00229   0.00230   0.02028   0.02042   0.02261
     Eigenvalues ---    0.06661   0.08120   0.09600   0.12573   0.14418
     Eigenvalues ---    0.16000   0.16273   0.18328   0.30852   0.34660
     Eigenvalues ---    0.47792   0.49519   0.50272   0.51449   0.60341
     Eigenvalues ---    0.664291000.000001000.000001000.000001000.00000
     Eigenvalues --- 1000.000001000.000001000.000001000.000001000.00000
     Eigenvalues --- 1000.000001000.00000
 RFO step:  Lambda=-1.36760714D-02 EMin= 2.29183637D-03
 Quartic linear search produced a step of  0.58528.
 Iteration  1 RMS(Cart)=  0.10995265 RMS(Int)=  0.03034733
 Iteration  2 RMS(Cart)=  0.07185691 RMS(Int)=  0.00641792
 Iteration  3 RMS(Cart)=  0.00468252 RMS(Int)=  0.00534095
 Iteration  4 RMS(Cart)=  0.00001248 RMS(Int)=  0.00534094
 Iteration  5 RMS(Cart)=  0.00000004 RMS(Int)=  0.00534094
 Iteration  1 RMS(Cart)=  0.00000001 RMS(Int)=  0.00000002
 Variable       Old X    -DE/DX   Delta X   Delta X   Delta X     New X
                                 (Linear)    (Quad)   (Total)
    R1        2.65221   0.00845   0.03276   0.01057   0.04333   2.69554
    R2        2.59516  -0.00066  -0.00035  -0.00179  -0.00214   2.59302
    R3        2.46112  -0.03312   0.00000   0.00000   0.00000   2.46112
    R4        2.05559   0.00108  -0.00571   0.00722   0.00151   2.05711
    R5        4.82001   0.00247   0.00000   0.00000   0.00000   4.82001
    R6        2.47352  -0.00749   0.00224  -0.01810  -0.01586   2.45766
    R7        1.81894  -0.00488  -0.03773   0.00169  -0.03604   1.78291
    R8        2.37510   0.03466   0.00000   0.00000   0.00000   2.37510
    R9        2.52541   0.00290   0.01086   0.00246   0.01332   2.53873
   R10        1.84575  -0.00639  -0.02442  -0.00898  -0.03340   1.81235
    A1        1.96139  -0.00433  -0.02746  -0.03461  -0.07125   1.89013
    A2        1.86373   0.00178   0.03702   0.00150   0.03945   1.90318
    A3        1.90350  -0.00643  -0.06709  -0.05892  -0.13499   1.76851
    A4        1.93260   0.00406   0.07694   0.01891   0.09244   2.02504
    A5        1.96906   0.00131  -0.02901   0.02483  -0.02337   1.94569
    A6        1.82588   0.00418   0.03551   0.05262   0.08725   1.91313
    A7        1.98316  -0.01289   0.05294  -0.10018  -0.04724   1.93592
    A8        1.92892   0.00003  -0.02935   0.01579  -0.01356   1.91536
    A9        2.97779   0.00472   0.00000   0.00000   0.00000   2.97779
   A10        1.84179  -0.00205  -0.00448  -0.01566  -0.02014   1.82165
   A11        2.38118  -0.03332  -0.10054  -0.23962  -0.34017   2.04101
    D1        0.88010   0.00598   0.11959   0.08958   0.19832   1.07841
    D2       -1.24225   0.00238   0.01748   0.08614   0.10255  -1.13970
    D3        3.07703  -0.00033  -0.01439   0.05217   0.04970   3.12672
    D4       -2.25605  -0.00305  -0.06171   0.01553  -0.03983  -2.29589
    D5       -0.17348  -0.00088   0.01735   0.00735   0.02348  -0.14999
    D6        1.86625   0.00790   0.09326   0.10193   0.19007   2.05632
    D7       -2.09153   0.00031   0.01720  -0.04629  -0.02529  -2.11683
    D8        2.05119   0.00203  -0.00859  -0.01617  -0.02387   2.02732
    D9       -0.07493  -0.00428  -0.02752  -0.08812  -0.12034  -0.19527
   D10       -1.75745  -0.00178  -0.01282  -0.14624  -0.15906  -1.91651
   D11       -1.47200  -0.00222  -0.00562  -0.08755  -0.09317  -1.56517
         Item               Value     Threshold  Converged?
 Maximum Force            0.033323     0.002500     NO 
 RMS     Force            0.007715     0.001667     NO 
 Maximum Displacement     0.399135     0.010000     NO 
 RMS     Displacement     0.154736     0.006667     NO 
 Predicted change in Energy=-1.050548D-02
 GradGradGradGradGradGradGradGradGradGradGradGradGradGradGradGradGradGrad

                          Input orientation:                          
 ---------------------------------------------------------------------
 Center     Atomic      Atomic             Coordinates (Angstroms)
 Number     Number       Type             X           Y           Z
 ---------------------------------------------------------------------
      1          6           0       -0.883450   -0.457558   -0.177166
      2          8           0       -1.781754    0.509229   -0.718501
      3          8           0       -1.143456   -0.583626    1.164232
      4          1           0        0.336188   -0.128964   -0.494446
      5          1           0       -1.175480   -1.351431   -0.725528
      6          8           0       -1.600658    1.672313   -0.165474
      7          1           0       -0.336900   -0.534136    1.651222
      8          8           0        2.483906   -0.022810    0.044627
      9          8           0        1.521096    0.004030   -0.891913
     10          1           0        2.580608    0.892853    0.312948
 ---------------------------------------------------------------------
                    Distance matrix (angstroms):
                    1          2          3          4          5
     1  C    0.000000
     2  O    1.426419   0.000000
     3  O    1.372168   2.268577   0.000000
     4  H    1.302366   2.223324   2.268761   0.000000
     5  H    1.088574   1.956955   2.040035   1.957796   0.000000
     6  O    2.247415   1.300538   2.658272   2.665369   3.104427
     7  H    1.909865   2.965097   0.943473   2.284973   2.649552
     8  O    3.402540   4.365923   3.837419   2.216880   3.968561
     9  O    2.550641   3.345761   3.416564   1.256851   3.022661
    10  H    3.750136   4.499029   4.095525   2.594883   4.497048
                    6          7          8          9         10
     6  O    0.000000
     7  H    3.125041   0.000000
     8  O    4.427329   3.286266   0.000000
     9  O    3.613340   3.195200   1.343439   0.000000
    10  H    4.280120   3.512709   0.959055   1.834193   0.000000
 Stoichiometry    CH4O5(3)
 Framework group  C1[X(CH4O5)]
 Deg. of freedom    24
 Full point group                 C1      NOp   1
 Largest Abelian subgroup         C1      NOp   1
 Largest concise Abelian subgroup C1      NOp   1
                         Standard orientation:                         
 ---------------------------------------------------------------------
 Center     Atomic      Atomic             Coordinates (Angstroms)
 Number     Number       Type             X           Y           Z
 ---------------------------------------------------------------------
      1          6           0       -0.621229    0.478262    0.560213
      2          8           0       -1.617175   -0.538646    0.467147
      3          8           0       -0.929632    1.466933   -0.339932
      4          1           0        0.554974   -0.065762    0.430825
      5          1           0       -0.756447    0.816753    1.585948
      6          8           0       -1.629634   -1.069167   -0.720199
      7          1           0       -0.164107    1.688098   -0.845105
      8          8           0        2.635994    0.048531   -0.324721
      9          8           0        1.728387   -0.511898    0.491978
     10          1           0        2.589423   -0.474693   -1.127126
 ---------------------------------------------------------------------
 Rotational constants (GHZ):      5.2832406      1.7015851      1.4977698
 Standard basis: 6-311+G(2df,2p) (5D, 7F)
 There are   240 symmetry adapted basis functions of A   symmetry.
 Integral buffers will be    131072 words long.
 Raffenetti 2 integral format.
 Two-electron integral symmetry is turned on.
   240 basis functions,   356 primitive gaussians,   270 cartesian basis functions
    26 alpha electrons       24 beta electrons
       nuclear repulsion energy       244.9160725263 Hartrees.
 NAtoms=   10 NActive=   10 NUniq=   10 SFac= 1.00D+00 NAtFMM=   50 NAOKFM=F Big=F
 One-electron integrals computed using PRISM.
 NBasis=   240 RedAO= T  NBF=   240
 NBsUse=   240 1.00D-06 NBFU=   240
 Initial guess read from the read-write file.
 B after Tr=     0.000000    0.000000    0.000000
         Rot=    1.000000    0.000000    0.000000    0.000000 Ang=   0.00 deg.
 Initial guess orbital symmetries:
 Alpha Orbitals:
       Occupied  (A) (A) (A) (A) (A) (A) (A) (A) (A) (A) (A) (A)
                 (A) (A) (A) (A) (A) (A) (A) (A) (A) (A) (A) (A)
                 (A) (A)
       Virtual   (A) (A) (A) (A) (A) (A) (A) (A) (A) (A) (A) (A)
                 (A) (A) (A) (A) (A) (A) (A) (A) (A) (A) (A) (A)
                 (A) (A) (A) (A) (A) (A) (A) (A) (A) (A) (A) (A)
                 (A) (A) (A) (A) (A) (A) (A) (A) (A) (A) (A) (A)
                 (A) (A) (A) (A) (A) (A) (A) (A) (A) (A) (A) (A)
                 (A) (A) (A) (A) (A) (A) (A) (A) (A) (A) (A) (A)
                 (A) (A) (A) (A) (A) (A) (A) (A) (A) (A) (A) (A)
                 (A) (A) (A) (A) (A) (A) (A) (A) (A) (A) (A) (A)
                 (A) (A) (A) (A) (A) (A) (A) (A) (A) (A) (A) (A)
                 (A) (A) (A) (A) (A) (A) (A) (A) (A) (A) (A) (A)
                 (A) (A) (A) (A) (A) (A) (A) (A) (A) (A) (A) (A)
                 (A) (A) (A) (A) (A) (A) (A) (A) (A) (A) (A) (A)
                 (A) (A) (A) (A) (A) (A) (A) (A) (A) (A) (A) (A)
                 (A) (A) (A) (A) (A) (A) (A) (A) (A) (A) (A) (A)
                 (A) (A) (A) (A) (A) (A) (A) (A) (A) (A) (A) (A)
                 (A) (A) (A) (A) (A) (A) (A) (A) (A) (A) (A) (A)
                 (A) (A) (A) (A) (A) (A) (A) (A) (A) (A) (A) (A)
                 (A) (A) (A) (A) (A) (A) (A) (A) (A) (A)
 Beta  Orbitals:
       Occupied  (A) (A) (A) (A) (A) (A) (A) (A) (A) (A) (A) (A)
                 (A) (A) (A) (A) (A) (A) (A) (A) (A) (A) (A) (A)
       Virtual   (A) (A) (A) (A) (A) (A) (A) (A) (A) (A) (A) (A)
                 (A) (A) (A) (A) (A) (A) (A) (A) (A) (A) (A) (A)
                 (A) (A) (A) (A) (A) (A) (A) (A) (A) (A) (A) (A)
                 (A) (A) (A) (A) (A) (A) (A) (A) (A) (A) (A) (A)
                 (A) (A) (A) (A) (A) (A) (A) (A) (A) (A) (A) (A)
                 (A) (A) (A) (A) (A) (A) (A) (A) (A) (A) (A) (A)
                 (A) (A) (A) (A) (A) (A) (A) (A) (A) (A) (A) (A)
                 (A) (A) (A) (A) (A) (A) (A) (A) (A) (A) (A) (A)
                 (A) (A) (A) (A) (A) (A) (A) (A) (A) (A) (A) (A)
                 (A) (A) (A) (A) (A) (A) (A) (A) (A) (A) (A) (A)
                 (A) (A) (A) (A) (A) (A) (A) (A) (A) (A) (A) (A)
                 (A) (A) (A) (A) (A) (A) (A) (A) (A) (A) (A) (A)
                 (A) (A) (A) (A) (A) (A) (A) (A) (A) (A) (A) (A)
                 (A) (A) (A) (A) (A) (A) (A) (A) (A) (A) (A) (A)
                 (A) (A) (A) (A) (A) (A) (A) (A) (A) (A) (A) (A)
                 (A) (A) (A) (A) (A) (A) (A) (A) (A) (A) (A) (A)
                 (A) (A) (A) (A) (A) (A) (A) (A) (A) (A) (A) (A)
                 (A) (A) (A) (A) (A) (A) (A) (A) (A) (A) (A) (A)
 Initial guess <Sx>= 0.0000 <Sy>= 0.0000 <Sz>= 1.0000 <S**2>= 2.0136 S= 1.0045
 Harris functional with IExCor= 1009 diagonalized for initial guess.
 ExpMin= 4.38D-02 ExpMax= 8.59D+03 ExpMxC= 1.30D+03 IAcc=2 IRadAn=         1 AccDes= 0.00D+00
 HarFok:  IExCor= 1009 AccDes= 0.00D+00 IRadAn=         1 IDoV= 1
 ScaDFX=  1.000000  1.000000  1.000000  1.000000
 FoFCou: FMM=F IPFlag=           0 FMFlag=      100000 FMFlg1=           0
         NFxFlg=           0 DoJE=T BraDBF=F KetDBF=T FulRan=T
         Omega=  0.000000  0.000000  1.000000  0.000000  0.000000 ICntrl=     500 IOpCl=  0
         NMat0=    1 NMatS0=    1 NMatT0=    0 NMatD0=    1 NMtDS0=    0 NMtDT0=    0
         I1Cent=           4 NGrid=           0.
 Petite list used in FoFCou.
 Requested convergence on RMS density matrix=1.00D-08 within 128 cycles.
 Requested convergence on MAX density matrix=1.00D-06.
 Requested convergence on             energy=1.00D-06.
 No special actions if energy rises.
 Restarting incremental Fock formation.
 SCF Done:  E(UM062X) =  -416.286573222     A.U. after   21 cycles
             Convg  =    0.6842D-08             -V/T =  2.0025
 <Sx>= 0.0000 <Sy>= 0.0000 <Sz>= 1.0000 <S**2>= 2.0141 S= 1.0047
 <L.S>= 0.000000000000E+00
 Annihilation of the first spin contaminant:
 S**2 before annihilation     2.0141,   after     2.0001
 Calling FoFJK, ICntrl=      2127 FMM=F ISym2X=0 I1Cent= 0 IOpClX= 1 NMat=1 NMatS=1 NMatT=0.
 ***** Axes restored to original set *****
 -------------------------------------------------------------------
 Center     Atomic                   Forces (Hartrees/Bohr)
 Number     Number              X              Y              Z
 -------------------------------------------------------------------
      1        6           0.003538330    0.001470621   -0.003694030
      2        8           0.002339550    0.006186428   -0.001037271
      3        8          -0.003900156   -0.002507328   -0.011125750
      4        1          -0.042846728   -0.011330029    0.019252441
      5        1           0.007622298   -0.004404632   -0.002138720
      6        8           0.001021558    0.003761768   -0.001078532
      7        1           0.013993443    0.002103859    0.011843790
      8        8          -0.006897544   -0.008119190    0.003334742
      9        8           0.022987134    0.003734715   -0.017903542
     10        1           0.002142115    0.009103790    0.002546873
 -------------------------------------------------------------------
 Cartesian Forces:  Max     0.042846728 RMS     0.011652916

 GradGradGradGradGradGradGradGradGradGradGradGradGradGradGradGradGradGrad
 Berny optimization.
 Using GEDIIS/GDIIS optimizer.
 Internal  Forces:  Max     0.025219667 RMS     0.008700059
 Search for a local minimum.
 Step number   3 out of a maximum of   42
 All quantities printed in internal units (Hartrees-Bohrs-Radians)
 Mixed Optimization -- RFO/linear search
 Update second derivatives using D2CorX and points    2    3
 DE= -1.10D-02 DEPred=-1.05D-02 R= 1.04D+00
 SS=  1.41D+00  RLast= 5.52D-01 DXNew= 8.4853D-01 1.6570D+00
 Trust test= 1.04D+00 RLast= 5.52D-01 DXMaxT set to 8.49D-01
 ITU=  1  1  0
 Use linear search instead of GDIIS.
     Eigenvalues ---    0.00220   0.00230   0.01872   0.02041   0.02262
     Eigenvalues ---    0.06594   0.07233   0.09400   0.12514   0.14401
     Eigenvalues ---    0.16030   0.16434   0.20080   0.31738   0.34614
     Eigenvalues ---    0.47882   0.50241   0.50323   0.54510   0.60386
     Eigenvalues ---    0.665841000.000001000.000001000.000001000.00000
     Eigenvalues --- 1000.000001000.000001000.000001000.000001000.00000
     Eigenvalues --- 1000.000001000.00000
 RFO step:  Lambda=-7.91924214D-03 EMin= 2.19524884D-03
 Quartic linear search produced a step of  0.07616.
 Iteration  1 RMS(Cart)=  0.16735240 RMS(Int)=  0.03754965
 Iteration  2 RMS(Cart)=  0.09135615 RMS(Int)=  0.00605676
 Iteration  3 RMS(Cart)=  0.00650911 RMS(Int)=  0.00037946
 Iteration  4 RMS(Cart)=  0.00004421 RMS(Int)=  0.00037900
 Iteration  5 RMS(Cart)=  0.00000000 RMS(Int)=  0.00037900
 Iteration  1 RMS(Cart)=  0.00000001 RMS(Int)=  0.00000002
 Variable       Old X    -DE/DX   Delta X   Delta X   Delta X     New X
                                 (Linear)    (Quad)   (Total)
    R1        2.69554   0.00541   0.00330   0.02692   0.03022   2.72576
    R2        2.59302  -0.00123  -0.00016  -0.00287  -0.00303   2.58999
    R3        2.46112  -0.02522   0.00000   0.00000   0.00000   2.46112
    R4        2.05711   0.00263   0.00012   0.00614   0.00625   2.06336
    R5        4.82001  -0.00127   0.00000   0.00000   0.00000   4.82001
    R6        2.45766   0.00318  -0.00121   0.00286   0.00165   2.45931
    R7        1.78291   0.01818  -0.00274   0.02097   0.01823   1.80113
    R8        2.37510   0.02277   0.00000   0.00000   0.00000   2.37510
    R9        2.53873   0.00067   0.00101   0.00629   0.00731   2.54604
   R10        1.81235   0.00954  -0.00254   0.00752   0.00497   1.81732
    A1        1.89013   0.00849  -0.00543   0.02406   0.01783   1.90796
    A2        1.90318  -0.00683   0.00300  -0.03384  -0.03075   1.87243
    A3        1.76851   0.00654  -0.01028   0.03774   0.02689   1.79540
    A4        2.02504  -0.00681   0.00704  -0.02812  -0.02128   2.00377
    A5        1.94569   0.00241  -0.00178   0.01301   0.00998   1.95567
    A6        1.91313  -0.00205   0.00665  -0.00477   0.00197   1.91509
    A7        1.93592   0.00295  -0.00360   0.01994   0.01635   1.95227
    A8        1.91536   0.00485  -0.00103   0.01796   0.01693   1.93229
    A9        2.97779   0.00597   0.00000   0.00000   0.00000   2.97779
   A10        1.82165   0.00149  -0.00153   0.00461   0.00308   1.82472
   A11        2.04101  -0.01815  -0.02591  -0.19011  -0.21602   1.82500
    D1        1.07841  -0.00383   0.01510   0.05775   0.07209   1.15050
    D2       -1.13970   0.00354   0.00781   0.09948   0.10718  -1.03252
    D3        3.12672   0.00537   0.00378   0.09990   0.10457  -3.05189
    D4       -2.29589   0.00765  -0.00303   0.07354   0.07096  -2.22493
    D5       -0.14999   0.00054   0.00179   0.02803   0.02970  -0.12030
    D6        2.05632  -0.00594   0.01448   0.00914   0.02329   2.07962
    D7       -2.11683  -0.00205  -0.00193  -0.13199  -0.13348  -2.25031
    D8        2.02732  -0.00293  -0.00182  -0.11655  -0.11852   1.90880
    D9       -0.19527   0.00114  -0.00916  -0.10722  -0.11667  -0.31194
   D10       -1.91651  -0.00347  -0.01211  -0.31584  -0.32796  -2.24446
   D11       -1.56517  -0.00158  -0.00710  -0.05763  -0.06472  -1.62990
         Item               Value     Threshold  Converged?
 Maximum Force            0.018181     0.002500     NO 
 RMS     Force            0.006514     0.001667     NO 
 Maximum Displacement     0.615308     0.010000     NO 
 RMS     Displacement     0.240960     0.006667     NO 
 Predicted change in Energy=-5.093588D-03
 GradGradGradGradGradGradGradGradGradGradGradGradGradGradGradGradGradGrad

                          Input orientation:                          
 ---------------------------------------------------------------------
 Center     Atomic      Atomic             Coordinates (Angstroms)
 Number     Number       Type             X           Y           Z
 ---------------------------------------------------------------------
      1          6           0       -0.881648   -0.492436   -0.180377
      2          8           0       -1.663964    0.618805   -0.663768
      3          8           0       -1.111451   -0.659491    1.160417
      4          1           0        0.359777   -0.258417   -0.497012
      5          1           0       -1.260353   -1.330643   -0.768763
      6          8           0       -1.275051    1.747181   -0.144937
      7          1           0       -0.289914   -0.680344    1.643198
      8          8           0        2.250931    0.160551    0.206251
      9          8           0        1.555521   -0.222078   -0.882434
     10          1           0        2.316252    1.116772    0.127424
 ---------------------------------------------------------------------
                    Distance matrix (angstroms):
                    1          2          3          4          5
     1  C    0.000000
     2  O    1.442408   0.000000
     3  O    1.370564   2.294987   0.000000
     4  H    1.302366   2.211979   2.252208   0.000000
     5  H    1.091883   1.993559   2.048013   1.961718   0.000000
     6  O    2.274182   1.301411   2.742770   2.611329   3.140443
     7  H    1.926366   2.982934   0.953119   2.276098   2.679963
     8  O    3.223185   4.036499   3.590057   2.060722   3.937439
     9  O    2.550641   3.334663   3.387817   1.256851   3.028363
    10  H    3.593168   4.088529   3.996415   2.471611   4.425506
                    6          7          8          9         10
     6  O    0.000000
     7  H    3.171876   0.000000
     8  O    3.882431   3.037731   0.000000
     9  O    3.526190   3.161401   1.347306   0.000000
    10  H    3.656371   3.509886   0.961686   1.841479   0.000000
 Stoichiometry    CH4O5(3)
 Framework group  C1[X(CH4O5)]
 Deg. of freedom    24
 Full point group                 C1      NOp   1
 Largest Abelian subgroup         C1      NOp   1
 Largest concise Abelian subgroup C1      NOp   1
                         Standard orientation:                         
 ---------------------------------------------------------------------
 Center     Atomic      Atomic             Coordinates (Angstroms)
 Number     Number       Type             X           Y           Z
 ---------------------------------------------------------------------
      1          6           0       -0.652347    0.574235    0.537141
      2          8           0       -1.553659   -0.549357    0.461515
      3          8           0       -0.926806    1.445238   -0.484853
      4          1           0        0.559956    0.098340    0.538791
      5          1           0       -0.880910    1.003976    1.514531
      6          8           0       -1.351258   -1.261659   -0.608686
      7          1           0       -0.136590    1.644936   -0.978932
      8          8           0        2.336148   -0.051937   -0.495198
      9          8           0        1.757853   -0.243074    0.706582
     10          1           0        2.273406   -0.906342   -0.932114
 ---------------------------------------------------------------------
 Rotational constants (GHZ):      4.7680970      1.9243681      1.6683497
 Standard basis: 6-311+G(2df,2p) (5D, 7F)
 There are   240 symmetry adapted basis functions of A   symmetry.
 Integral buffers will be    131072 words long.
 Raffenetti 2 integral format.
 Two-electron integral symmetry is turned on.
   240 basis functions,   356 primitive gaussians,   270 cartesian basis functions
    26 alpha electrons       24 beta electrons
       nuclear repulsion energy       247.5136720895 Hartrees.
 NAtoms=   10 NActive=   10 NUniq=   10 SFac= 1.00D+00 NAtFMM=   50 NAOKFM=F Big=F
 One-electron integrals computed using PRISM.
 NBasis=   240 RedAO= T  NBF=   240
 NBsUse=   240 1.00D-06 NBFU=   240
 Initial guess read from the read-write file.
 B after Tr=     0.000000    0.000000    0.000000
         Rot=    1.000000    0.000000    0.000000    0.000000 Ang=   0.00 deg.
 Initial guess orbital symmetries:
 Alpha Orbitals:
       Occupied  (A) (A) (A) (A) (A) (A) (A) (A) (A) (A) (A) (A)
                 (A) (A) (A) (A) (A) (A) (A) (A) (A) (A) (A) (A)
                 (A) (A)
       Virtual   (A) (A) (A) (A) (A) (A) (A) (A) (A) (A) (A) (A)
                 (A) (A) (A) (A) (A) (A) (A) (A) (A) (A) (A) (A)
                 (A) (A) (A) (A) (A) (A) (A) (A) (A) (A) (A) (A)
                 (A) (A) (A) (A) (A) (A) (A) (A) (A) (A) (A) (A)
                 (A) (A) (A) (A) (A) (A) (A) (A) (A) (A) (A) (A)
                 (A) (A) (A) (A) (A) (A) (A) (A) (A) (A) (A) (A)
                 (A) (A) (A) (A) (A) (A) (A) (A) (A) (A) (A) (A)
                 (A) (A) (A) (A) (A) (A) (A) (A) (A) (A) (A) (A)
                 (A) (A) (A) (A) (A) (A) (A) (A) (A) (A) (A) (A)
                 (A) (A) (A) (A) (A) (A) (A) (A) (A) (A) (A) (A)
                 (A) (A) (A) (A) (A) (A) (A) (A) (A) (A) (A) (A)
                 (A) (A) (A) (A) (A) (A) (A) (A) (A) (A) (A) (A)
                 (A) (A) (A) (A) (A) (A) (A) (A) (A) (A) (A) (A)
                 (A) (A) (A) (A) (A) (A) (A) (A) (A) (A) (A) (A)
                 (A) (A) (A) (A) (A) (A) (A) (A) (A) (A) (A) (A)
                 (A) (A) (A) (A) (A) (A) (A) (A) (A) (A) (A) (A)
                 (A) (A) (A) (A) (A) (A) (A) (A) (A) (A) (A) (A)
                 (A) (A) (A) (A) (A) (A) (A) (A) (A) (A)
 Beta  Orbitals:
       Occupied  (A) (A) (A) (A) (A) (A) (A) (A) (A) (A) (A) (A)
                 (A) (A) (A) (A) (A) (A) (A) (A) (A) (A) (A) (A)
       Virtual   (A) (A) (A) (A) (A) (A) (A) (A) (A) (A) (A) (A)
                 (A) (A) (A) (A) (A) (A) (A) (A) (A) (A) (A) (A)
                 (A) (A) (A) (A) (A) (A) (A) (A) (A) (A) (A) (A)
                 (A) (A) (A) (A) (A) (A) (A) (A) (A) (A) (A) (A)
                 (A) (A) (A) (A) (A) (A) (A) (A) (A) (A) (A) (A)
                 (A) (A) (A) (A) (A) (A) (A) (A) (A) (A) (A) (A)
                 (A) (A) (A) (A) (A) (A) (A) (A) (A) (A) (A) (A)
                 (A) (A) (A) (A) (A) (A) (A) (A) (A) (A) (A) (A)
                 (A) (A) (A) (A) (A) (A) (A) (A) (A) (A) (A) (A)
                 (A) (A) (A) (A) (A) (A) (A) (A) (A) (A) (A) (A)
                 (A) (A) (A) (A) (A) (A) (A) (A) (A) (A) (A) (A)
                 (A) (A) (A) (A) (A) (A) (A) (A) (A) (A) (A) (A)
                 (A) (A) (A) (A) (A) (A) (A) (A) (A) (A) (A) (A)
                 (A) (A) (A) (A) (A) (A) (A) (A) (A) (A) (A) (A)
                 (A) (A) (A) (A) (A) (A) (A) (A) (A) (A) (A) (A)
                 (A) (A) (A) (A) (A) (A) (A) (A) (A) (A) (A) (A)
                 (A) (A) (A) (A) (A) (A) (A) (A) (A) (A) (A) (A)
                 (A) (A) (A) (A) (A) (A) (A) (A) (A) (A) (A) (A)
 Initial guess <Sx>= 0.0000 <Sy>= 0.0000 <Sz>= 1.0000 <S**2>= 2.0143 S= 1.0048
 Harris functional with IExCor= 1009 diagonalized for initial guess.
 ExpMin= 4.38D-02 ExpMax= 8.59D+03 ExpMxC= 1.30D+03 IAcc=2 IRadAn=         1 AccDes= 0.00D+00
 HarFok:  IExCor= 1009 AccDes= 0.00D+00 IRadAn=         1 IDoV= 1
 ScaDFX=  1.000000  1.000000  1.000000  1.000000
 FoFCou: FMM=F IPFlag=           0 FMFlag=      100000 FMFlg1=           0
         NFxFlg=           0 DoJE=T BraDBF=F KetDBF=T FulRan=T
         Omega=  0.000000  0.000000  1.000000  0.000000  0.000000 ICntrl=     500 IOpCl=  0
         NMat0=    1 NMatS0=    1 NMatT0=    0 NMatD0=    1 NMtDS0=    0 NMtDT0=    0
         I1Cent=           4 NGrid=           0.
 Petite list used in FoFCou.
 Requested convergence on RMS density matrix=1.00D-08 within 128 cycles.
 Requested convergence on MAX density matrix=1.00D-06.
 Requested convergence on             energy=1.00D-06.
 No special actions if energy rises.
[...]
                 (A) (A) (A) (A) (A) (A) (A) (A) (A) (A) (A) (A)
                 (A) (A) (A) (A) (A) (A) (A) (A) (A) (A) (A) (A)
                 (A) (A) (A) (A) (A) (A) (A) (A) (A) (A) (A) (A)
 The electronic state is 3-A.
 Alpha  occ. eigenvalues --  -19.77122 -19.73051 -19.72653 -19.72306 -19.68321
 Alpha  occ. eigenvalues --  -10.67987  -1.37288  -1.31976  -1.22079  -1.02237
 Alpha  occ. eigenvalues --   -1.01105  -0.79635  -0.69514  -0.66056  -0.64255
 Alpha  occ. eigenvalues --   -0.63793  -0.60789  -0.56791  -0.55545  -0.54247
 Alpha  occ. eigenvalues --   -0.47207  -0.44481  -0.40714  -0.40305  -0.39419
 Alpha  occ. eigenvalues --   -0.33414
 Alpha virt. eigenvalues --    0.01353   0.02040   0.04287   0.04729   0.06918
 Alpha virt. eigenvalues --    0.10189   0.11838   0.14016   0.15729   0.16509
 Alpha virt. eigenvalues --    0.18034   0.18536   0.18764   0.20036   0.20408
 Alpha virt. eigenvalues --    0.20875   0.22768   0.23043   0.24150   0.24604
 Alpha virt. eigenvalues --    0.25651   0.27551   0.28220   0.29203   0.30542
 Alpha virt. eigenvalues --    0.31777   0.32748   0.32991   0.33904   0.35369
 Alpha virt. eigenvalues --    0.38507   0.41356   0.47554   0.51206   0.53887
 Alpha virt. eigenvalues --    0.55983   0.60414   0.61808   0.64312   0.65954
 Alpha virt. eigenvalues --    0.71383   0.75486   0.76255   0.78663   0.81889
 Alpha virt. eigenvalues --    0.88351   0.90265   0.95770   0.97001   0.97375
 Alpha virt. eigenvalues --    0.99003   1.01064   1.02897   1.04267   1.06846
 Alpha virt. eigenvalues --    1.08557   1.09499   1.10996   1.12620   1.14009
 Alpha virt. eigenvalues --    1.15106   1.16918   1.17218   1.18446   1.24710
 Alpha virt. eigenvalues --    1.25830   1.30266   1.32059   1.36739   1.39567
 Alpha virt. eigenvalues --    1.42861   1.46908   1.48795   1.50969   1.54400
 Alpha virt. eigenvalues --    1.54994   1.56376   1.59382   1.61338   1.63241
 Alpha virt. eigenvalues --    1.66335   1.72732   1.76020   1.81985   1.84717
 Alpha virt. eigenvalues --    1.94379   1.97796   1.99510   2.01014   2.05369
 Alpha virt. eigenvalues --    2.12430   2.18874   2.20347   2.25014   2.26596
 Alpha virt. eigenvalues --    2.30491   2.30679   2.34655   2.37614   2.44867
 Alpha virt. eigenvalues --    2.56103   2.59499   2.61897   2.69453   2.73128
 Alpha virt. eigenvalues --    2.84528   3.09700   3.11422   3.15056   3.24759
 Alpha virt. eigenvalues --    3.26718   3.31999   3.38097   3.42019   3.45694
 Alpha virt. eigenvalues --    3.53678   3.58144   3.64230   3.65454   3.68046
 Alpha virt. eigenvalues --    3.72266   3.75000   3.79209   3.88691   3.94787
 Alpha virt. eigenvalues --    4.04691   4.05523   4.11211   4.19091   4.21575
 Alpha virt. eigenvalues --    4.29963   4.42526   4.47953   4.57471   4.59923
 Alpha virt. eigenvalues --    4.62617   4.64600   4.68728   4.72749   4.78564
 Alpha virt. eigenvalues --    4.85750   4.87990   4.99137   4.99707   4.99819
 Alpha virt. eigenvalues --    5.04751   5.06396   5.07536   5.10003   5.10817
 Alpha virt. eigenvalues --    5.12314   5.13229   5.13871   5.15869   5.18120
 Alpha virt. eigenvalues --    5.19196   5.20668   5.25436   5.27642   5.29418
 Alpha virt. eigenvalues --    5.32407   5.34359   5.39304   5.42596   5.50518
 Alpha virt. eigenvalues --    5.51418   5.53571   5.61025   5.65324   5.66697
 Alpha virt. eigenvalues --    5.92444   5.99720   6.03795   6.15820   6.24015
 Alpha virt. eigenvalues --    6.26374   6.37155   6.48008   6.58912   6.69925
 Alpha virt. eigenvalues --    6.75492   6.80355   6.82350   6.84300   6.88283
 Alpha virt. eigenvalues --    6.88924   6.91504   6.92549   6.95970   7.03120
 Alpha virt. eigenvalues --    7.05633   7.08553   7.10960   7.12679   7.21243
 Alpha virt. eigenvalues --    7.24010   7.24256   7.28682   7.31614   7.41073
 Alpha virt. eigenvalues --    7.45928   7.49691   7.58786   7.65576   7.80640
 Alpha virt. eigenvalues --    7.86417   7.87803   7.92456  24.40245  49.94611
 Alpha virt. eigenvalues --   49.95601  50.01189  50.02358  50.12661
  Beta  occ. eigenvalues --  -19.76255 -19.72699 -19.71243 -19.71163 -19.68134
  Beta  occ. eigenvalues --  -10.67574  -1.33924  -1.29699  -1.21168  -0.98458
  Beta  occ. eigenvalues --   -0.97149  -0.77362  -0.67219  -0.63983  -0.61251
  Beta  occ. eigenvalues --   -0.60974  -0.55372  -0.53821  -0.51128  -0.50591
  Beta  occ. eigenvalues --   -0.45111  -0.39553  -0.38547  -0.36040
  Beta virt. eigenvalues --   -0.12276  -0.07774   0.01592   0.02155   0.04476
  Beta virt. eigenvalues --    0.04955   0.07346   0.10682   0.12354   0.14411
  Beta virt. eigenvalues --    0.16126   0.16808   0.18576   0.19044   0.19547
  Beta virt. eigenvalues --    0.20404   0.20725   0.21372   0.23255   0.23553
  Beta virt. eigenvalues --    0.24475   0.24782   0.26021   0.28119   0.28879
  Beta virt. eigenvalues --    0.29497   0.30782   0.31995   0.33118   0.33680
  Beta virt. eigenvalues --    0.34719   0.35668   0.38956   0.41434   0.48290
  Beta virt. eigenvalues --    0.51540   0.54324   0.56282   0.60860   0.62250
  Beta virt. eigenvalues --    0.64887   0.66462   0.71805   0.75607   0.76444
  Beta virt. eigenvalues --    0.79126   0.82177   0.88542   0.90523   0.96015
  Beta virt. eigenvalues --    0.97683   0.98283   0.99564   1.01320   1.04148
  Beta virt. eigenvalues --    1.06020   1.07699   1.09354   1.11210   1.12532
  Beta virt. eigenvalues --    1.13555   1.14632   1.15790   1.17540   1.18063
  Beta virt. eigenvalues --    1.19309   1.25219   1.26507   1.30803   1.32419
  Beta virt. eigenvalues --    1.37184   1.40824   1.43828   1.47670   1.50167
  Beta virt. eigenvalues --    1.51611   1.55499   1.55745   1.57293   1.60295
  Beta virt. eigenvalues --    1.62148   1.64842   1.67710   1.73753   1.77272
  Beta virt. eigenvalues --    1.83023   1.85512   1.95082   1.98583   2.00247
  Beta virt. eigenvalues --    2.01717   2.06205   2.13254   2.19678   2.20635
  Beta virt. eigenvalues --    2.26192   2.27334   2.30320   2.31229   2.35156
  Beta virt. eigenvalues --    2.38178   2.45828   2.56617   2.59925   2.62768
  Beta virt. eigenvalues --    2.68464   2.73704   2.83473   3.10840   3.12309
  Beta virt. eigenvalues --    3.14650   3.25941   3.27318   3.32865   3.40259
  Beta virt. eigenvalues --    3.43296   3.48052   3.55370   3.59491   3.64742
  Beta virt. eigenvalues --    3.66213   3.68924   3.72768   3.75359   3.80086
  Beta virt. eigenvalues --    3.90451   3.94499   4.04624   4.05545   4.10988
  Beta virt. eigenvalues --    4.19612   4.22212   4.30884   4.41956   4.50898
  Beta virt. eigenvalues --    4.57759   4.60844   4.63278   4.64686   4.69490
  Beta virt. eigenvalues --    4.74123   4.78602   4.86210   4.88994   5.02020
  Beta virt. eigenvalues --    5.02307   5.05039   5.06021   5.07718   5.08946
  Beta virt. eigenvalues --    5.10917   5.12898   5.13826   5.14912   5.15419
  Beta virt. eigenvalues --    5.16854   5.18944   5.20172   5.21530   5.26678
  Beta virt. eigenvalues --    5.29340   5.29970   5.32907   5.35217   5.40430
  Beta virt. eigenvalues --    5.43470   5.51289   5.52211   5.54075   5.61454
  Beta virt. eigenvalues --    5.65937   5.67499   5.92509   5.99505   6.04395
  Beta virt. eigenvalues --    6.16231   6.25122   6.27315   6.40295   6.48648
  Beta virt. eigenvalues --    6.59792   6.79185   6.81672   6.84191   6.87070
  Beta virt. eigenvalues --    6.87989   6.89517   6.91262   6.92433   6.96820
  Beta virt. eigenvalues --    6.99467   7.04900   7.06569   7.10996   7.11759
  Beta virt. eigenvalues --    7.13330   7.24033   7.24535   7.28648   7.30108
  Beta virt. eigenvalues --    7.34683   7.43521   7.46140   7.50559   7.59027
  Beta virt. eigenvalues --    7.65794   7.83997   7.86462   7.87924   7.94073
  Beta virt. eigenvalues --   24.40624  49.94155  49.95167  50.00657  50.01853
  Beta virt. eigenvalues --   50.12426
          Condensed to atoms (all electrons):
              1          2          3          4          5          6
     1  C    5.110257   0.147765   0.185490   0.363391   0.442368  -0.054716
     2  O    0.147765   7.682017   0.010324  -0.007648  -0.040560   0.188019
     3  O    0.185490   0.010324   7.919995  -0.018053  -0.043388   0.000514
     4  H    0.363391  -0.007648  -0.018053   0.443493  -0.030130  -0.012284
     5  H    0.442368  -0.040560  -0.043388  -0.030130   0.471154   0.006981
     6  O   -0.054716   0.188019   0.000514  -0.012284   0.006981   8.057852
     7  H   -0.018567  -0.013874   0.261941  -0.013258   0.006321   0.015389
     8  O    0.024614  -0.007067  -0.008034  -0.037862   0.001420   0.000659
     9  O   -0.056020   0.016961   0.010487  -0.013396   0.006530   0.002355
    10  H   -0.001362  -0.001880   0.001465   0.005474  -0.000224   0.006028
              7          8          9         10
     1  C   -0.018567   0.024614  -0.056020  -0.001362
     2  O   -0.013874  -0.007067   0.016961  -0.001880
     3  O    0.261941  -0.008034   0.010487   0.001465
     4  H   -0.013258  -0.037862  -0.013396   0.005474
     5  H    0.006321   0.001420   0.006530  -0.000224
     6  O    0.015389   0.000659   0.002355   0.006028
     7  H    0.452471   0.019053   0.002328  -0.003185
     8  O    0.019053   7.780424   0.147554   0.238662
     9  O    0.002328   0.147554   8.183497  -0.047813
    10  H   -0.003185   0.238662  -0.047813   0.533298
 Mulliken atomic charges:
              1
     1  C   -0.143220
     2  O    0.025944
     3  O   -0.320741
     4  H    0.320273
     5  H    0.179527
     6  O   -0.210797
     7  H    0.291381
     8  O   -0.159423
     9  O   -0.252483
    10  H    0.269537
 Sum of Mulliken atomic charges =   0.00000
 Mulliken charges with hydrogens summed into heavy atoms:
              1
     1  C    0.036308
     2  O    0.025944
     3  O   -0.029360
     6  O   -0.210797
     8  O    0.110115
     9  O    0.067790
 Sum of Mulliken charges with hydrogens summed into heavy atoms =   0.00000
          Atomic-Atomic Spin Densities.
              1          2          3          4          5          6
     1  C    0.476256  -0.029291  -0.073150   0.080590  -0.012450  -0.002844
     2  O   -0.029291   0.484659   0.000713  -0.016146   0.003773  -0.158842
     3  O   -0.073150   0.000713   0.117703  -0.013357   0.002635   0.000752
     4  H    0.080590  -0.016146  -0.013357  -0.063700  -0.000718   0.002319
     5  H   -0.012450   0.003773   0.002635  -0.000718   0.001969   0.000607
     6  O   -0.002844  -0.158842   0.000752   0.002319   0.000607   0.865837
     7  H   -0.011415   0.000719   0.006588  -0.000333   0.000345   0.000491
     8  O    0.050142  -0.004578  -0.016780   0.035869  -0.001501  -0.003479
     9  O   -0.120754   0.015919   0.025350  -0.047614   0.003972   0.001610
    10  H   -0.002046  -0.000148   0.000376  -0.001118   0.000051   0.001614
              7          8          9         10
     1  C   -0.011415   0.050142  -0.120754  -0.002046
     2  O    0.000719  -0.004578   0.015919  -0.000148
     3  O    0.006588  -0.016780   0.025350   0.000376
     4  H   -0.000333   0.035869  -0.047614  -0.001118
     5  H    0.000345  -0.001501   0.003972   0.000051
     6  O    0.000491  -0.003479   0.001610   0.001614
     7  H    0.003140  -0.007044   0.005407   0.000350
     8  O   -0.007044   0.196442  -0.113264  -0.002828
     9  O    0.005407  -0.113264   0.711105   0.005888
    10  H    0.000350  -0.002828   0.005888  -0.006173
 Mulliken atomic spin densities:
              1
     1  C    0.355039
     2  O    0.296778
     3  O    0.050831
     4  H   -0.024208
     5  H   -0.001317
     6  O    0.708064
     7  H   -0.001751
     8  O    0.132979
     9  O    0.487618
    10  H   -0.004033
 Sum of Mulliken atomic spin densities =   2.00000
 Electronic spatial extent (au):  <R**2>=            607.3173
 Charge=              0.0000 electrons
 Dipole moment (field-independent basis, Debye):
    X=              0.1197    Y=              0.0226    Z=             -0.2838  Tot=              0.3089
 Quadrupole moment (field-independent basis, Debye-Ang):
   XX=            -38.7652   YY=            -36.8004   ZZ=            -31.5910
   XY=             -4.0483   XZ=              3.6397   YZ=             -2.0240
 Traceless Quadrupole moment (field-independent basis, Debye-Ang):
   XX=             -3.0463   YY=             -1.0815   ZZ=              4.1278
   XY=             -4.0483   XZ=              3.6397   YZ=             -2.0240
 Octapole moment (field-independent basis, Debye-Ang**2):
  XXX=              1.9672  YYY=              5.4442  ZZZ=             -5.4051  XYY=             -7.9188
  XXY=              5.0577  XXZ=             -0.3855  XZZ=              1.3877  YZZ=             -1.7115
  YYZ=              0.6418  XYZ=             -0.7086
 Hexadecapole moment (field-independent basis, Debye-Ang**3):
 XXXX=           -408.3239 YYYY=           -206.9598 ZZZZ=            -94.9762 XXXY=            -10.7655
 XXXZ=              4.6581 YYYX=             -3.0376 YYYZ=             -2.7164 ZZZX=              3.6648
 ZZZY=              1.1285 XXYY=            -95.9580 XXZZ=            -83.4094 YYZZ=            -46.1496
 XXYZ=             -8.5319 YYXZ=              8.2107 ZZXY=             -3.8930
 N-N= 2.570665903927D+02 E-N=-2.225357150510D+03  KE= 6.194596247866D+02
                          Isotropic Fermi Contact Couplings
        Atom                 a.u.       MegaHertz       Gauss      10(-4) cm-1
     1  C(13)              0.16784      94.34431      33.66439      31.46987
     2  O(17)              0.07164     -21.71493      -7.74843      -7.24332
     3  O(17)              0.01186      -3.59572      -1.28304      -1.19940
     4  H(1)              -0.03079     -68.82022     -24.55677     -22.95595
     5  H(1)               0.00299       6.69255       2.38807       2.23239
     6  O(17)              0.11864     -35.96077     -12.83170     -11.99522
     7  H(1)               0.00284       6.34513       2.26410       2.11651
     8  O(17)              0.02419      -7.33064      -2.61575      -2.44524
     9  O(17)              0.09334     -28.29258     -10.09550      -9.43739
    10  H(1)              -0.00288      -6.44361      -2.29924      -2.14936
 --------------------------------------------------------
       Center         ----  Spin Dipole Couplings  ----
                      3XX-RR        3YY-RR        3ZZ-RR
 --------------------------------------------------------
     1   Atom        0.410254     -0.186495     -0.223759
     2   Atom       -0.042303     -0.581505      0.623808
     3   Atom        0.293542     -0.178737     -0.114804
     4   Atom        0.206827     -0.096005     -0.110822
     5   Atom       -0.006214     -0.003153      0.009367
     6   Atom       -0.264766     -0.998184      1.262951
     7   Atom       -0.013522     -0.001916      0.015438
     8   Atom        0.661147     -0.254857     -0.406290
     9   Atom        2.106013     -1.048336     -1.057677
    10   Atom        0.001855      0.016020     -0.017875
 --------------------------------------------------------
                        XY            XZ            YZ
 --------------------------------------------------------
     1   Atom       -0.143029     -0.110403      0.014643
     2   Atom       -0.311246     -1.130091      0.601488
     3   Atom       -0.070509     -0.167369      0.056301
     4   Atom       -0.056353     -0.028592     -0.004085
     5   Atom       -0.013683      0.013619     -0.029913
     6   Atom       -0.799674     -1.878755      1.217666
     7   Atom       -0.003125      0.011416      0.000440
     8   Atom       -0.279547     -0.155646      0.029243
     9   Atom       -0.765390     -0.774170      0.186155
    10   Atom        0.008085      0.001744     -0.020353
 --------------------------------------------------------


 ---------------------------------------------------------------------------------
              Anisotropic Spin Dipole Couplings in Principal Axis System
 ---------------------------------------------------------------------------------

       Atom             a.u.   MegaHertz   Gauss  10(-4) cm-1        Axes

              Baa    -0.2455   -32.949   -11.757   -10.991  0.2236  0.3127  0.9231
     1 C(13)  Bbb    -0.2152   -28.877   -10.304    -9.632  0.1498  0.9249 -0.3496
              Bcc     0.4607    61.826    22.061    20.623  0.9631 -0.2164 -0.1600
 
              Baa    -0.9531    68.967    24.609    23.005  0.5990 -0.5047  0.6217
     2 O(17)  Bbb    -0.7146    51.711    18.452    17.249  0.5684  0.8148  0.1138
              Bcc     1.6678  -120.678   -43.061   -40.254 -0.5640  0.2853  0.7749
 
              Baa    -0.2136    15.455     5.515     5.155 -0.0883  0.7936 -0.6019
     3 O(17)  Bbb    -0.1532    11.084     3.955     3.697  0.3635  0.5883  0.7223
              Bcc     0.3668   -26.539    -9.470    -8.852  0.9274 -0.1550 -0.3404
 
              Baa    -0.1193   -63.666   -22.718   -21.237  0.1663  0.5457  0.8213
     4 H(1)   Bbb    -0.0999   -53.316   -19.025   -17.784  0.0980  0.8196 -0.5644
              Bcc     0.2193   116.982    41.742    39.021  0.9812 -0.1743 -0.0828
 
              Baa    -0.0277   -14.791    -5.278    -4.934  0.1299  0.7945  0.5931
     5 H(1)   Bbb    -0.0137    -7.307    -2.607    -2.437  0.9182  0.1294 -0.3744
              Bcc     0.0414    22.098     7.885     7.371  0.3742 -0.5933  0.7127
 
              Baa    -1.5414   111.532    39.798    37.203  0.5292 -0.5893  0.6104
     6 O(17)  Bbb    -1.5098   109.251    38.984    36.442  0.6671  0.7336  0.1298
              Bcc     3.0512  -220.784   -78.781   -73.645 -0.5243  0.3385  0.7813
 
              Baa    -0.0181    -9.644    -3.441    -3.217  0.9289  0.1883 -0.3189
     7 H(1)   Bbb    -0.0013    -0.715    -0.255    -0.238 -0.1685  0.9817  0.0889
              Bcc     0.0194    10.359     3.696     3.455  0.3298 -0.0288  0.9436
 
              Baa    -0.4296    31.086    11.092    10.369  0.1659  0.1013  0.9809
     8 O(17)  Bbb    -0.3314    23.983     8.558     8.000  0.2478  0.9585 -0.1409
              Bcc     0.7610   -55.068   -19.650   -18.369  0.9545 -0.2665 -0.1339
 
              Baa    -1.2414    89.824    32.051    29.962  0.1023 -0.4500  0.8871
     9 O(17)  Bbb    -1.2207    88.327    31.517    29.463  0.2935  0.8658  0.4053
              Bcc     2.4620  -178.151   -63.569   -59.425  0.9505 -0.2189 -0.2206
 
              Baa    -0.0283   -15.083    -5.382    -5.031 -0.1684  0.4368  0.8836
    10 H(1)   Bbb     0.0010     0.522     0.186     0.174  0.9522 -0.1595  0.2604
              Bcc     0.0273    14.561     5.196     4.857  0.2547  0.8853 -0.3891
 

 ---------------------------------------------------------------------------------

 1\1\GINC-COMPUTE-3-042\FOpt\UM062X\6-311+G(2df,2p)\C1H4O5(3)\ROOT\03-A
 ug-2017\0\\# m062x/6-311+g(2df,2p) Opt=(ModRedun,Loose) Int(Grid=SG1)\
 \[O]O+[O]OCO_OO+[O]O[CH]O\\0,3\C,-0.8931790253,-0.5888239151,-0.229484
 3431\O,-1.464500233,0.7091254033,-0.5032903151\O,-0.8876715387,-0.8845
 791448,1.0875432152\H,0.3386597696,-0.4866640884,-0.6397237865\H,-1.46
 72593856,-1.3077715109,-0.8064140849\O,-0.6871425397,1.6499679261,-0.0
 578301662\H,-0.2304771347,-0.3373528055,1.5382183653\O,1.9689885855,0.
 2961933373,0.298909869\O,1.5593873884,-0.2848795389,-0.8605937189\H,1.
 7632941134,1.234684337,0.1726649651\\Version=EM64L-G09RevB.01\State=3-
 A\HF=-416.302338\S2=2.014682\S2-1=0.\S2A=2.000112\RMSD=4.237e-09\RMSF=
 7.324e-03\Dipole=-0.037094,0.0480223,0.1052816\Quadrupole=-1.668896,0.
 2690209,1.3998751,4.0220086,1.8900464,2.0213447\PG=C01 [X(C1H4O5)]\\@


 IN SO FAR AS QUANTUM MECHANICS IS CORRECT, CHEMICAL 
 QUESTIONS ARE PROBLEMS IN APPLIED MATHEMATICS.

                    -- EYRING, WALTER, & KIMBALL, 1944
 Job cpu time:  0 days  9 hours 13 minutes 24.2 seconds.
 File lengths (MBytes):  RWF=   1248 Int=      0 D2E=      0 Chk=     32 Scr=     32
 Normal termination of Gaussian 09 at Thu Aug  3 22:27:27 2017.
