 Entering Gaussian System, Link 0=/shared/apps/gaussian/G09_LINUX_LINDA/g09/g09
 Input=/gss_gpfs_scratch/harms.n/QMscratch/[O]O+[O]OCCCCO_OO+[O]OC[CH]CCORxnC.gjf
 Output=/gss_gpfs_scratch/harms.n/QMscratch/[O]O+[O]OCCCCO_OO+[O]OC[CH]CCORxnC.log
 Initial command:
 /shared/apps/gaussian/G09_LINUX_LINDA/g09/l1.exe /gss_gpfs_scratch/harms.n/comparerTST/Gau-37713.inp -scrdir=/gss_gpfs_scratch/harms.n/comparerTST/
 Entering Link 1 = /shared/apps/gaussian/G09_LINUX_LINDA/g09/l1.exe PID=     37714.
  
 Copyright (c) 1988,1990,1992,1993,1995,1998,2003,2009,2010,
            Gaussian, Inc.  All Rights Reserved.
  
 This is part of the Gaussian(R) 09 program.  It is based on
 the Gaussian(R) 03 system (copyright 2003, Gaussian, Inc.),
 the Gaussian(R) 98 system (copyright 1998, Gaussian, Inc.),
 the Gaussian(R) 94 system (copyright 1995, Gaussian, Inc.),
 the Gaussian 92(TM) system (copyright 1992, Gaussian, Inc.),
 the Gaussian 90(TM) system (copyright 1990, Gaussian, Inc.),
 the Gaussian 88(TM) system (copyright 1988, Gaussian, Inc.),
 the Gaussian 86(TM) system (copyright 1986, Carnegie Mellon
 University), and the Gaussian 82(TM) system (copyright 1983,
 Carnegie Mellon University). Gaussian is a federally registered
 trademark of Gaussian, Inc.
  
 This software contains proprietary and confidential information,
 including trade secrets, belonging to Gaussian, Inc.
  
 This software is provided under written license and may be
 used, copied, transmitted, or stored only in accord with that
 written license.
  
 The following legend is applicable only to US Government
 contracts under FAR:
  
                    RESTRICTED RIGHTS LEGEND
  
 Use, reproduction and disclosure by the US Government is
 subject to restrictions as set forth in subparagraphs (a)
 and (c) of the Commercial Computer Software - Restricted
 Rights clause in FAR 52.227-19.
  
 Gaussian, Inc.
 340 Quinnipiac St., Bldg. 40, Wallingford CT 06492
  
  
 ---------------------------------------------------------------
 Warning -- This program may not be used in any manner that
 competes with the business of Gaussian, Inc. or will provide
 assistance to any competitor of Gaussian, Inc.  The licensee
 of this program is prohibited from giving any competitor of
 Gaussian, Inc. access to this program.  By using this program,
 the user acknowledges that Gaussian, Inc. is engaged in the
 business of creating and licensing software in the field of
 computational chemistry and represents and warrants to the
 licensee that it is not a competitor of Gaussian, Inc. and that
 it will not use this program in any manner prohibited above.
 ---------------------------------------------------------------
  

 Cite this work as:
 Gaussian 09, Revision B.01,
 M. J. Frisch, G. W. Trucks, H. B. Schlegel, G. E. Scuseria, 
 M. A. Robb, J. R. Cheeseman, G. Scalmani, V. Barone, B. Mennucci, 
 G. A. Petersson, H. Nakatsuji, M. Caricato, X. Li, H. P. Hratchian, 
 A. F. Izmaylov, J. Bloino, G. Zheng, J. L. Sonnenberg, M. Hada, 
 M. Ehara, K. Toyota, R. Fukuda, J. Hasegawa, M. Ishida, T. Nakajima, 
 Y. Honda, O. Kitao, H. Nakai, T. Vreven, J. A. Montgomery, Jr., 
 J. E. Peralta, F. Ogliaro, M. Bearpark, J. J. Heyd, E. Brothers, 
 K. N. Kudin, V. N. Staroverov, T. Keith, R. Kobayashi, J. Normand, 
 K. Raghavachari, A. Rendell, J. C. Burant, S. S. Iyengar, J. Tomasi, 
 M. Cossi, N. Rega, J. M. Millam, M. Klene, J. E. Knox, J. B. Cross, 
 V. Bakken, C. Adamo, J. Jaramillo, R. Gomperts, R. E. Stratmann, 
 O. Yazyev, A. J. Austin, R. Cammi, C. Pomelli, J. W. Ochterski, 
 R. L. Martin, K. Morokuma, V. G. Zakrzewski, G. A. Voth, 
 P. Salvador, J. J. Dannenberg, S. Dapprich, A. D. Daniels, 
 O. Farkas, J. B. Foresman, J. V. Ortiz, J. Cioslowski, 
 and D. J. Fox, Gaussian, Inc., Wallingford CT, 2010.
 
 ******************************************
 Gaussian 09:  EM64L-G09RevB.01 12-Aug-2010
                12-Aug-2017 
 ******************************************
 %nprocshared=20
 Will use up to   20 processors via shared memory.
 %mem=5GB
 ---------------------------------------------------
 # m062x/6-311+g(2df,2p) opt=(ts,calcfc,noeigentest)
 ---------------------------------------------------
 1/5=1,10=4,11=1,14=-1,18=20,26=3,38=1/1,3;
 2/9=110,12=2,17=6,18=5,40=1/2;
 3/5=4,6=6,7=214,11=2,16=1,25=1,30=1,71=2,74=-55/1,2,3;
 4//1;
 5/5=2,38=5/2;
 8/6=4,10=90,11=11/1;
 11/6=1,8=1,9=11,15=111,16=1/1,2,10;
 10/6=1,7=6,13=1/2;
 6/7=2,8=2,9=2,10=2,28=1/1;
 7/10=1,18=20,25=1/1,2,3,16;
 1/5=1,10=4,11=1,14=-1,18=20/3(2);
 2/9=110/2;
 99//99;
 2/9=110/2;
 3/5=4,6=6,7=214,11=2,16=1,25=1,30=1,71=1,74=-55/1,2,3;
 4/5=5,16=3/1;
 5/5=2,38=5/2;
 7//1,2,3,16;
 1/5=1,11=1,14=-1,18=20/3(-5);
 2/9=110/2;
 6/7=2,8=2,9=2,10=2,19=2,28=1/1;
 99/9=1/99;
 ------------------------------
 [O]O+[O]OCCCCO_OO+[O]OC[CH]CCO
 ------------------------------
 Symbolic Z-matrix:
 Charge =  0 Multiplicity = 3
 C                     0.17177  -0.81898   0.61 
 C                    -0.1037    0.64781   0.81802 
 C                     1.18378  -1.24358  -0.41517 
 C                    -0.3981    1.42686  -0.45953 
 O                     2.54011  -0.93486   0.01072 
 O                    -0.73209   2.76994  -0.17539 
 H                    -0.95394  -1.29741   0.08597 
 H                     0.24988  -1.38891   1.53387 
 H                    -0.95398   0.76463   1.49218 
 H                     0.76022   1.10055   1.32114 
 H                     1.19422  -2.32508  -0.53628 
 H                     1.03647  -0.76529  -1.38085 
 H                    -1.26346   0.99665  -0.96344 
 H                     0.45711   1.37802  -1.13811 
 O                     2.78533   0.33453  -0.04861 
 H                     0.05285   3.22381   0.13836 
 O                    -2.89004  -0.65103   0.03319 
 O                    -2.00289  -1.60645  -0.40469 
 H                    -3.30523  -1.05663   0.80548 
 

 GradGradGradGradGradGradGradGradGradGradGradGradGradGradGradGradGradGrad
 Berny optimization.
 Initialization pass.
                           ----------------------------
                           !    Initial Parameters    !
                           ! (Angstroms and Degrees)  !
 --------------------------                            --------------------------
 ! Name  Definition              Value          Derivative Info.                !
 --------------------------------------------------------------------------------
 ! R1    R(1,2)                  1.5069         calculate D2E/DX2 analytically  !
 ! R2    R(1,3)                  1.5018         calculate D2E/DX2 analytically  !
 ! R3    R(1,7)                  1.3307         calculate D2E/DX2 analytically  !
 ! R4    R(1,8)                  1.0883         calculate D2E/DX2 analytically  !
 ! R5    R(2,4)                  1.525          calculate D2E/DX2 analytically  !
 ! R6    R(2,9)                  1.0914         calculate D2E/DX2 analytically  !
 ! R7    R(2,10)                 1.0975         calculate D2E/DX2 analytically  !
 ! R8    R(3,5)                  1.4548         calculate D2E/DX2 analytically  !
 ! R9    R(3,11)                 1.0883         calculate D2E/DX2 analytically  !
 ! R10   R(3,12)                 1.0877         calculate D2E/DX2 analytically  !
 ! R11   R(4,6)                  1.4128         calculate D2E/DX2 analytically  !
 ! R12   R(4,13)                 1.0899         calculate D2E/DX2 analytically  !
 ! R13   R(4,14)                 1.0928         calculate D2E/DX2 analytically  !
 ! R14   R(5,15)                 1.2942         calculate D2E/DX2 analytically  !
 ! R15   R(6,16)                 0.9595         calculate D2E/DX2 analytically  !
 ! R16   R(7,18)                 1.1986         calculate D2E/DX2 analytically  !
 ! R17   R(17,18)                1.3754         calculate D2E/DX2 analytically  !
 ! R18   R(17,19)                0.9661         calculate D2E/DX2 analytically  !
 ! A1    A(2,1,3)              119.5134         calculate D2E/DX2 analytically  !
 ! A2    A(2,1,7)              104.4591         calculate D2E/DX2 analytically  !
 ! A3    A(2,1,8)              113.9341         calculate D2E/DX2 analytically  !
 ! A4    A(3,1,7)              101.5129         calculate D2E/DX2 analytically  !
 ! A5    A(3,1,8)              112.5228         calculate D2E/DX2 analytically  !
 ! A6    A(7,1,8)              101.9313         calculate D2E/DX2 analytically  !
 ! A7    A(1,2,4)              114.6395         calculate D2E/DX2 analytically  !
 ! A8    A(1,2,9)              109.3837         calculate D2E/DX2 analytically  !
 ! A9    A(1,2,10)             108.7196         calculate D2E/DX2 analytically  !
 ! A10   A(4,2,9)              108.2031         calculate D2E/DX2 analytically  !
 ! A11   A(4,2,10)             108.982          calculate D2E/DX2 analytically  !
 ! A12   A(9,2,10)             106.615          calculate D2E/DX2 analytically  !
 ! A13   A(1,3,5)              111.6186         calculate D2E/DX2 analytically  !
 ! A14   A(1,3,11)             111.3083         calculate D2E/DX2 analytically  !
 ! A15   A(1,3,12)             112.9845         calculate D2E/DX2 analytically  !
 ! A16   A(5,3,11)             103.563          calculate D2E/DX2 analytically  !
 ! A17   A(5,3,12)             107.0302         calculate D2E/DX2 analytically  !
 ! A18   A(11,3,12)            109.8459         calculate D2E/DX2 analytically  !
 ! A19   A(2,4,6)              111.2712         calculate D2E/DX2 analytically  !
 ! A20   A(2,4,13)             109.8132         calculate D2E/DX2 analytically  !
 ! A21   A(2,4,14)             110.2596         calculate D2E/DX2 analytically  !
 ! A22   A(6,4,13)             106.2917         calculate D2E/DX2 analytically  !
 ! A23   A(6,4,14)             110.6314         calculate D2E/DX2 analytically  !
 ! A24   A(13,4,14)            108.4584         calculate D2E/DX2 analytically  !
 ! A25   A(3,5,15)             111.8008         calculate D2E/DX2 analytically  !
 ! A26   A(4,6,16)             108.7879         calculate D2E/DX2 analytically  !
 ! A27   A(1,7,18)             173.8698         calculate D2E/DX2 analytically  !
 ! A28   A(18,17,19)           103.89           calculate D2E/DX2 analytically  !
 ! A29   A(7,18,17)            104.7772         calculate D2E/DX2 analytically  !
 ! D1    D(3,1,2,4)             50.5403         calculate D2E/DX2 analytically  !
 ! D2    D(3,1,2,9)            172.256          calculate D2E/DX2 analytically  !
 ! D3    D(3,1,2,10)           -71.6863         calculate D2E/DX2 analytically  !
 ! D4    D(7,1,2,4)            -61.9681         calculate D2E/DX2 analytically  !
 ! D5    D(7,1,2,9)             59.7477         calculate D2E/DX2 analytically  !
 ! D6    D(7,1,2,10)           175.8054         calculate D2E/DX2 analytically  !
 ! D7    D(8,1,2,4)           -172.3353         calculate D2E/DX2 analytically  !
 ! D8    D(8,1,2,9)            -50.6196         calculate D2E/DX2 analytically  !
 ! D9    D(8,1,2,10)            65.4381         calculate D2E/DX2 analytically  !
 ! D10   D(2,1,3,5)             71.4004         calculate D2E/DX2 analytically  !
 ! D11   D(2,1,3,11)          -173.4269         calculate D2E/DX2 analytically  !
 ! D12   D(2,1,3,12)           -49.2834         calculate D2E/DX2 analytically  !
 ! D13   D(7,1,3,5)           -174.5133         calculate D2E/DX2 analytically  !
 ! D14   D(7,1,3,11)           -59.3406         calculate D2E/DX2 analytically  !
 ! D15   D(7,1,3,12)            64.803          calculate D2E/DX2 analytically  !
 ! D16   D(8,1,3,5)            -66.281          calculate D2E/DX2 analytically  !
 ! D17   D(8,1,3,11)            48.8917         calculate D2E/DX2 analytically  !
 ! D18   D(8,1,3,12)           173.0353         calculate D2E/DX2 analytically  !
 ! D19   D(2,1,7,18)            13.0145         calculate D2E/DX2 analytically  !
 ! D20   D(3,1,7,18)          -111.8549         calculate D2E/DX2 analytically  !
 ! D21   D(8,1,7,18)           131.876          calculate D2E/DX2 analytically  !
 ! D22   D(1,2,4,6)            176.1055         calculate D2E/DX2 analytically  !
 ! D23   D(1,2,4,13)            58.703          calculate D2E/DX2 analytically  !
 ! D24   D(1,2,4,14)           -60.7504         calculate D2E/DX2 analytically  !
 ! D25   D(9,2,4,6)             53.7477         calculate D2E/DX2 analytically  !
 ! D26   D(9,2,4,13)           -63.6548         calculate D2E/DX2 analytically  !
 ! D27   D(9,2,4,14)           176.8918         calculate D2E/DX2 analytically  !
 ! D28   D(10,2,4,6)           -61.8105         calculate D2E/DX2 analytically  !
 ! D29   D(10,2,4,13)         -179.213          calculate D2E/DX2 analytically  !
 ! D30   D(10,2,4,14)           61.3336         calculate D2E/DX2 analytically  !
 ! D31   D(1,3,5,15)           -72.8062         calculate D2E/DX2 analytically  !
 ! D32   D(11,3,5,15)          167.3458         calculate D2E/DX2 analytically  !
 ! D33   D(12,3,5,15)           51.2967         calculate D2E/DX2 analytically  !
 ! D34   D(2,4,6,16)            69.6314         calculate D2E/DX2 analytically  !
 ! D35   D(13,4,6,16)         -170.8484         calculate D2E/DX2 analytically  !
 ! D36   D(14,4,6,16)          -53.2996         calculate D2E/DX2 analytically  !
 ! D37   D(1,7,18,17)          -36.4365         calculate D2E/DX2 analytically  !
 ! D38   D(19,17,18,7)         -95.8635         calculate D2E/DX2 analytically  !
 --------------------------------------------------------------------------------
 Trust Radius=3.00D-01 FncErr=1.00D-07 GrdErr=1.00D-06
 Number of steps in this run=     95 maximum allowed number of steps=    114.
 Search for a saddle point of order  1.
 GradGradGradGradGradGradGradGradGradGradGradGradGradGradGradGradGradGrad

                          Input orientation:                          
 ---------------------------------------------------------------------
 Center     Atomic      Atomic             Coordinates (Angstroms)
 Number     Number       Type             X           Y           Z
 ---------------------------------------------------------------------
      1          6           0        0.171768   -0.818982    0.610002
      2          6           0       -0.103698    0.647808    0.818016
      3          6           0        1.183779   -1.243581   -0.415172
      4          6           0       -0.398103    1.426858   -0.459525
      5          8           0        2.540105   -0.934863    0.010717
      6          8           0       -0.732086    2.769940   -0.175394
      7          1           0       -0.953944   -1.297410    0.085967
      8          1           0        0.249883   -1.388908    1.533865
      9          1           0       -0.953981    0.764634    1.492182
     10          1           0        0.760222    1.100546    1.321144
     11          1           0        1.194224   -2.325083   -0.536279
     12          1           0        1.036474   -0.765294   -1.380846
     13          1           0       -1.263463    0.996647   -0.963437
     14          1           0        0.457109    1.378016   -1.138111
     15          8           0        2.785331    0.334532   -0.048606
     16          1           0        0.052845    3.223812    0.138363
     17          8           0       -2.890036   -0.651025    0.033189
     18          8           0       -2.002892   -1.606452   -0.404688
     19          1           0       -3.305225   -1.056635    0.805482
 ---------------------------------------------------------------------
                    Distance matrix (angstroms):
                    1          2          3          4          5
     1  C    0.000000
     2  C    1.506859   0.000000
     3  C    1.501810   2.599173   0.000000
     4  C    2.551948   1.525026   3.104120   0.000000
     5  O    2.445729   3.185322   1.454754   3.798937   0.000000
     6  O    3.783406   2.425939   4.453805   1.412850   4.946457
     7  H    1.330689   2.245593   2.196337   2.833400   3.513614
     8  H    1.088320   2.187618   2.166109   3.510275   2.787697
     9  H    2.133868   1.091389   3.498706   2.134643   4.158325
    10  H    2.129927   1.097482   2.947732   2.149181   3.004678
    11  H    2.151213   3.515224   1.088312   4.076574   2.010799
    12  H    2.171192   2.851639   1.087650   2.777116   2.055750
    13  H    2.798590   2.154140   3.362768   1.089888   4.375710
    14  H    2.822077   2.161976   2.814864   1.092818   3.317844
    15  O    2.931735   3.032435   2.278109   3.390617   1.294225
    16  H    4.071949   2.668751   4.641445   1.946758   4.847405
    17  O    3.120187   3.172791   4.141029   3.281782   5.437601
    18  O    2.525639   3.191180   3.207282   3.432102   4.611119
    19  H    3.490583   3.626990   4.655760   4.027324   5.900370
                    6          7          8          9         10
     6  O    0.000000
     7  H    4.081772   0.000000
     8  H    4.602374   1.885200   0.000000
     9  H    2.617499   2.495890   2.467543   0.000000
    10  H    2.693230   3.195969   2.550113   1.755159   0.000000
    11  H    5.458953   2.461286   2.460427   4.275019   3.920882
    12  H    4.132650   2.529121   3.082720   3.815348   3.295212
    13  H    2.011950   2.541603   3.770624   2.485895   3.053753
    14  H    2.068444   3.263026   3.852047   3.047270   2.493352
    15  O    4.280130   4.082098   3.450066   4.067121   2.562042
    16  H    0.959458   4.632258   4.823218   2.982295   2.531326
    17  O    4.050093   2.041825   3.557470   2.807323   4.248672
    18  O    4.562930   1.198558   2.979985   3.212535   4.235697
    19  H    4.714429   2.470667   3.644138   3.052364   4.631112
                   11         12         13         14         15
    11  H    0.000000
    12  H    1.780764   0.000000
    13  H    4.154104   2.927179   0.000000
    14  H    3.823412   2.233464   1.770966   0.000000
    15  O    3.137355   2.458248   4.203337   2.774256   0.000000
    16  H    5.705096   4.380467   2.811920   2.280302   3.981127
    17  O    4.450612   4.174929   2.520680   4.085625   5.760886
    18  O    3.279527   3.301239   2.763165   3.936567   5.178928
    19  H    4.863571   4.869832   3.393204   4.884694   6.305528
                   16         17         18         19
    16  H    0.000000
    17  O    4.866824   0.000000
    18  O    5.277538   1.375355   0.000000
    19  H    5.481232   0.966094   1.860882   0.000000
 Stoichiometry    C4H10O5(3)
 Framework group  C1[X(C4H10O5)]
 Deg. of freedom    51
 Full point group                 C1      NOp   1
 Largest Abelian subgroup         C1      NOp   1
 Largest concise Abelian subgroup C1      NOp   1
                         Standard orientation:                         
 ---------------------------------------------------------------------
 Center     Atomic      Atomic             Coordinates (Angstroms)
 Number     Number       Type             X           Y           Z
 ---------------------------------------------------------------------
      1          6           0        0.171768   -0.818982    0.610002
      2          6           0       -0.103698    0.647808    0.818016
      3          6           0        1.183779   -1.243581   -0.415172
      4          6           0       -0.398103    1.426858   -0.459525
      5          8           0        2.540105   -0.934862    0.010717
      6          8           0       -0.732087    2.769940   -0.175394
      7          1           0       -0.953944   -1.297410    0.085967
      8          1           0        0.249883   -1.388908    1.533865
      9          1           0       -0.953981    0.764634    1.492182
     10          1           0        0.760222    1.100546    1.321144
     11          1           0        1.194225   -2.325083   -0.536279
     12          1           0        1.036474   -0.765294   -1.380846
     13          1           0       -1.263463    0.996647   -0.963437
     14          1           0        0.457109    1.378016   -1.138111
     15          8           0        2.785331    0.334533   -0.048606
     16          1           0        0.052844    3.223812    0.138363
     17          8           0       -2.890036   -0.651026    0.033189
     18          8           0       -2.002892   -1.606453   -0.404688
     19          1           0       -3.305225   -1.056636    0.805482
 ---------------------------------------------------------------------
 Rotational constants (GHZ):      1.6826734      1.0060023      0.6836242
 Standard basis: 6-311+G(2df,2p) (5D, 7F)
 There are   396 symmetry adapted basis functions of A   symmetry.
 Integral buffers will be    131072 words long.
 Raffenetti 2 integral format.
 Two-electron integral symmetry is turned on.
   396 basis functions,   578 primitive gaussians,   441 cartesian basis functions
    38 alpha electrons       36 beta electrons
       nuclear repulsion energy       489.6724561200 Hartrees.
 NAtoms=   19 NActive=   19 NUniq=   19 SFac= 1.00D+00 NAtFMM=   50 NAOKFM=F Big=F
 One-electron integrals computed using PRISM.
 NBasis=   396 RedAO= T  NBF=   396
 NBsUse=   396 1.00D-06 NBFU=   396
 Harris functional with IExCor= 1009 diagonalized for initial guess.
 ExpMin= 4.38D-02 ExpMax= 8.59D+03 ExpMxC= 1.30D+03 IAcc=2 IRadAn=         0 AccDes= 0.00D+00
 HarFok:  IExCor= 1009 AccDes= 0.00D+00 IRadAn=         0 IDoV= 1
 ScaDFX=  1.000000  1.000000  1.000000  1.000000
 FoFCou: FMM=F IPFlag=           0 FMFlag=      100000 FMFlg1=           0
         NFxFlg=           0 DoJE=T BraDBF=F KetDBF=T FulRan=T
         Omega=  0.000000  0.000000  1.000000  0.000000  0.000000 ICntrl=     500 IOpCl=  0
         NMat0=    1 NMatS0=    1 NMatT0=    0 NMatD0=    1 NMtDS0=    0 NMtDT0=    0
         I1Cent=           4 NGrid=           0.
 Petite list used in FoFCou.
 Initial guess orbital symmetries:
 Alpha Orbitals:
       Occupied  (A) (A) (A) (A) (A) (A) (A) (A) (A) (A) (A) (A)
                 (A) (A) (A) (A) (A) (A) (A) (A) (A) (A) (A) (A)
                 (A) (A) (A) (A) (A) (A) (A) (A) (A) (A) (A) (A)
                 (A) (A)
       Virtual   (A) (A) (A) (A) (A) (A) (A) (A) (A) (A) (A) (A)
                 (A) (A) (A) (A) (A) (A) (A) (A) (A) (A) (A) (A)
                 (A) (A) (A) (A) (A) (A) (A) (A) (A) (A) (A) (A)
                 (A) (A) (A) (A) (A) (A) (A) (A) (A) (A) (A) (A)
                 (A) (A) (A) (A) (A) (A) (A) (A) (A) (A) (A) (A)
                 (A) (A) (A) (A) (A) (A) (A) (A) (A) (A) (A) (A)
                 (A) (A) (A) (A) (A) (A) (A) (A) (A) (A) (A) (A)
                 (A) (A) (A) (A) (A) (A) (A) (A) (A) (A) (A) (A)
                 (A) (A) (A) (A) (A) (A) (A) (A) (A) (A) (A) (A)
                 (A) (A) (A) (A) (A) (A) (A) (A) (A) (A) (A) (A)
                 (A) (A) (A) (A) (A) (A) (A) (A) (A) (A) (A) (A)
                 (A) (A) (A) (A) (A) (A) (A) (A) (A) (A) (A) (A)
                 (A) (A) (A) (A) (A) (A) (A) (A) (A) (A) (A) (A)
                 (A) (A) (A) (A) (A) (A) (A) (A) (A) (A) (A) (A)
                 (A) (A) (A) (A) (A) (A) (A) (A) (A) (A) (A) (A)
                 (A) (A) (A) (A) (A) (A) (A) (A) (A) (A) (A) (A)
                 (A) (A) (A) (A) (A) (A) (A) (A) (A) (A) (A) (A)
                 (A) (A) (A) (A) (A) (A) (A) (A) (A) (A) (A) (A)
                 (A) (A) (A) (A) (A) (A) (A) (A) (A) (A) (A) (A)
                 (A) (A) (A) (A) (A) (A) (A) (A) (A) (A) (A) (A)
                 (A) (A) (A) (A) (A) (A) (A) (A) (A) (A) (A) (A)
                 (A) (A) (A) (A) (A) (A) (A) (A) (A) (A) (A) (A)
                 (A) (A) (A) (A) (A) (A) (A) (A) (A) (A) (A) (A)
                 (A) (A) (A) (A) (A) (A) (A) (A) (A) (A) (A) (A)
                 (A) (A) (A) (A) (A) (A) (A) (A) (A) (A) (A) (A)
                 (A) (A) (A) (A) (A) (A) (A) (A) (A) (A) (A) (A)
                 (A) (A) (A) (A) (A) (A) (A) (A) (A) (A) (A) (A)
                 (A) (A) (A) (A) (A) (A) (A) (A) (A) (A) (A) (A)
                 (A) (A) (A) (A) (A) (A) (A) (A) (A) (A) (A) (A)
                 (A) (A) (A) (A) (A) (A) (A) (A) (A) (A)
 Beta  Orbitals:
       Occupied  (A) (A) (A) (A) (A) (A) (A) (A) (A) (A) (A) (A)
                 (A) (A) (A) (A) (A) (A) (A) (A) (A) (A) (A) (A)
                 (A) (A) (A) (A) (A) (A) (A) (A) (A) (A) (A) (A)
       Virtual   (A) (A) (A) (A) (A) (A) (A) (A) (A) (A) (A) (A)
                 (A) (A) (A) (A) (A) (A) (A) (A) (A) (A) (A) (A)
                 (A) (A) (A) (A) (A) (A) (A) (A) (A) (A) (A) (A)
                 (A) (A) (A) (A) (A) (A) (A) (A) (A) (A) (A) (A)
                 (A) (A) (A) (A) (A) (A) (A) (A) (A) (A) (A) (A)
                 (A) (A) (A) (A) (A) (A) (A) (A) (A) (A) (A) (A)
                 (A) (A) (A) (A) (A) (A) (A) (A) (A) (A) (A) (A)
                 (A) (A) (A) (A) (A) (A) (A) (A) (A) (A) (A) (A)
                 (A) (A) (A) (A) (A) (A) (A) (A) (A) (A) (A) (A)
                 (A) (A) (A) (A) (A) (A) (A) (A) (A) (A) (A) (A)
                 (A) (A) (A) (A) (A) (A) (A) (A) (A) (A) (A) (A)
                 (A) (A) (A) (A) (A) (A) (A) (A) (A) (A) (A) (A)
                 (A) (A) (A) (A) (A) (A) (A) (A) (A) (A) (A) (A)
                 (A) (A) (A) (A) (A) (A) (A) (A) (A) (A) (A) (A)
                 (A) (A) (A) (A) (A) (A) (A) (A) (A) (A) (A) (A)
                 (A) (A) (A) (A) (A) (A) (A) (A) (A) (A) (A) (A)
                 (A) (A) (A) (A) (A) (A) (A) (A) (A) (A) (A) (A)
                 (A) (A) (A) (A) (A) (A) (A) (A) (A) (A) (A) (A)
                 (A) (A) (A) (A) (A) (A) (A) (A) (A) (A) (A) (A)
                 (A) (A) (A) (A) (A) (A) (A) (A) (A) (A) (A) (A)
                 (A) (A) (A) (A) (A) (A) (A) (A) (A) (A) (A) (A)
                 (A) (A) (A) (A) (A) (A) (A) (A) (A) (A) (A) (A)
                 (A) (A) (A) (A) (A) (A) (A) (A) (A) (A) (A) (A)
                 (A) (A) (A) (A) (A) (A) (A) (A) (A) (A) (A) (A)
                 (A) (A) (A) (A) (A) (A) (A) (A) (A) (A) (A) (A)
                 (A) (A) (A) (A) (A) (A) (A) (A) (A) (A) (A) (A)
                 (A) (A) (A) (A) (A) (A) (A) (A) (A) (A) (A) (A)
                 (A) (A) (A) (A) (A) (A) (A) (A) (A) (A) (A) (A)
                 (A) (A) (A) (A) (A) (A) (A) (A) (A) (A) (A) (A)
                 (A) (A) (A) (A) (A) (A) (A) (A) (A) (A) (A) (A)
 The electronic state of the initial guess is 3-A.
 Initial guess <Sx>= 0.0000 <Sy>= 0.0000 <Sz>= 1.0000 <S**2>= 2.0000 S= 1.0000
 Requested convergence on RMS density matrix=1.00D-08 within 128 cycles.
 Requested convergence on MAX density matrix=1.00D-06.
 Requested convergence on             energy=1.00D-06.
 No special actions if energy rises.
 Restarting incremental Fock formation.
 SCF Done:  E(UM062X) =  -534.210031103     A.U. after   21 cycles
             Convg  =    0.6842D-08             -V/T =  2.0032
 <Sx>= 0.0000 <Sy>= 0.0000 <Sz>= 1.0000 <S**2>= 2.0164 S= 1.0054
 <L.S>= 0.000000000000E+00
 Annihilation of the first spin contaminant:
 S**2 before annihilation     2.0164,   after     2.0001
 Range of M.O.s used for correlation:     1   396
 NBasis=   396 NAE=    38 NBE=    36 NFC=     0 NFV=     0
 NROrb=    396 NOA=    38 NOB=    36 NVA=   358 NVB=   360

 **** Warning!!: The largest alpha MO coefficient is  0.55711511D+02


 **** Warning!!: The largest beta MO coefficient is  0.58355680D+02

 Symmetrizing basis deriv contribution to polar:
 IMax=3 JMax=2 DiffMx= 0.00D+00
 G2DrvN: will do    20 centers at a time, making    1 passes doing MaxLOS=3.
 Calling FoFCou, ICntrl=  3107 FMM=F I1Cent=   0 AccDes= 0.00D+00.
 FoFDir/FoFCou used for L=0 through L=3.
 End of G2Drv Frequency-dependent properties file   721 does not exist.
 End of G2Drv Frequency-dependent properties file   722 does not exist.
          IDoAtm=1111111111111111111
          Differentiating once with respect to nuclear coordinates.
          There are    60 degrees of freedom in the 1st order CPHF.  IDoFFX=5.
     54 vectors produced by pass  0 Test12= 4.43D-10 1.67D-07 XBig12= 2.04D-01 2.14D-01.
 AX will form    54 AO Fock derivatives at one time.
     54 vectors produced by pass  1 Test12= 4.43D-10 1.67D-07 XBig12= 2.75D-02 3.10D-02.
     54 vectors produced by pass  2 Test12= 4.43D-10 1.67D-07 XBig12= 1.18D-03 8.40D-03.
     54 vectors produced by pass  3 Test12= 4.43D-10 1.67D-07 XBig12= 1.34D-05 3.89D-04.
     54 vectors produced by pass  4 Test12= 4.43D-10 1.67D-07 XBig12= 2.01D-07 6.34D-05.
     43 vectors produced by pass  5 Test12= 4.43D-10 1.67D-07 XBig12= 2.88D-09 3.88D-06.
      6 vectors produced by pass  6 Test12= 4.43D-10 1.67D-07 XBig12= 3.02D-11 4.84D-07.
 Inverted reduced A of dimension   319 with in-core refinement.
 End of Minotr Frequency-dependent properties file   721 does not exist.
 End of Minotr Frequency-dependent properties file   722 does not exist.

 **********************************************************************

            Population analysis using the SCF density.

 **********************************************************************

 Orbital symmetries:
 Alpha Orbitals:
       Occupied  (A) (A) (A) (A) (A) (A) (A) (A) (A) (A) (A) (A)
                 (A) (A) (A) (A) (A) (A) (A) (A) (A) (A) (A) (A)
                 (A) (A) (A) (A) (A) (A) (A) (A) (A) (A) (A) (A)
                 (A) (A)
       Virtual   (A) (A) (A) (A) (A) (A) (A) (A) (A) (A) (A) (A)
                 (A) (A) (A) (A) (A) (A) (A) (A) (A) (A) (A) (A)
                 (A) (A) (A) (A) (A) (A) (A) (A) (A) (A) (A) (A)
                 (A) (A) (A) (A) (A) (A) (A) (A) (A) (A) (A) (A)
                 (A) (A) (A) (A) (A) (A) (A) (A) (A) (A) (A) (A)
                 (A) (A) (A) (A) (A) (A) (A) (A) (A) (A) (A) (A)
                 (A) (A) (A) (A) (A) (A) (A) (A) (A) (A) (A) (A)
                 (A) (A) (A) (A) (A) (A) (A) (A) (A) (A) (A) (A)
                 (A) (A) (A) (A) (A) (A) (A) (A) (A) (A) (A) (A)
                 (A) (A) (A) (A) (A) (A) (A) (A) (A) (A) (A) (A)
                 (A) (A) (A) (A) (A) (A) (A) (A) (A) (A) (A) (A)
                 (A) (A) (A) (A) (A) (A) (A) (A) (A) (A) (A) (A)
                 (A) (A) (A) (A) (A) (A) (A) (A) (A) (A) (A) (A)
                 (A) (A) (A) (A) (A) (A) (A) (A) (A) (A) (A) (A)
                 (A) (A) (A) (A) (A) (A) (A) (A) (A) (A) (A) (A)
                 (A) (A) (A) (A) (A) (A) (A) (A) (A) (A) (A) (A)
                 (A) (A) (A) (A) (A) (A) (A) (A) (A) (A) (A) (A)
                 (A) (A) (A) (A) (A) (A) (A) (A) (A) (A) (A) (A)
                 (A) (A) (A) (A) (A) (A) (A) (A) (A) (A) (A) (A)
                 (A) (A) (A) (A) (A) (A) (A) (A) (A) (A) (A) (A)
                 (A) (A) (A) (A) (A) (A) (A) (A) (A) (A) (A) (A)
                 (A) (A) (A) (A) (A) (A) (A) (A) (A) (A) (A) (A)
                 (A) (A) (A) (A) (A) (A) (A) (A) (A) (A) (A) (A)
                 (A) (A) (A) (A) (A) (A) (A) (A) (A) (A) (A) (A)
                 (A) (A) (A) (A) (A) (A) (A) (A) (A) (A) (A) (A)
                 (A) (A) (A) (A) (A) (A) (A) (A) (A) (A) (A) (A)
                 (A) (A) (A) (A) (A) (A) (A) (A) (A) (A) (A) (A)
                 (A) (A) (A) (A) (A) (A) (A) (A) (A) (A) (A) (A)
                 (A) (A) (A) (A) (A) (A) (A) (A) (A) (A) (A) (A)
                 (A) (A) (A) (A) (A) (A) (A) (A) (A) (A)
 Beta  Orbitals:
       Occupied  (A) (A) (A) (A) (A) (A) (A) (A) (A) (A) (A) (A)
                 (A) (A) (A) (A) (A) (A) (A) (A) (A) (A) (A) (A)
                 (A) (A) (A) (A) (A) (A) (A) (A) (A) (A) (A) (A)
       Virtual   (A) (A) (A) (A) (A) (A) (A) (A) (A) (A) (A) (A)
                 (A) (A) (A) (A) (A) (A) (A) (A) (A) (A) (A) (A)
                 (A) (A) (A) (A) (A) (A) (A) (A) (A) (A) (A) (A)
                 (A) (A) (A) (A) (A) (A) (A) (A) (A) (A) (A) (A)
                 (A) (A) (A) (A) (A) (A) (A) (A) (A) (A) (A) (A)
                 (A) (A) (A) (A) (A) (A) (A) (A) (A) (A) (A) (A)
                 (A) (A) (A) (A) (A) (A) (A) (A) (A) (A) (A) (A)
                 (A) (A) (A) (A) (A) (A) (A) (A) (A) (A) (A) (A)
                 (A) (A) (A) (A) (A) (A) (A) (A) (A) (A) (A) (A)
                 (A) (A) (A) (A) (A) (A) (A) (A) (A) (A) (A) (A)
                 (A) (A) (A) (A) (A) (A) (A) (A) (A) (A) (A) (A)
                 (A) (A) (A) (A) (A) (A) (A) (A) (A) (A) (A) (A)
                 (A) (A) (A) (A) (A) (A) (A) (A) (A) (A) (A) (A)
                 (A) (A) (A) (A) (A) (A) (A) (A) (A) (A) (A) (A)
                 (A) (A) (A) (A) (A) (A) (A) (A) (A) (A) (A) (A)
                 (A) (A) (A) (A) (A) (A) (A) (A) (A) (A) (A) (A)
                 (A) (A) (A) (A) (A) (A) (A) (A) (A) (A) (A) (A)
                 (A) (A) (A) (A) (A) (A) (A) (A) (A) (A) (A) (A)
                 (A) (A) (A) (A) (A) (A) (A) (A) (A) (A) (A) (A)
                 (A) (A) (A) (A) (A) (A) (A) (A) (A) (A) (A) (A)
                 (A) (A) (A) (A) (A) (A) (A) (A) (A) (A) (A) (A)
                 (A) (A) (A) (A) (A) (A) (A) (A) (A) (A) (A) (A)
                 (A) (A) (A) (A) (A) (A) (A) (A) (A) (A) (A) (A)
                 (A) (A) (A) (A) (A) (A) (A) (A) (A) (A) (A) (A)
                 (A) (A) (A) (A) (A) (A) (A) (A) (A) (A) (A) (A)
                 (A) (A) (A) (A) (A) (A) (A) (A) (A) (A) (A) (A)
                 (A) (A) (A) (A) (A) (A) (A) (A) (A) (A) (A) (A)
                 (A) (A) (A) (A) (A) (A) (A) (A) (A) (A) (A) (A)
                 (A) (A) (A) (A) (A) (A) (A) (A) (A) (A) (A) (A)
                 (A) (A) (A) (A) (A) (A) (A) (A) (A) (A) (A) (A)
 The electronic state is 3-A.
 Alpha  occ. eigenvalues --  -19.75975 -19.71415 -19.71072 -19.70583 -19.62267
 Alpha  occ. eigenvalues --  -10.61905 -10.58309 -10.57990 -10.54920  -1.35523
 Alpha  occ. eigenvalues --   -1.29931  -1.14793  -1.01764  -1.00841  -0.91698
 Alpha  occ. eigenvalues --   -0.82196  -0.75418  -0.69406  -0.65197  -0.63290
 Alpha  occ. eigenvalues --   -0.61904  -0.60527  -0.59964  -0.58760  -0.54980
 Alpha  occ. eigenvalues --   -0.54027  -0.51965  -0.51023  -0.47822  -0.45137
 Alpha  occ. eigenvalues --   -0.44683  -0.42678  -0.40199  -0.39780  -0.38315
 Alpha  occ. eigenvalues --   -0.37421  -0.35167  -0.31362
 Alpha virt. eigenvalues --    0.00619   0.01678   0.02043   0.03095   0.04684
 Alpha virt. eigenvalues --    0.05065   0.05459   0.06553   0.07871   0.09489
 Alpha virt. eigenvalues --    0.09742   0.10207   0.10741   0.11532   0.12535
 Alpha virt. eigenvalues --    0.13800   0.14037   0.15435   0.16242   0.17072
 Alpha virt. eigenvalues --    0.18104   0.19035   0.20049   0.20258   0.21430
 Alpha virt. eigenvalues --    0.22249   0.22438   0.22948   0.23444   0.24337
 Alpha virt. eigenvalues --    0.24873   0.25087   0.25656   0.26020   0.26690
 Alpha virt. eigenvalues --    0.27191   0.27724   0.28873   0.29273   0.29848
 Alpha virt. eigenvalues --    0.30205   0.31405   0.32367   0.33813   0.34511
 Alpha virt. eigenvalues --    0.34723   0.36321   0.36869   0.37234   0.37803
 Alpha virt. eigenvalues --    0.39311   0.40203   0.41189   0.44373   0.47332
 Alpha virt. eigenvalues --    0.48506   0.49843   0.50470   0.51805   0.52274
 Alpha virt. eigenvalues --    0.54698   0.56470   0.57328   0.57493   0.59002
 Alpha virt. eigenvalues --    0.60048   0.60309   0.61579   0.63342   0.63623
 Alpha virt. eigenvalues --    0.64775   0.66497   0.67227   0.68983   0.69585
 Alpha virt. eigenvalues --    0.70958   0.73045   0.73850   0.75755   0.77404
 Alpha virt. eigenvalues --    0.79748   0.81339   0.83711   0.85228   0.86587
 Alpha virt. eigenvalues --    0.88130   0.91869   0.93564   0.95241   0.96231
 Alpha virt. eigenvalues --    0.99177   0.99703   1.02158   1.03242   1.03930
 Alpha virt. eigenvalues --    1.05088   1.06494   1.08675   1.09438   1.10868
 Alpha virt. eigenvalues --    1.11478   1.11736   1.14170   1.14396   1.15211
 Alpha virt. eigenvalues --    1.16641   1.17243   1.18530   1.19281   1.20247
 Alpha virt. eigenvalues --    1.21374   1.21750   1.22951   1.23928   1.24717
 Alpha virt. eigenvalues --    1.26577   1.27034   1.27323   1.28327   1.30125
 Alpha virt. eigenvalues --    1.32790   1.35266   1.36860   1.38110   1.39244
 Alpha virt. eigenvalues --    1.40625   1.41490   1.42251   1.43777   1.45225
 Alpha virt. eigenvalues --    1.46311   1.47612   1.48717   1.50010   1.51673
 Alpha virt. eigenvalues --    1.53236   1.54371   1.56516   1.57410   1.58047
 Alpha virt. eigenvalues --    1.59450   1.61093   1.61824   1.63576   1.64006
 Alpha virt. eigenvalues --    1.66309   1.67881   1.70723   1.71774   1.74154
 Alpha virt. eigenvalues --    1.75626   1.77928   1.78973   1.81403   1.88161
 Alpha virt. eigenvalues --    1.90284   1.95791   1.98361   1.99869   2.03609
 Alpha virt. eigenvalues --    2.09735   2.12901   2.15482   2.21808   2.22909
 Alpha virt. eigenvalues --    2.25858   2.28275   2.29659   2.32073   2.33876
 Alpha virt. eigenvalues --    2.34008   2.44597   2.49925   2.53989   2.56435
 Alpha virt. eigenvalues --    2.58923   2.61233   2.65968   2.69209   2.70551
 Alpha virt. eigenvalues --    2.72030   2.73760   2.75473   2.79346   2.80273
 Alpha virt. eigenvalues --    2.81853   2.86111   2.91184   2.93096   2.95427
 Alpha virt. eigenvalues --    2.98252   3.01719   3.03117   3.03735   3.09655
 Alpha virt. eigenvalues --    3.11502   3.13635   3.18269   3.20790   3.22490
 Alpha virt. eigenvalues --    3.24481   3.26544   3.27501   3.30023   3.32482
 Alpha virt. eigenvalues --    3.34292   3.36446   3.41048   3.44508   3.45856
 Alpha virt. eigenvalues --    3.48335   3.51303   3.54384   3.55644   3.57070
 Alpha virt. eigenvalues --    3.59012   3.60802   3.62163   3.64124   3.66588
 Alpha virt. eigenvalues --    3.67988   3.70191   3.71185   3.72675   3.74079
 Alpha virt. eigenvalues --    3.76044   3.76625   3.79326   3.80100   3.83748
 Alpha virt. eigenvalues --    3.88642   3.91067   3.94639   3.95397   3.97806
 Alpha virt. eigenvalues --    3.99295   4.00945   4.02666   4.05734   4.08122
 Alpha virt. eigenvalues --    4.10058   4.11321   4.13073   4.14762   4.18479
 Alpha virt. eigenvalues --    4.20962   4.22347   4.23302   4.29613   4.29898
 Alpha virt. eigenvalues --    4.32814   4.35491   4.37748   4.38541   4.42759
 Alpha virt. eigenvalues --    4.45006   4.46959   4.50234   4.50764   4.53848
 Alpha virt. eigenvalues --    4.55807   4.58985   4.59164   4.61795   4.63318
 Alpha virt. eigenvalues --    4.63912   4.66350   4.68178   4.70591   4.73034
 Alpha virt. eigenvalues --    4.75558   4.78092   4.82870   4.84251   4.89421
 Alpha virt. eigenvalues --    4.94627   5.01476   5.03186   5.04222   5.06681
 Alpha virt. eigenvalues --    5.12205   5.13474   5.15405   5.15711   5.16977
 Alpha virt. eigenvalues --    5.17600   5.19075   5.21327   5.22128   5.23971
 Alpha virt. eigenvalues --    5.24843   5.27131   5.28572   5.31691   5.34057
 Alpha virt. eigenvalues --    5.36187   5.40339   5.41353   5.42682   5.46265
 Alpha virt. eigenvalues --    5.47805   5.51777   5.53398   5.55152   5.58404
 Alpha virt. eigenvalues --    5.60554   5.61158   5.63742   5.71433   5.74243
 Alpha virt. eigenvalues --    5.75755   5.85378   5.95508   6.08704   6.12756
 Alpha virt. eigenvalues --    6.31436   6.33345   6.40935   6.52446   6.53562
 Alpha virt. eigenvalues --    6.76045   6.80163   6.82354   6.84382   6.86460
 Alpha virt. eigenvalues --    6.88818   6.90015   6.95664   6.98526   6.98899
 Alpha virt. eigenvalues --    7.08933   7.09561   7.13239   7.18866   7.20426
 Alpha virt. eigenvalues --    7.24576   7.25430   7.27218   7.28210   7.31450
 Alpha virt. eigenvalues --    7.46350   7.50378   7.52181   7.64337   7.64975
 Alpha virt. eigenvalues --    7.80875   7.90862   7.92415   7.96080  24.22726
 Alpha virt. eigenvalues --   24.34861  24.44326  24.51096  49.97746  49.99138
 Alpha virt. eigenvalues --   50.03838  50.06923  50.14213
  Beta  occ. eigenvalues --  -19.75020 -19.71179 -19.70080 -19.69187 -19.62268
  Beta  occ. eigenvalues --  -10.61953 -10.58303 -10.57529 -10.54934  -1.32046
  Beta  occ. eigenvalues --   -1.28066  -1.14792  -0.98734  -0.97523  -0.90057
  Beta  occ. eigenvalues --   -0.80934  -0.74578  -0.67921  -0.63361  -0.60664
  Beta  occ. eigenvalues --   -0.60198  -0.58714  -0.57382  -0.54534  -0.52910
  Beta  occ. eigenvalues --   -0.52365  -0.50836  -0.48880  -0.45866  -0.44313
  Beta  occ. eigenvalues --   -0.42692  -0.40252  -0.38644  -0.37768  -0.35307
  Beta  occ. eigenvalues --   -0.34621
  Beta virt. eigenvalues --   -0.11062  -0.06499   0.00689   0.01789   0.02008
  Beta virt. eigenvalues --    0.03173   0.04991   0.05093   0.05585   0.06612
  Beta virt. eigenvalues --    0.07940   0.09574   0.10063   0.10268   0.10907
  Beta virt. eigenvalues --    0.11672   0.12632   0.13930   0.14531   0.15650
  Beta virt. eigenvalues --    0.16484   0.17351   0.18365   0.19366   0.20105
  Beta virt. eigenvalues --    0.20441   0.21864   0.22718   0.22878   0.23447
  Beta virt. eigenvalues --    0.23742   0.24451   0.25123   0.25431   0.25881
  Beta virt. eigenvalues --    0.26307   0.26805   0.27537   0.28092   0.29326
  Beta virt. eigenvalues --    0.29691   0.30224   0.30713   0.31666   0.32584
  Beta virt. eigenvalues --    0.33979   0.34772   0.34927   0.36761   0.37067
  Beta virt. eigenvalues --    0.37978   0.38261   0.39758   0.40370   0.41330
  Beta virt. eigenvalues --    0.44559   0.47517   0.48835   0.50007   0.50448
  Beta virt. eigenvalues --    0.52318   0.52544   0.54747   0.56577   0.57435
  Beta virt. eigenvalues --    0.57639   0.59224   0.60416   0.60721   0.61716
  Beta virt. eigenvalues --    0.63842   0.64359   0.65043   0.66760   0.67445
  Beta virt. eigenvalues --    0.69126   0.69647   0.71131   0.73132   0.74146
  Beta virt. eigenvalues --    0.75857   0.77550   0.79941   0.81471   0.83729
  Beta virt. eigenvalues --    0.85363   0.86783   0.88407   0.92051   0.94345
  Beta virt. eigenvalues --    0.95441   0.96551   0.99425   1.00003   1.02601
  Beta virt. eigenvalues --    1.03538   1.04238   1.06088   1.06793   1.09187
  Beta virt. eigenvalues --    1.10020   1.11161   1.12283   1.13458   1.14870
  Beta virt. eigenvalues --    1.14972   1.16100   1.17160   1.17869   1.18780
  Beta virt. eigenvalues --    1.19924   1.20640   1.21639   1.22246   1.23402
  Beta virt. eigenvalues --    1.24337   1.24999   1.26871   1.27519   1.27753
  Beta virt. eigenvalues --    1.28594   1.30523   1.33232   1.35657   1.37117
  Beta virt. eigenvalues --    1.38993   1.39683   1.41127   1.41930   1.42478
  Beta virt. eigenvalues --    1.44265   1.45613   1.46743   1.47811   1.48847
  Beta virt. eigenvalues --    1.50562   1.52027   1.53915   1.54800   1.57170
  Beta virt. eigenvalues --    1.57691   1.58583   1.59915   1.61572   1.62901
  Beta virt. eigenvalues --    1.64079   1.64885   1.66764   1.68700   1.71886
  Beta virt. eigenvalues --    1.72020   1.74653   1.76719   1.78403   1.79590
  Beta virt. eigenvalues --    1.81785   1.88736   1.91933   1.96086   1.98979
  Beta virt. eigenvalues --    2.00815   2.04052   2.10160   2.13398   2.16142
  Beta virt. eigenvalues --    2.22147   2.23668   2.26546   2.29182   2.29913
  Beta virt. eigenvalues --    2.32220   2.34007   2.34348   2.45682   2.49986
  Beta virt. eigenvalues --    2.53739   2.56726   2.59206   2.61757   2.66360
  Beta virt. eigenvalues --    2.69783   2.71137   2.72206   2.74064   2.76199
  Beta virt. eigenvalues --    2.79910   2.80258   2.82829   2.87354   2.91114
  Beta virt. eigenvalues --    2.92209   2.96169   2.98576   3.02733   3.04180
  Beta virt. eigenvalues --    3.04471   3.10412   3.11786   3.13931   3.18592
  Beta virt. eigenvalues --    3.21339   3.22804   3.24800   3.27028   3.27813
  Beta virt. eigenvalues --    3.30880   3.32793   3.34587   3.36994   3.41962
  Beta virt. eigenvalues --    3.45050   3.46164   3.48682   3.52532   3.55483
  Beta virt. eigenvalues --    3.56237   3.57688   3.60467   3.61178   3.63064
  Beta virt. eigenvalues --    3.65562   3.67811   3.68302   3.71020   3.72383
  Beta virt. eigenvalues --    3.74019   3.75664   3.76470   3.77274   3.79540
  Beta virt. eigenvalues --    3.81429   3.83998   3.88812   3.91539   3.95490
  Beta virt. eigenvalues --    3.95970   3.98466   3.99539   4.01253   4.03437
  Beta virt. eigenvalues --    4.05787   4.08308   4.10774   4.12386   4.13537
  Beta virt. eigenvalues --    4.14964   4.18961   4.21557   4.22771   4.23573
  Beta virt. eigenvalues --    4.30422   4.30639   4.33477   4.36305   4.37979
  Beta virt. eigenvalues --    4.38826   4.43620   4.45959   4.47337   4.50665
  Beta virt. eigenvalues --    4.52494   4.55559   4.56580   4.59321   4.59930
  Beta virt. eigenvalues --    4.62483   4.63597   4.64589   4.67102   4.68825
  Beta virt. eigenvalues --    4.71802   4.73683   4.76674   4.79555   4.84156
  Beta virt. eigenvalues --    4.84640   4.89793   4.95561   5.03204   5.05847
  Beta virt. eigenvalues --    5.06829   5.11623   5.13018   5.14437   5.16111
  Beta virt. eigenvalues --    5.17802   5.18476   5.19248   5.20156   5.21983
  Beta virt. eigenvalues --    5.22618   5.24467   5.25127   5.27800   5.29440
  Beta virt. eigenvalues --    5.32581   5.34645   5.36871   5.41430   5.42281
  Beta virt. eigenvalues --    5.42931   5.46575   5.49452   5.52072   5.54079
  Beta virt. eigenvalues --    5.56532   5.58509   5.60942   5.61448   5.64101
  Beta virt. eigenvalues --    5.71400   5.74414   5.76861   5.85472   5.95518
  Beta virt. eigenvalues --    6.09485   6.13143   6.32372   6.33470   6.44069
  Beta virt. eigenvalues --    6.52988   6.53584   6.83384   6.84990   6.86331
  Beta virt. eigenvalues --    6.88756   6.89453   6.91731   6.92003   6.98882
  Beta virt. eigenvalues --    6.99795   7.01945   7.09758   7.11588   7.17036
  Beta virt. eigenvalues --    7.19007   7.20503   7.25034   7.25970   7.29630
  Beta virt. eigenvalues --    7.29973   7.35451   7.46386   7.51943   7.52672
  Beta virt. eigenvalues --    7.64387   7.65009   7.83483   7.91424   7.92542
  Beta virt. eigenvalues --    7.97185  24.23237  24.34846  24.44544  24.51366
  Beta virt. eigenvalues --   49.97471  49.98568  50.03340  50.06282  50.14211
          Condensed to atoms (all electrons):
              1          2          3          4          5          6
     1  C    7.069685  -0.615083  -0.261263  -0.203329  -0.028076  -0.000150
     2  C   -0.615083   6.490712  -0.013834  -0.298320  -0.011838  -0.032171
     3  C   -0.261263  -0.013834   5.721671  -0.004652   0.158231   0.002426
     4  C   -0.203329  -0.298320  -0.004652   5.727049  -0.013042   0.175063
     5  O   -0.028076  -0.011838   0.158231  -0.013042   7.719981   0.000187
     6  O   -0.000150  -0.032171   0.002426   0.175063   0.000187   8.093996
     7  H    0.218341   0.020415  -0.042860   0.008664   0.005161  -0.000532
     8  H    0.351416  -0.007401  -0.011785   0.021546  -0.004532  -0.000354
     9  H   -0.040961   0.445555   0.008230  -0.036561  -0.001254  -0.006128
    10  H   -0.056959   0.426015  -0.012611   0.008596   0.007615  -0.008311
    11  H   -0.022223   0.001180   0.426775   0.001529  -0.040404   0.000022
    12  H   -0.037513   0.012012   0.407604  -0.001113  -0.018750   0.000232
    13  H   -0.029461   0.011825  -0.003424   0.433026   0.000158  -0.048282
    14  H    0.021916  -0.008857   0.002164   0.369418  -0.003818  -0.026155
    15  O   -0.015287  -0.002108  -0.058820   0.033544   0.204345  -0.002068
    16  H    0.016851   0.025015  -0.005119  -0.047315   0.000045   0.225823
    17  O    0.055658  -0.043876   0.005238   0.001250   0.000000   0.000567
    18  O    0.064580  -0.013197  -0.044804   0.002415  -0.000312  -0.000243
    19  H    0.000820   0.016266   0.005552  -0.016075  -0.000013   0.000030
              7          8          9         10         11         12
     1  C    0.218341   0.351416  -0.040961  -0.056959  -0.022223  -0.037513
     2  C    0.020415  -0.007401   0.445555   0.426015   0.001180   0.012012
     3  C   -0.042860  -0.011785   0.008230  -0.012611   0.426775   0.407604
     4  C    0.008664   0.021546  -0.036561   0.008596   0.001529  -0.001113
     5  O    0.005161  -0.004532  -0.001254   0.007615  -0.040404  -0.018750
     6  O   -0.000532  -0.000354  -0.006128  -0.008311   0.000022   0.000232
     7  H    0.453317  -0.010584  -0.009542   0.004956  -0.001831  -0.001989
     8  H   -0.010584   0.467363  -0.004653  -0.002009  -0.005638   0.003803
     9  H   -0.009542  -0.004653   0.445112  -0.024468  -0.000005  -0.000178
    10  H    0.004956  -0.002009  -0.024468   0.470747  -0.000225  -0.000089
    11  H   -0.001831  -0.005638  -0.000005  -0.000225   0.472492  -0.015934
    12  H   -0.001989   0.003803  -0.000178  -0.000089  -0.015934   0.453501
    13  H    0.005842   0.000200  -0.008796   0.003614  -0.000148  -0.000314
    14  H   -0.001667  -0.000761   0.004806  -0.010225   0.000796  -0.004247
    15  O    0.000530   0.000232   0.001518  -0.009703   0.005854  -0.001627
    16  H   -0.000175  -0.000079  -0.001393   0.000602  -0.000001   0.000020
    17  O   -0.053100  -0.001354   0.005566   0.000438  -0.000051  -0.000236
    18  O   -0.021182   0.000981   0.003012  -0.001321   0.001808  -0.000809
    19  H    0.001967   0.000059  -0.001695  -0.000119  -0.000037  -0.000024
             13         14         15         16         17         18
     1  C   -0.029461   0.021916  -0.015287   0.016851   0.055658   0.064580
     2  C    0.011825  -0.008857  -0.002108   0.025015  -0.043876  -0.013197
     3  C   -0.003424   0.002164  -0.058820  -0.005119   0.005238  -0.044804
     4  C    0.433026   0.369418   0.033544  -0.047315   0.001250   0.002415
     5  O    0.000158  -0.003818   0.204345   0.000045   0.000000  -0.000312
     6  O   -0.048282  -0.026155  -0.002068   0.225823   0.000567  -0.000243
     7  H    0.005842  -0.001667   0.000530  -0.000175  -0.053100  -0.021182
     8  H    0.000200  -0.000761   0.000232  -0.000079  -0.001354   0.000981
     9  H   -0.008796   0.004806   0.001518  -0.001393   0.005566   0.003012
    10  H    0.003614  -0.010225  -0.009703   0.000602   0.000438  -0.001321
    11  H   -0.000148   0.000796   0.005854  -0.000001  -0.000051   0.001808
    12  H   -0.000314  -0.004247  -0.001627   0.000020  -0.000236  -0.000809
    13  H    0.483299  -0.037683  -0.000050   0.008120  -0.012606   0.000829
    14  H   -0.037683   0.540378   0.000400  -0.009633   0.001647  -0.001157
    15  O   -0.000050   0.000400   8.004680  -0.000363   0.000086  -0.000670
    16  H    0.008120  -0.009633  -0.000363   0.537586   0.000098   0.000088
    17  O   -0.012606   0.001647   0.000086   0.000098   7.861685   0.121350
    18  O    0.000829  -0.001157  -0.000670   0.000088   0.121350   8.222252
    19  H    0.000587  -0.000056   0.000002   0.000011   0.212866  -0.035898
             19
     1  C    0.000820
     2  C    0.016266
     3  C    0.005552
     4  C   -0.016075
     5  O   -0.000013
     6  O    0.000030
     7  H    0.001967
     8  H    0.000059
     9  H   -0.001695
    10  H   -0.000119
    11  H   -0.000037
    12  H   -0.000024
    13  H    0.000587
    14  H   -0.000056
    15  O    0.000002
    16  H    0.000011
    17  O    0.212866
    18  O   -0.035898
    19  H    0.563616
 Mulliken atomic charges:
              1
     1  C   -0.488962
     2  C   -0.402309
     3  C   -0.278719
     4  C   -0.161696
     5  O    0.026318
     6  O   -0.373953
     7  H    0.424271
     8  H    0.203549
     9  H    0.221835
    10  H    0.203458
    11  H    0.176041
    12  H    0.205649
    13  H    0.193266
    14  H    0.162733
    15  O   -0.160496
    16  H    0.249819
    17  O   -0.155225
    18  O   -0.297723
    19  H    0.252143
 Sum of Mulliken atomic charges =   0.00000
 Mulliken charges with hydrogens summed into heavy atoms:
              1
     1  C   -0.285413
     2  C    0.022985
     3  C    0.102971
     4  C    0.194303
     5  O    0.026318
     6  O   -0.124134
    15  O   -0.160496
    17  O    0.096918
    18  O    0.126548
 Sum of Mulliken charges with hydrogens summed into heavy atoms =   0.00000
          Atomic-Atomic Spin Densities.
              1          2          3          4          5          6
     1  C    0.536118   0.071898  -0.005992   0.000107  -0.027409   0.000673
     2  C    0.071898  -0.038839  -0.067777  -0.003933  -0.009721  -0.000520
     3  C   -0.005992  -0.067777   0.001951   0.006315   0.017346   0.000587
     4  C    0.000107  -0.003933   0.006315  -0.002105   0.000735  -0.000537
     5  O   -0.027409  -0.009721   0.017346   0.000735   0.521262  -0.000034
     6  O    0.000673  -0.000520   0.000587  -0.000537  -0.000034  -0.000891
     7  H    0.098017  -0.028670   0.013120   0.005030   0.000135   0.000017
     8  H   -0.009408   0.005461   0.000888  -0.000188  -0.000945   0.000003
     9  H   -0.016662   0.015390  -0.002230   0.002744  -0.000541  -0.000149
    10  H   -0.005200   0.007878   0.004009  -0.005474   0.004632  -0.000175
    11  H   -0.007779   0.000561   0.004624   0.000307  -0.002583   0.000003
    12  H   -0.019688   0.003968   0.016447  -0.000237  -0.003917   0.000074
    13  H    0.001515  -0.000482   0.000045  -0.000979  -0.000067   0.000044
    14  H   -0.002522   0.001849  -0.000892   0.001945  -0.000469   0.000349
    15  O    0.006095   0.003904   0.000165   0.003833  -0.176627   0.000242
    16  H   -0.000742  -0.000156   0.000206   0.000906   0.000031   0.000434
    17  O    0.049826  -0.017811  -0.001062  -0.003369   0.000428   0.000072
    18  O   -0.142046   0.034829  -0.003569   0.004513  -0.001586  -0.000047
    19  H   -0.001130  -0.000923   0.000085   0.000844  -0.000005  -0.000007
              7          8          9         10         11         12
     1  C    0.098017  -0.009408  -0.016662  -0.005200  -0.007779  -0.019688
     2  C   -0.028670   0.005461   0.015390   0.007878   0.000561   0.003968
     3  C    0.013120   0.000888  -0.002230   0.004009   0.004624   0.016447
     4  C    0.005030  -0.000188   0.002744  -0.005474   0.000307  -0.000237
     5  O    0.000135  -0.000945  -0.000541   0.004632  -0.002583  -0.003917
     6  O    0.000017   0.000003  -0.000149  -0.000175   0.000003   0.000074
     7  H   -0.079230  -0.000964  -0.001812   0.000900  -0.001967  -0.001669
     8  H   -0.000964  -0.025747   0.001082  -0.001509   0.001053   0.000231
     9  H   -0.001812   0.001082   0.011916  -0.004724   0.000053   0.000003
    10  H    0.000900  -0.001509  -0.004724   0.032310  -0.000132  -0.000179
    11  H   -0.001967   0.001053   0.000053  -0.000132   0.005046   0.001538
    12  H   -0.001669   0.000231   0.000003  -0.000179   0.001538   0.008049
    13  H   -0.001549   0.000035  -0.000068  -0.000187   0.000015   0.000250
    14  H   -0.000417   0.000078   0.000143  -0.000465   0.000024  -0.000171
    15  O   -0.000531   0.000533   0.000685  -0.005122   0.000755   0.002447
    16  H    0.000006   0.000002  -0.000137   0.000136   0.000000  -0.000001
    17  O    0.035408  -0.002136  -0.005762   0.001382  -0.000431  -0.000480
    18  O   -0.048731   0.005769   0.005472  -0.002064   0.002575   0.002274
    19  H   -0.000218   0.000032   0.000278  -0.000018   0.000005   0.000005
             13         14         15         16         17         18
     1  C    0.001515  -0.002522   0.006095  -0.000742   0.049826  -0.142046
     2  C   -0.000482   0.001849   0.003904  -0.000156  -0.017811   0.034829
     3  C    0.000045  -0.000892   0.000165   0.000206  -0.001062  -0.003569
     4  C   -0.000979   0.001945   0.003833   0.000906  -0.003369   0.004513
     5  O   -0.000067  -0.000469  -0.176627   0.000031   0.000428  -0.001586
     6  O    0.000044   0.000349   0.000242   0.000434   0.000072  -0.000047
     7  H   -0.001549  -0.000417  -0.000531   0.000006   0.035408  -0.048731
     8  H    0.000035   0.000078   0.000533   0.000002  -0.002136   0.005769
     9  H   -0.000068   0.000143   0.000685  -0.000137  -0.005762   0.005472
    10  H   -0.000187  -0.000465  -0.005122   0.000136   0.001382  -0.002064
    11  H    0.000015   0.000024   0.000755   0.000000  -0.000431   0.002575
    12  H    0.000250  -0.000171   0.002447  -0.000001  -0.000480   0.002274
    13  H    0.000414   0.000045  -0.000010   0.000075  -0.000267   0.001099
    14  H    0.000045  -0.001706   0.000520  -0.000083  -0.000250   0.000543
    15  O   -0.000010   0.000520   0.862269  -0.000150  -0.000277   0.000981
    16  H    0.000075  -0.000083  -0.000150  -0.000626  -0.000003  -0.000009
    17  O   -0.000267  -0.000250  -0.000277  -0.000003   0.132045  -0.097426
    18  O    0.001099   0.000543   0.000981  -0.000009  -0.097426   0.626227
    19  H    0.000006   0.000003   0.000002  -0.000001  -0.000874   0.003366
             19
     1  C   -0.001130
     2  C   -0.000923
     3  C    0.000085
     4  C    0.000844
     5  O   -0.000005
     6  O   -0.000007
     7  H   -0.000218
     8  H    0.000032
     9  H    0.000278
    10  H   -0.000018
    11  H    0.000005
    12  H    0.000005
    13  H    0.000006
    14  H    0.000003
    15  O    0.000002
    16  H   -0.000001
    17  O   -0.000874
    18  O    0.003366
    19  H   -0.004246
 Mulliken atomic spin densities:
              1
     1  C    0.525671
     2  C   -0.023095
     3  C   -0.015732
     4  C    0.010457
     5  O    0.320664
     6  O    0.000140
     7  H   -0.013125
     8  H   -0.025730
     9  H    0.005682
    10  H    0.025999
    11  H    0.003667
    12  H    0.008946
    13  H   -0.000067
    14  H   -0.001474
    15  O    0.699714
    16  H   -0.000110
    17  O    0.089015
    18  O    0.392173
    19  H   -0.002795
 Sum of Mulliken atomic spin densities =   2.00000
 APT atomic charges:
              1
     1  C   -0.756686
     2  C   -0.981361
     3  C   -0.707815
     4  C   -0.248327
     5  O   -0.121442
     6  O   -0.884984
     7  H    0.438961
     8  H    0.514450
     9  H    0.467888
    10  H    0.437317
    11  H    0.552987
    12  H    0.286550
    13  H    0.340129
    14  H    0.309436
    15  O   -0.121729
    16  H    0.617954
    17  O   -0.578257
    18  O   -0.207569
    19  H    0.642498
 Sum of APT charges=   0.00000
 APT Atomic charges with hydrogens summed into heavy atoms:
              1
     1  C   -0.242236
     2  C   -0.076157
     3  C    0.131723
     4  C    0.401238
     5  O   -0.121442
     6  O   -0.267031
     7  H    0.000000
     8  H    0.000000
     9  H    0.000000
    10  H    0.000000
    11  H    0.000000
    12  H    0.000000
    13  H    0.000000
    14  H    0.000000
    15  O   -0.121729
    16  H    0.000000
    17  O    0.064242
    18  O    0.231392
    19  H    0.000000
 Sum of APT charges=   0.00000
 Electronic spatial extent (au):  <R**2>=           1600.0992
 Charge=              0.0000 electrons
 Dipole moment (field-independent basis, Debye):
    X=             -0.4893    Y=             -1.9156    Z=              1.8039  Tot=              2.6764
 Quadrupole moment (field-independent basis, Debye-Ang):
   XX=            -61.9773   YY=            -55.1829   ZZ=            -51.9387
   XY=              4.4990   XZ=             -6.7642   YZ=             -0.1911
 Traceless Quadrupole moment (field-independent basis, Debye-Ang):
   XX=             -5.6110   YY=              1.1834   ZZ=              4.4276
   XY=              4.4990   XZ=             -6.7642   YZ=             -0.1911
 Octapole moment (field-independent basis, Debye-Ang**2):
  XXX=            -49.8594  YYY=             -4.2803  ZZZ=              0.1325  XYY=             20.2611
  XXY=            -11.4770  XXZ=             15.5068  XZZ=             -2.5754  YZZ=             -3.0269
  YYZ=              7.7430  XYZ=              8.1083
 Hexadecapole moment (field-independent basis, Debye-Ang**3):
 XXXX=          -1057.7744 YYYY=           -663.1106 ZZZZ=           -147.9357 XXXY=             46.0947
 XXXZ=            -67.6753 YYYX=             51.9430 YYYZ=             20.9525 ZZZX=             -7.3144
 ZZZY=             -2.8731 XXYY=           -300.3009 XXZZ=           -182.0195 YYZZ=           -140.2158
 XXYZ=            -18.1422 YYXZ=            -11.8601 ZZXY=              6.6394
 N-N= 4.896724561200D+02 E-N=-3.330931314640D+03  KE= 7.957588676910D+02
  Exact polarizability:   0.000   0.000   0.000   0.000   0.000   0.000
 Approx polarizability: 114.502   7.843  95.613   6.199   4.911  80.207
                          Isotropic Fermi Contact Couplings
        Atom                 a.u.       MegaHertz       Gauss      10(-4) cm-1
     1  C(13)              0.15187      85.36771      30.46132      28.47560
     2  C(13)             -0.00822      -4.61795      -1.64780      -1.54038
     3  C(13)             -0.01983     -11.14559      -3.97702      -3.71777
     4  C(13)              0.00330       1.85688       0.66258       0.61939
     5  O(17)              0.09627     -29.17824     -10.41152      -9.73281
     6  O(17)             -0.00084       0.25375       0.09054       0.08464
     7  H(1)              -0.03195     -71.41485     -25.48259     -23.82143
     8  H(1)              -0.00580     -12.96197      -4.62515      -4.32365
     9  H(1)               0.00579      12.93502       4.61554       4.31466
    10  H(1)               0.01950      43.58906      15.55366      14.53975
    11  H(1)               0.00150       3.34151       1.19233       1.11461
    12  H(1)               0.00461      10.30731       3.67790       3.43815
    13  H(1)              -0.00013      -0.28571      -0.10195      -0.09530
    14  H(1)              -0.00004      -0.07952      -0.02837      -0.02652
    15  O(17)              0.10566     -32.02664     -11.42790     -10.68294
    16  H(1)              -0.00002      -0.05215      -0.01861      -0.01739
    17  O(17)              0.01504      -4.55838      -1.62654      -1.52051
    18  O(17)              0.08942     -27.10280      -9.67095      -9.04052
    19  H(1)              -0.00175      -3.90181      -1.39226      -1.30150
 --------------------------------------------------------
       Center         ----  Spin Dipole Couplings  ----
                      3XX-RR        3YY-RR        3ZZ-RR
 --------------------------------------------------------
     1   Atom        0.388904     -0.215536     -0.173368
     2   Atom        0.017629      0.001914     -0.019543
     3   Atom        0.009395     -0.006859     -0.002536
     4   Atom       -0.002802      0.004896     -0.002093
     5   Atom       -0.372253     -0.974137      1.346390
     6   Atom        0.003138      0.000518     -0.003655
     7   Atom        0.158405     -0.090103     -0.068303
     8   Atom       -0.009308     -0.015472      0.024781
     9   Atom        0.000787      0.001675     -0.002462
    10   Atom        0.005649      0.001242     -0.006891
    11   Atom        0.004998      0.003179     -0.008177
    12   Atom        0.008654     -0.013651      0.004998
    13   Atom       -0.000029      0.004153     -0.004124
    14   Atom        0.002890      0.000362     -0.003252
    15   Atom       -0.992398     -1.489476      2.481874
    16   Atom       -0.000940      0.004291     -0.003351
    17   Atom        0.267373     -0.227621     -0.039752
    18   Atom        0.694634     -0.505867     -0.188767
    19   Atom        0.006312     -0.016105      0.009793
 --------------------------------------------------------
                        XY            XZ            YZ
 --------------------------------------------------------
     1   Atom        0.270179      0.300322      0.127672
     2   Atom        0.015122      0.005396      0.008858
     3   Atom        0.004486     -0.005001      0.008889
     4   Atom       -0.002551      0.001104     -0.009169
     5   Atom       -0.098721     -0.769568      0.275155
     6   Atom        0.000888     -0.002869     -0.000099
     7   Atom        0.088368      0.119091      0.039952
     8   Atom        0.011423      0.008286     -0.035801
     9   Atom       -0.005531     -0.005278      0.008872
    10   Atom       -0.001776     -0.003827      0.009403
    11   Atom        0.005137     -0.000854      0.011056
    12   Atom        0.007139      0.005537      0.004431
    13   Atom       -0.001240      0.002951     -0.006020
    14   Atom       -0.003543      0.003861     -0.007023
    15   Atom       -0.158313     -1.329415      0.469291
    16   Atom       -0.002673      0.000286     -0.000560
    17   Atom        0.205410      0.318577      0.083012
    18   Atom        0.960179      1.219172      0.668988
    19   Atom        0.002861     -0.016079     -0.004802
 --------------------------------------------------------


 ---------------------------------------------------------------------------------
              Anisotropic Spin Dipole Couplings in Principal Axis System
 ---------------------------------------------------------------------------------

       Atom             a.u.   MegaHertz   Gauss  10(-4) cm-1        Axes

              Baa    -0.3254   -43.668   -15.582   -14.566 -0.1294  0.8703 -0.4753
     1 C(13)  Bbb    -0.2998   -40.235   -14.357   -13.421 -0.4882  0.3613  0.7945
              Bcc     0.6253    83.903    29.939    27.987  0.8631  0.3348  0.3781
 
              Baa    -0.0227    -3.050    -1.088    -1.017  0.0012 -0.3389  0.9408
     2 C(13)  Bbb    -0.0059    -0.788    -0.281    -0.263 -0.5641  0.7766  0.2805
              Bcc     0.0286     3.838     1.369     1.280  0.8257  0.5311  0.1903
 
              Baa    -0.0156    -2.094    -0.747    -0.698 -0.2565  0.7507 -0.6089
     3 C(13)  Bbb     0.0043     0.573     0.205     0.191  0.1518  0.6534  0.7416
              Bcc     0.0113     1.520     0.543     0.507  0.9545  0.0978 -0.2816
 
              Baa    -0.0085    -1.136    -0.405    -0.379  0.1013  0.5760  0.8112
     4 C(13)  Bbb    -0.0033    -0.437    -0.156    -0.146  0.9776  0.0937 -0.1887
              Bcc     0.0117     1.574     0.561     0.525 -0.1847  0.8121 -0.5536
 
              Baa    -1.0065    72.831    25.988    24.294  0.0227  0.9938 -0.1088
     5 O(17)  Bbb    -0.6664    48.218    17.205    16.084  0.9347  0.0175  0.3550
              Bcc     1.6729  -121.049   -43.193   -40.378 -0.3547  0.1097  0.9285
 
              Baa    -0.0047     0.341     0.122     0.114  0.3471 -0.0412  0.9369
     6 O(17)  Bbb     0.0003    -0.024    -0.009    -0.008 -0.1919  0.9748  0.1140
              Bcc     0.0044    -0.317    -0.113    -0.106  0.9180  0.2194 -0.3304
 
              Baa    -0.1209   -64.507   -23.018   -21.517 -0.1339 -0.6193  0.7737
     7 H(1)   Bbb    -0.1172   -62.537   -22.315   -20.860 -0.4541  0.7323  0.5075
              Bcc     0.2381   127.044    45.333    42.377  0.8808  0.2833  0.3793
 
              Baa    -0.0424   -22.614    -8.069    -7.543 -0.3910  0.7913  0.4700
     8 H(1)   Bbb    -0.0034    -1.802    -0.643    -0.601  0.9200  0.3506  0.1751
              Bcc     0.0458    24.416     8.712     8.144  0.0263 -0.5009  0.8651
 
              Baa    -0.0096    -5.107    -1.822    -1.703  0.0963 -0.5869  0.8039
     9 H(1)   Bbb    -0.0038    -2.011    -0.718    -0.671  0.8493  0.4697  0.2412
              Bcc     0.0133     7.118     2.540     2.374 -0.5191  0.6595  0.5436
 
              Baa    -0.0133    -7.116    -2.539    -2.374  0.1201 -0.5277  0.8409
    10 H(1)   Bbb     0.0030     1.616     0.577     0.539  0.7702  0.5840  0.2564
              Bcc     0.0103     5.500     1.963     1.835  0.6264 -0.6169 -0.4766
 
              Baa    -0.0155    -8.276    -2.953    -2.760  0.1687 -0.5358  0.8273
    11 H(1)   Bbb     0.0033     1.758     0.627     0.587  0.8490 -0.3475 -0.3981
              Bcc     0.0122     6.517     2.326     2.174  0.5008  0.7695  0.3962
 
              Baa    -0.0161    -8.597    -3.068    -2.868 -0.2460  0.9596 -0.1369
    12 H(1)   Bbb     0.0010     0.540     0.193     0.180 -0.5688 -0.0286  0.8219
              Bcc     0.0151     8.058     2.875     2.688  0.7848  0.2800  0.5529
 
              Baa    -0.0078    -4.188    -1.494    -1.397 -0.2642  0.4105  0.8727
    13 H(1)   Bbb    -0.0002    -0.132    -0.047    -0.044  0.9167  0.3881  0.0950
              Bcc     0.0081     4.320     1.542     1.441 -0.2997  0.8252 -0.4788
 
              Baa    -0.0088    -4.682    -1.671    -1.562 -0.0891  0.5850  0.8061
    14 H(1)   Bbb    -0.0010    -0.510    -0.182    -0.170  0.7915  0.5329 -0.2992
              Bcc     0.0097     5.192     1.853     1.732 -0.6047  0.6113 -0.5105
 
              Baa    -1.5443   111.743    39.873    37.273  0.0295  0.9939 -0.1061
    15 O(17)  Bbb    -1.4427   104.394    37.250    34.822  0.9473  0.0060  0.3202
              Bcc     2.9870  -216.137   -77.123   -72.096 -0.3189  0.1100  0.9414
 
              Baa    -0.0034    -1.812    -0.647    -0.605 -0.0596  0.0519  0.9969
    16 H(1)   Bbb    -0.0021    -1.101    -0.393    -0.367  0.9201  0.3901  0.0347
              Bcc     0.0055     2.913     1.039     0.972 -0.3871  0.9193 -0.0710
 
              Baa    -0.3103    22.454     8.012     7.490 -0.4517  0.8500  0.2711
    17 O(17)  Bbb    -0.2201    15.924     5.682     5.312 -0.3491 -0.4481  0.8230
              Bcc     0.5304   -38.378   -13.694   -12.802  0.8210  0.2771  0.4991
 
              Baa    -1.0449    75.611    26.980    25.221 -0.6533  0.3019  0.6943
    18 O(17)  Bbb    -1.0344    74.852    26.709    24.968 -0.1285  0.8595 -0.4946
              Bcc     2.0794  -150.463   -53.689   -50.189  0.7461  0.4124  0.5227
 
              Baa    -0.0170    -9.053    -3.230    -3.020  0.0017  0.9841  0.1776
    19 H(1)   Bbb    -0.0080    -4.264    -1.522    -1.422  0.7523 -0.1183  0.6481
              Bcc     0.0250    13.317     4.752     4.442 -0.6589 -0.1325  0.7405
 

 ---------------------------------------------------------------------------------

 Calling FoFJK, ICntrl=    100147 FMM=F ISym2X=0 I1Cent= 0 IOpClX= 1 NMat=1 NMatS=1 NMatT=0.
 ***** Axes restored to original set *****
 -------------------------------------------------------------------
 Center     Atomic                   Forces (Hartrees/Bohr)
 Number     Number              X              Y              Z
 -------------------------------------------------------------------
      1        6          -0.003529354   -0.000826334   -0.001842370
      2        6           0.000237246   -0.000095904   -0.000581291
      3        6           0.000017379   -0.000612190    0.000257865
      4        6           0.000269420   -0.000377048    0.000800077
      5        8           0.000212402   -0.000213187    0.000577620
      6        8           0.000233449    0.000211922   -0.000133552
      7        1           0.004025734    0.002230453    0.001874232
      8        1           0.000243824   -0.000292904    0.000268820
      9        1          -0.000472068   -0.000176924    0.000268204
     10        1          -0.000243334    0.000092609   -0.000080274
     11        1           0.000056942    0.000124408   -0.000226167
     12        1          -0.000273886    0.000113550   -0.000232660
     13        1           0.000202392   -0.000061341   -0.000079188
     14        1           0.000144228    0.000305241   -0.000355554
     15        8          -0.000121685    0.000141817   -0.000363354
     16        1          -0.000248123    0.000023041    0.000003991
     17        8          -0.000398230    0.000112729    0.000630982
     18        8          -0.000592344   -0.000860141   -0.000338389
     19        1           0.000236009    0.000160205   -0.000448993
 -------------------------------------------------------------------
 Cartesian Forces:  Max     0.004025734 RMS     0.000906862

 GradGradGradGradGradGradGradGradGradGradGradGradGradGradGradGradGradGrad
 Berny optimization.
 Internal  Forces:  Max     0.004023576 RMS     0.000502786
 Search for a saddle point.
 Step number   1 out of a maximum of   95
 All quantities printed in internal units (Hartrees-Bohrs-Radians)
 Swaping is turned off.
 Second derivative matrix not updated -- analytic derivatives used.
 ITU=  0
     Eigenvalues ---   -0.07715   0.00006   0.00111   0.00295   0.00326
     Eigenvalues ---    0.00424   0.00722   0.01356   0.02184   0.02386
     Eigenvalues ---    0.02616   0.03265   0.03792   0.04546   0.04671
     Eigenvalues ---    0.04974   0.05901   0.06066   0.06832   0.07073
     Eigenvalues ---    0.09090   0.09812   0.10180   0.10742   0.12926
     Eigenvalues ---    0.14350   0.16349   0.17193   0.17437   0.19851
     Eigenvalues ---    0.20775   0.22882   0.23404   0.24788   0.25126
     Eigenvalues ---    0.28415   0.31098   0.32214   0.32914   0.33416
     Eigenvalues ---    0.34031   0.34363   0.34515   0.34852   0.35924
     Eigenvalues ---    0.37455   0.40594   0.42284   0.51714   0.54924
     Eigenvalues ---    0.55723
 Eigenvectors required to have negative eigenvalues:
                          R16       R3        R17       D8        D12
   1                    0.73527  -0.62871  -0.13828  -0.05640  -0.05563
                          A29       D1        D17       D10       D3
   1                    0.05414   0.05139   0.05066  -0.05030   0.04805
 RFO step:  Lambda0=1.231226188D-04 Lambda=-2.34890408D-04.
 Linear search not attempted -- option 19 set.
 Iteration  1 RMS(Cart)=  0.05651187 RMS(Int)=  0.00292910
 Iteration  2 RMS(Cart)=  0.00260265 RMS(Int)=  0.00001976
 Iteration  3 RMS(Cart)=  0.00000614 RMS(Int)=  0.00001924
 Iteration  4 RMS(Cart)=  0.00000000 RMS(Int)=  0.00001924
 Variable       Old X    -DE/DX   Delta X   Delta X   Delta X     New X
                                 (Linear)    (Quad)   (Total)
    R1        2.84755  -0.00011   0.00000  -0.00291  -0.00291   2.84464
    R2        2.83801   0.00007   0.00000  -0.00231  -0.00231   2.83570
    R3        2.51464  -0.00402   0.00000   0.00958   0.00958   2.52422
    R4        2.05663   0.00040   0.00000   0.00085   0.00085   2.05748
    R5        2.88188  -0.00031   0.00000  -0.00220  -0.00220   2.87968
    R6        2.06243   0.00052   0.00000   0.00241   0.00241   2.06483
    R7        2.07394  -0.00019   0.00000   0.00006   0.00006   2.07400
    R8        2.74909   0.00013   0.00000   0.00192   0.00192   2.75100
    R9        2.05661  -0.00010   0.00000  -0.00034  -0.00034   2.05627
   R10        2.05536   0.00030   0.00000   0.00125   0.00125   2.05661
   R11        2.66990   0.00021   0.00000   0.00056   0.00056   2.67046
   R12        2.05959  -0.00011   0.00000   0.00129   0.00129   2.06088
   R13        2.06513   0.00031   0.00000   0.00100   0.00100   2.06612
   R14        2.44573   0.00013   0.00000  -0.00007  -0.00007   2.44566
   R15        1.81311  -0.00018   0.00000  -0.00059  -0.00059   1.81253
   R16        2.26495   0.00088   0.00000  -0.03527  -0.03527   2.22968
   R17        2.59904   0.00036   0.00000   0.00866   0.00866   2.60770
   R18        1.82565  -0.00053   0.00000  -0.00172  -0.00172   1.82393
    A1        2.08590   0.00046   0.00000   0.00716   0.00708   2.09298
    A2        1.82315  -0.00015   0.00000  -0.00905  -0.00901   1.81414
    A3        1.98853  -0.00008   0.00000   0.00523   0.00515   1.99367
    A4        1.77173  -0.00003   0.00000  -0.00789  -0.00786   1.76387
    A5        1.96389  -0.00026   0.00000   0.00277   0.00267   1.96656
    A6        1.77904   0.00001   0.00000  -0.00424  -0.00422   1.77482
    A7        2.00084   0.00040   0.00000  -0.00035  -0.00036   2.00048
    A8        1.90910  -0.00046   0.00000  -0.00410  -0.00410   1.90500
    A9        1.89751   0.00020   0.00000   0.00375   0.00374   1.90126
   A10        1.88850   0.00022   0.00000  -0.00039  -0.00039   1.88811
   A11        1.90210  -0.00046   0.00000   0.00215   0.00214   1.90424
   A12        1.86078   0.00008   0.00000  -0.00113  -0.00113   1.85966
   A13        1.94811  -0.00012   0.00000  -0.00253  -0.00253   1.94558
   A14        1.94270   0.00017   0.00000   0.00363   0.00363   1.94633
   A15        1.97195  -0.00014   0.00000  -0.00246  -0.00246   1.96949
   A16        1.80752   0.00005   0.00000   0.00089   0.00089   1.80840
   A17        1.86803   0.00014   0.00000   0.00205   0.00205   1.87008
   A18        1.91717  -0.00009   0.00000  -0.00137  -0.00136   1.91581
   A19        1.94205   0.00015   0.00000   0.00155   0.00155   1.94360
   A20        1.91660  -0.00005   0.00000  -0.00044  -0.00044   1.91616
   A21        1.92439   0.00028   0.00000  -0.00042  -0.00042   1.92397
   A22        1.85514  -0.00003   0.00000  -0.00053  -0.00053   1.85461
   A23        1.93088  -0.00027   0.00000  -0.00096  -0.00096   1.92992
   A24        1.89296  -0.00010   0.00000   0.00079   0.00079   1.89375
   A25        1.95129  -0.00063   0.00000  -0.00270  -0.00270   1.94859
   A26        1.89871   0.00027   0.00000   0.00182   0.00182   1.90052
   A27        3.03460   0.00063   0.00000   0.03160   0.03160   3.06620
   A28        1.81322  -0.00011   0.00000  -0.00389  -0.00389   1.80933
   A29        1.82871  -0.00022   0.00000  -0.00522  -0.00522   1.82349
    D1        0.88209  -0.00030   0.00000  -0.07308  -0.07310   0.80899
    D2        3.00643  -0.00009   0.00000  -0.07694  -0.07696   2.92948
    D3       -1.25116  -0.00014   0.00000  -0.07846  -0.07848  -1.32964
    D4       -1.08155  -0.00040   0.00000  -0.06031  -0.06031  -1.14186
    D5        1.04279  -0.00018   0.00000  -0.06417  -0.06416   0.97863
    D6        3.06838  -0.00023   0.00000  -0.06569  -0.06569   3.00269
    D7       -3.00782  -0.00028   0.00000  -0.05246  -0.05244  -3.06026
    D8       -0.88348  -0.00007   0.00000  -0.05632  -0.05630  -0.93978
    D9        1.14211  -0.00011   0.00000  -0.05784  -0.05782   1.08429
   D10        1.24617  -0.00005   0.00000   0.02354   0.02355   1.26972
   D11       -3.02687   0.00004   0.00000   0.02533   0.02534  -3.00153
   D12       -0.86016  -0.00005   0.00000   0.02447   0.02448  -0.83568
   D13       -3.04583  -0.00004   0.00000   0.01008   0.01007  -3.03576
   D14       -1.03569   0.00005   0.00000   0.01187   0.01186  -1.02383
   D15        1.13103  -0.00004   0.00000   0.01101   0.01100   1.14203
   D16       -1.15682  -0.00014   0.00000   0.00225   0.00225  -1.15458
   D17        0.85332  -0.00005   0.00000   0.00404   0.00403   0.85736
   D18        3.02003  -0.00014   0.00000   0.00318   0.00317   3.02321
   D19        0.22715   0.00012   0.00000   0.03659   0.03661   0.26375
   D20       -1.95224  -0.00031   0.00000   0.03605   0.03603  -1.91621
   D21        2.30167  -0.00002   0.00000   0.03714   0.03715   2.33882
   D22        3.07362  -0.00019   0.00000  -0.06622  -0.06622   3.00740
   D23        1.02456  -0.00021   0.00000  -0.06623  -0.06623   0.95833
   D24       -1.06029  -0.00023   0.00000  -0.06667  -0.06667  -1.12696
   D25        0.93807  -0.00003   0.00000  -0.06038  -0.06038   0.87770
   D26       -1.11099  -0.00005   0.00000  -0.06039  -0.06039  -1.17138
   D27        3.08734  -0.00007   0.00000  -0.06083  -0.06083   3.02652
   D28       -1.07880   0.00000   0.00000  -0.05997  -0.05997  -1.13876
   D29       -3.12786  -0.00002   0.00000  -0.05998  -0.05998   3.09535
   D30        1.07047  -0.00004   0.00000  -0.06042  -0.06042   1.01006
   D31       -1.27071  -0.00011   0.00000   0.01883   0.01883  -1.25188
   D32        2.92074  -0.00028   0.00000   0.01527   0.01527   2.93601
   D33        0.89530  -0.00026   0.00000   0.01554   0.01554   0.91084
   D34        1.21530   0.00005   0.00000   0.00688   0.00688   1.22218
   D35       -2.98187   0.00005   0.00000   0.00688   0.00688  -2.97499
   D36       -0.93025  -0.00023   0.00000   0.00701   0.00702  -0.92324
   D37       -0.63594  -0.00017   0.00000   0.03816   0.03816  -0.59778
   D38       -1.67313  -0.00006   0.00000  -0.01999  -0.01999  -1.69312
         Item               Value     Threshold  Converged?
 Maximum Force            0.004024     0.000450     NO 
 RMS     Force            0.000503     0.000300     NO 
 Maximum Displacement     0.214768     0.001800     NO 
 RMS     Displacement     0.057333     0.001200     NO 
 Predicted change in Energy=-6.565888D-05
 GradGradGradGradGradGradGradGradGradGradGradGradGradGradGradGradGradGrad

                          Input orientation:                          
 ---------------------------------------------------------------------
 Center     Atomic      Atomic             Coordinates (Angstroms)
[...]
    15  O   -0.000083   0.000402   8.001439  -0.000429   0.000085  -0.000716
    16  H    0.008073  -0.009763  -0.000429   0.537613   0.000082   0.000070
    17  O   -0.012929   0.001500   0.000085   0.000082   7.866776   0.122773
    18  O    0.001259  -0.000885  -0.000716   0.000070   0.122773   8.219660
    19  H    0.000605  -0.000047   0.000001   0.000011   0.214138  -0.036889
             19
     1  C   -0.001783
     2  C    0.017403
     3  C    0.005997
     4  C   -0.015920
     5  O   -0.000010
     6  O   -0.000006
     7  H    0.002755
     8  H    0.000093
     9  H   -0.001687
    10  H   -0.000127
    11  H   -0.000040
    12  H   -0.000030
    13  H    0.000605
    14  H   -0.000047
    15  O    0.000001
    16  H    0.000011
    17  O    0.214138
    18  O   -0.036889
    19  H    0.563985
 Mulliken atomic charges:
              1
     1  C   -0.489169
     2  C   -0.404408
     3  C   -0.275316
     4  C   -0.167837
     5  O    0.026306
     6  O   -0.373927
     7  H    0.436495
     8  H    0.203043
     9  H    0.222586
    10  H    0.205623
    11  H    0.176837
    12  H    0.207161
    13  H    0.194431
    14  H    0.166595
    15  O   -0.159687
    16  H    0.249295
    17  O   -0.161017
    18  O   -0.308562
    19  H    0.251552
 Sum of Mulliken atomic charges =   0.00000
 Mulliken charges with hydrogens summed into heavy atoms:
              1
     1  C   -0.286125
     2  C    0.023800
     3  C    0.108682
     4  C    0.193189
     5  O    0.026306
     6  O   -0.124632
    15  O   -0.159687
    17  O    0.090535
    18  O    0.127932
 Sum of Mulliken charges with hydrogens summed into heavy atoms =   0.00000
          Atomic-Atomic Spin Densities.
              1          2          3          4          5          6
     1  C    0.577968   0.062117  -0.005581   0.000105  -0.026563   0.000642
     2  C    0.062117  -0.025717  -0.071377  -0.005464  -0.011984  -0.000849
     3  C   -0.005581  -0.071377   0.002617   0.008354   0.016053   0.000680
     4  C    0.000105  -0.005464   0.008354  -0.003534   0.001284  -0.000126
     5  O   -0.026563  -0.011984   0.016053   0.001284   0.526024  -0.000023
     6  O    0.000642  -0.000849   0.000680  -0.000126  -0.000023  -0.001026
     7  H    0.100521  -0.029832   0.013473   0.005599   0.000207   0.000018
     8  H   -0.009708   0.004872   0.001411  -0.000141  -0.001017   0.000007
     9  H   -0.019879   0.019496  -0.002114   0.001870  -0.000566  -0.000196
    10  H   -0.003537   0.004856   0.003562  -0.004074   0.004712  -0.000169
    11  H   -0.008544   0.000791   0.005045   0.000302  -0.002864   0.000003
    12  H   -0.019861   0.003383   0.016702  -0.000099  -0.003945   0.000080
    13  H    0.001840  -0.001150  -0.000222  -0.000399  -0.000082   0.000061
    14  H   -0.002164   0.002051  -0.001000   0.001272  -0.000572   0.000365
    15  O    0.003573   0.010378   0.000818   0.001570  -0.178464   0.000207
    16  H   -0.000677  -0.000514   0.000206   0.001056   0.000024   0.000534
    17  O    0.051356  -0.018486  -0.001214  -0.003448   0.000451   0.000104
    18  O   -0.148121   0.036934  -0.003638   0.004151  -0.001722  -0.000064
    19  H   -0.001340  -0.000855   0.000140   0.000785  -0.000006  -0.000006
              7          8          9         10         11         12
     1  C    0.100521  -0.009708  -0.019879  -0.003537  -0.008544  -0.019861
     2  C   -0.029832   0.004872   0.019496   0.004856   0.000791   0.003383
     3  C    0.013473   0.001411  -0.002114   0.003562   0.005045   0.016702
     4  C    0.005599  -0.000141   0.001870  -0.004074   0.000302  -0.000099
     5  O    0.000207  -0.001017  -0.000566   0.004712  -0.002864  -0.003945
     6  O    0.000018   0.000007  -0.000196  -0.000169   0.000003   0.000080
     7  H   -0.080361  -0.000618  -0.001874   0.000921  -0.002146  -0.001823
     8  H   -0.000618  -0.027631   0.001168  -0.001487   0.001096   0.000240
     9  H   -0.001874   0.001168   0.013275  -0.005240   0.000063   0.000019
    10  H    0.000921  -0.001487  -0.005240   0.034786  -0.000142  -0.000166
    11  H   -0.002146   0.001096   0.000063  -0.000142   0.005445   0.001628
    12  H   -0.001823   0.000240   0.000019  -0.000166   0.001628   0.007977
    13  H   -0.001519   0.000034  -0.000034  -0.000174   0.000017   0.000276
    14  H   -0.000374   0.000075   0.000156  -0.000517   0.000028  -0.000105
    15  O   -0.000537   0.000506   0.000673  -0.005528   0.000811   0.002446
    16  H    0.000003   0.000003  -0.000137   0.000146   0.000000   0.000001
    17  O    0.034406  -0.002084  -0.006575   0.001418  -0.000460  -0.000499
    18  O   -0.045116   0.005727   0.006166  -0.002130   0.002825   0.002424
    19  H   -0.000359   0.000038   0.000354  -0.000023   0.000006   0.000006
             13         14         15         16         17         18
     1  C    0.001840  -0.002164   0.003573  -0.000677   0.051356  -0.148121
     2  C   -0.001150   0.002051   0.010378  -0.000514  -0.018486   0.036934
     3  C   -0.000222  -0.001000   0.000818   0.000206  -0.001214  -0.003638
     4  C   -0.000399   0.001272   0.001570   0.001056  -0.003448   0.004151
     5  O   -0.000082  -0.000572  -0.178464   0.000024   0.000451  -0.001722
     6  O    0.000061   0.000365   0.000207   0.000534   0.000104  -0.000064
     7  H   -0.001519  -0.000374  -0.000537   0.000003   0.034406  -0.045116
     8  H    0.000034   0.000075   0.000506   0.000003  -0.002084   0.005727
     9  H   -0.000034   0.000156   0.000673  -0.000137  -0.006575   0.006166
    10  H   -0.000174  -0.000517  -0.005528   0.000146   0.001418  -0.002130
    11  H    0.000017   0.000028   0.000811   0.000000  -0.000460   0.002825
    12  H    0.000276  -0.000105   0.002446   0.000001  -0.000499   0.002424
    13  H    0.000111   0.000056   0.000005   0.000072  -0.000183   0.000977
    14  H    0.000056  -0.001637   0.000449  -0.000062  -0.000230   0.000485
    15  O    0.000005   0.000449   0.863566  -0.000138  -0.000284   0.001007
    16  H    0.000072  -0.000062  -0.000138  -0.000679  -0.000003  -0.000006
    17  O   -0.000183  -0.000230  -0.000284  -0.000003   0.119513  -0.092710
    18  O    0.000977   0.000485   0.001007  -0.000006  -0.092710   0.598373
    19  H    0.000000   0.000003   0.000003  -0.000001  -0.001212   0.003637
             19
     1  C   -0.001340
     2  C   -0.000855
     3  C    0.000140
     4  C    0.000785
     5  O   -0.000006
     6  O   -0.000006
     7  H   -0.000359
     8  H    0.000038
     9  H    0.000354
    10  H   -0.000023
    11  H    0.000006
    12  H    0.000006
    13  H    0.000000
    14  H    0.000003
    15  O    0.000003
    16  H   -0.000001
    17  O   -0.001212
    18  O    0.003637
    19  H   -0.003570
 Mulliken atomic spin densities:
              1
     1  C    0.552145
     2  C   -0.021350
     3  C   -0.016084
     4  C    0.009064
     5  O    0.320949
     6  O    0.000244
     7  H   -0.009410
     8  H   -0.027508
     9  H    0.006624
    10  H    0.027218
    11  H    0.003903
    12  H    0.008684
    13  H   -0.000315
    14  H   -0.001718
    15  O    0.701061
    16  H   -0.000168
    17  O    0.079862
    18  O    0.369200
    19  H   -0.002399
 Sum of Mulliken atomic spin densities =   2.00000
 Electronic spatial extent (au):  <R**2>=           1595.9013
 Charge=              0.0000 electrons
 Dipole moment (field-independent basis, Debye):
    X=             -0.3933    Y=             -1.7385    Z=              1.8925  Tot=              2.5997
 Quadrupole moment (field-independent basis, Debye-Ang):
   XX=            -62.2858   YY=            -55.0226   ZZ=            -51.9105
   XY=              4.0848   XZ=             -6.7498   YZ=              0.1141
 Traceless Quadrupole moment (field-independent basis, Debye-Ang):
   XX=             -5.8795   YY=              1.3837   ZZ=              4.4958
   XY=              4.0848   XZ=             -6.7498   YZ=              0.1141
 Octapole moment (field-independent basis, Debye-Ang**2):
  XXX=            -49.2479  YYY=             -1.7964  ZZZ=              0.0057  XYY=             20.4338
  XXY=            -11.4201  XXZ=             15.4947  XZZ=             -2.2742  YZZ=             -2.7788
  YYZ=              8.6054  XYZ=              7.6822
 Hexadecapole moment (field-independent basis, Debye-Ang**3):
 XXXX=          -1050.0858 YYYY=           -658.1853 ZZZZ=           -148.0565 XXXY=             44.3040
 XXXZ=            -67.1483 YYYX=             47.5169 YYYZ=             24.3347 ZZZX=             -6.5133
 ZZZY=             -2.6449 XXYY=           -302.8683 XXZZ=           -181.8321 YYZZ=           -140.3265
 XXYZ=            -17.3756 YYXZ=            -11.9217 ZZXY=              6.2060
 N-N= 4.900050939261D+02 E-N=-3.331953417150D+03  KE= 7.957954293447D+02
                          Isotropic Fermi Contact Couplings
        Atom                 a.u.       MegaHertz       Gauss      10(-4) cm-1
     1  C(13)              0.15661      88.02830      31.41069      29.36308
     2  C(13)             -0.00893      -5.01859      -1.79076      -1.67402
     3  C(13)             -0.02053     -11.54182      -4.11841      -3.84994
     4  C(13)              0.00277       1.55565       0.55509       0.51891
     5  O(17)              0.09834     -29.80536     -10.63529      -9.94200
     6  O(17)             -0.00082       0.24979       0.08913       0.08332
     7  H(1)              -0.03175     -70.96174     -25.32091     -23.67029
     8  H(1)              -0.00636     -14.20657      -5.06926      -4.73880
     9  H(1)               0.00676      15.11060       5.39184       5.04035
    10  H(1)               0.02035      45.47575      16.22688      15.16908
    11  H(1)               0.00164       3.67530       1.31144       1.22595
    12  H(1)               0.00458      10.24474       3.65558       3.41728
    13  H(1)              -0.00014      -0.31079      -0.11090      -0.10367
    14  H(1)              -0.00005      -0.10186      -0.03635      -0.03398
    15  O(17)              0.10551     -31.98037     -11.41139     -10.66750
    16  H(1)              -0.00002      -0.04544      -0.01621      -0.01516
    17  O(17)              0.01342      -4.06663      -1.45107      -1.35648
    18  O(17)              0.08926     -27.05390      -9.65350      -9.02421
    19  H(1)              -0.00153      -3.41234      -1.21761      -1.13823
 --------------------------------------------------------
       Center         ----  Spin Dipole Couplings  ----
                      3XX-RR        3YY-RR        3ZZ-RR
 --------------------------------------------------------
     1   Atom        0.408747     -0.221976     -0.186771
     2   Atom        0.016940      0.002846     -0.019786
     3   Atom        0.008488     -0.006601     -0.001887
     4   Atom       -0.002554      0.005257     -0.002704
     5   Atom       -0.373082     -0.982980      1.356062
     6   Atom        0.003622      0.000388     -0.004010
     7   Atom        0.158635     -0.087968     -0.070667
     8   Atom       -0.010215     -0.015752      0.025967
     9   Atom        0.001103      0.001779     -0.002882
    10   Atom        0.004362      0.001759     -0.006121
    11   Atom        0.004912      0.003135     -0.008047
    12   Atom        0.008507     -0.013904      0.005397
    13   Atom       -0.000004      0.003568     -0.003564
    14   Atom        0.002892      0.000708     -0.003600
    15   Atom       -1.018327     -1.494797      2.513124
    16   Atom       -0.000959      0.004239     -0.003280
    17   Atom        0.243865     -0.207615     -0.036250
    18   Atom        0.632787     -0.414222     -0.218566
    19   Atom        0.007302     -0.015495      0.008193
 --------------------------------------------------------
                        XY            XZ            YZ
 --------------------------------------------------------
     1   Atom        0.290148      0.311593      0.134294
     2   Atom        0.015664      0.005461      0.009169
     3   Atom        0.004471     -0.005117      0.009090
     4   Atom       -0.002651      0.000805     -0.008987
     5   Atom       -0.091991     -0.757817      0.262553
     6   Atom        0.001133     -0.002849      0.000152
     7   Atom        0.095929      0.119646      0.042784
     8   Atom        0.011788      0.009021     -0.037590
     9   Atom       -0.006263     -0.005806      0.008842
    10   Atom       -0.001566     -0.003304      0.009580
    11   Atom        0.005018     -0.001122      0.011436
    12   Atom        0.007230      0.005234      0.004412
    13   Atom       -0.001565      0.003217     -0.006337
    14   Atom       -0.004143      0.004016     -0.007256
    15   Atom       -0.144494     -1.297271      0.448106
    16   Atom       -0.002702      0.000257     -0.000515
    17   Atom        0.194560      0.286717      0.078485
    18   Atom        0.965506      1.123804      0.663634
    19   Atom        0.001691     -0.015089     -0.003172
 --------------------------------------------------------


 ---------------------------------------------------------------------------------
              Anisotropic Spin Dipole Couplings in Principal Axis System
 ---------------------------------------------------------------------------------

       Atom             a.u.   MegaHertz   Gauss  10(-4) cm-1        Axes

              Baa    -0.3416   -45.846   -16.359   -15.293 -0.1407  0.8705 -0.4717
     1 C(13)  Bbb    -0.3164   -42.457   -15.150   -14.162 -0.4853  0.3546  0.7992
              Bcc     0.6580    88.303    31.509    29.455  0.8629  0.3414  0.3725
 
              Baa    -0.0230    -3.091    -1.103    -1.031  0.0027 -0.3354  0.9421
     2 C(13)  Bbb    -0.0059    -0.796    -0.284    -0.266 -0.5871  0.7621  0.2730
              Bcc     0.0290     3.887     1.387     1.297  0.8095  0.5538  0.1948
 
              Baa    -0.0155    -2.079    -0.742    -0.694 -0.2687  0.7512 -0.6029
     3 C(13)  Bbb     0.0049     0.652     0.233     0.218  0.2119  0.6566  0.7238
              Bcc     0.0106     1.427     0.509     0.476  0.9396  0.0667 -0.3356
 
              Baa    -0.0087    -1.162    -0.414    -0.387  0.1331  0.5555  0.8208
     4 C(13)  Bbb    -0.0030    -0.396    -0.141    -0.132  0.9737  0.0813 -0.2130
              Bcc     0.0116     1.557     0.556     0.520 -0.1851  0.8275 -0.5301
 
              Baa    -1.0122    73.246    26.136    24.432  0.0200  0.9944 -0.1038
     5 O(17)  Bbb    -0.6581    47.618    16.991    15.884  0.9366  0.0177  0.3501
              Bcc     1.6703  -120.864   -43.127   -40.316 -0.3499  0.1043  0.9310
 
              Baa    -0.0050     0.362     0.129     0.121  0.3234 -0.0945  0.9415
     6 O(17)  Bbb     0.0002    -0.014    -0.005    -0.005 -0.1864  0.9691  0.1613
              Bcc     0.0048    -0.348    -0.124    -0.116  0.9277  0.2277 -0.2958
 
              Baa    -0.1231   -65.703   -23.444   -21.916 -0.1132 -0.6278  0.7701
     7 H(1)   Bbb    -0.1199   -63.961   -22.823   -21.335 -0.4686  0.7172  0.5158
              Bcc     0.2430   129.664    46.267    43.251  0.8761  0.3025  0.3754
 
              Baa    -0.0443   -23.618    -8.427    -7.878 -0.3975  0.7868  0.4722
     8 H(1)   Bbb    -0.0039    -2.075    -0.740    -0.692  0.9170  0.3586  0.1744
              Bcc     0.0482    25.693     9.168     8.570  0.0321 -0.5023  0.8641
 
              Baa    -0.0098    -5.219    -1.862    -1.741  0.1108 -0.5652  0.8175
     9 H(1)   Bbb    -0.0044    -2.330    -0.831    -0.777  0.8299  0.5052  0.2368
              Bcc     0.0141     7.549     2.694     2.518 -0.5468  0.6522  0.5250
 
              Baa    -0.0127    -6.803    -2.427    -2.269  0.1119 -0.5391  0.8348
    10 H(1)   Bbb     0.0028     1.477     0.527     0.493  0.8601  0.4733  0.1904
              Bcc     0.0100     5.326     1.900     1.776 -0.4978  0.6967  0.5166
 
              Baa    -0.0158    -8.446    -3.014    -2.817  0.1756 -0.5420  0.8218
    11 H(1)   Bbb     0.0036     1.919     0.685     0.640  0.8646 -0.3143 -0.3920
              Bcc     0.0122     6.527     2.329     2.177  0.4708  0.7794  0.4134
 
              Baa    -0.0164    -8.754    -3.124    -2.920 -0.2501  0.9589 -0.1340
    12 H(1)   Bbb     0.0015     0.811     0.289     0.271 -0.5752 -0.0358  0.8173
              Bcc     0.0149     7.942     2.834     2.649  0.7789  0.2815  0.5605
 
              Baa    -0.0078    -4.170    -1.488    -1.391 -0.2648  0.4410  0.8576
    13 H(1)   Bbb    -0.0005    -0.293    -0.104    -0.098  0.9009  0.4302  0.0569
              Bcc     0.0084     4.463     1.592     1.489 -0.3438  0.7877 -0.5112
 
              Baa    -0.0091    -4.840    -1.727    -1.614 -0.0753  0.5734  0.8158
    14 H(1)   Bbb    -0.0014    -0.743    -0.265    -0.248  0.7933  0.5301 -0.2994
              Bcc     0.0105     5.583     1.992     1.862 -0.6042  0.6246 -0.4948
 
              Baa    -1.5443   111.744    39.873    37.274  0.0109  0.9943 -0.1063
    15 O(17)  Bbb    -1.4436   104.458    37.273    34.843  0.9507  0.0226  0.3092
              Bcc     2.9879  -216.202   -77.146   -72.117 -0.3098  0.1045  0.9451
 
              Baa    -0.0033    -1.771    -0.632    -0.591 -0.0523  0.0493  0.9974
    16 H(1)   Bbb    -0.0021    -1.125    -0.401    -0.375  0.9189  0.3935  0.0287
              Bcc     0.0054     2.895     1.033     0.966 -0.3910  0.9180 -0.0659
 
              Baa    -0.2865    20.729     7.397     6.915 -0.4466  0.8615  0.2416
    17 O(17)  Bbb    -0.1982    14.345     5.119     4.785 -0.3569 -0.4191  0.8348
              Bcc     0.4847   -35.074   -12.515   -11.700  0.8204  0.2866  0.4947
 
              Baa    -0.9953    72.016    25.697    24.022 -0.6446  0.2433  0.7248
    18 O(17)  Bbb    -0.9865    71.380    25.470    23.810 -0.1942  0.8648 -0.4631
              Bcc     1.9817  -143.396   -51.167   -47.832  0.7394  0.4393  0.5102
 
              Baa    -0.0159    -8.494    -3.031    -2.833  0.0211  0.9894  0.1434
    19 H(1)   Bbb    -0.0072    -3.859    -1.377    -1.287  0.7218 -0.1143  0.6826
              Bcc     0.0232    12.353     4.408     4.120 -0.6917 -0.0891  0.7166
 

 ---------------------------------------------------------------------------------

 1\1\GINC-COMPUTE-3-044\FTS\UM062X\6-311+G(2df,2p)\C4H10O5(3)\ROOT\12-A
 ug-2017\0\\# m062x/6-311+g(2df,2p) opt=(ts,calcfc,noeigentest)\\[O]O+[
 O]OCCCCO_OO+[O]OC[CH]CCO\\0,3\C,0.1783798018,-0.8156341385,0.617256051
 8\C,-0.1062374427,0.6486265151,0.8201005074\C,1.1689406796,-1.24779047
 76,-0.4240156411\C,-0.3665967403,1.4298946826,-0.4623543586\O,2.534022
 7639,-0.9456072569,-0.0184183801\O,-0.7581158813,2.7589432965,-0.18411
 35356\H,-0.9584504574,-1.2982936492,0.1069830332\H,0.2649267703,-1.385
 8348719,1.5407197911\H,-0.9783654521,0.7583352136,1.4689132697\H,0.738
 5707808,1.1039038243,1.3525322197\H,1.1714149992,-2.3288825948,-0.5475
 329563\H,1.0069319565,-0.7673520631,-1.3868737422\H,-1.1940826418,0.97
 58879571,-1.0084094019\H,0.5195005414,1.41622634,-1.1025039649\O,2.780
 7204821,0.3234374254,-0.0796376062\H,-0.0043260312,3.2378944072,0.1658
 491965\O,-2.8773819226,-0.6514478234,0.0237953485\O,-1.9882078557,-1.6
 343126398,-0.3613735165\H,-3.3033323507,-1.0234341466,0.8059526856\\Ve
 rsion=EM64L-G09RevB.01\State=3-A\HF=-534.2100692\S2=2.016154\S2-1=0.\S
 2A=2.000141\RMSD=9.526e-09\RMSF=9.740e-06\Dipole=-0.1521491,-0.6812405
 ,0.7475968\Quadrupole=-4.4220587,0.9964952,3.4255635,3.0540914,-4.9604
 47,0.092143\PG=C01 [X(C4H10O5)]\\@


 IF YOU WANT TO LEARN FROM THE THEORETICAL PHYSICISTS ABOUT THE
 METHODS WHICH THEY USE, I ADVISE YOU TO FOLLOW THIS PRINCIPLE VERY STRICTLY:
 DON'T LISTEN TO THEIR WORDS; PAY ATTENTION, INSTEAD, TO THEIR ACTIONS.
 -- A.EINSTEIN, 1934
 Job cpu time:  1 days  2 hours 27 minutes 26.1 seconds.
 File lengths (MBytes):  RWF=   2624 Int=      0 D2E=      0 Chk=     32 Scr=     32
 Normal termination of Gaussian 09 at Sat Aug 12 03:37:35 2017.
