 Entering Gaussian System, Link 0=/shared/apps/gaussian/G09_LINUX_LINDA/g09/g09
 Input=/gss_gpfs_scratch/harms.n/QMscratch/[O]O+[O]OCCCCO_OO+[O]OC[CH]CCOEst.gjf
 Output=/gss_gpfs_scratch/harms.n/QMscratch/[O]O+[O]OCCCCO_OO+[O]OC[CH]CCOEst.log
 Initial command:
 /shared/apps/gaussian/G09_LINUX_LINDA/g09/l1.exe /gss_gpfs_scratch/harms.n/comparerTST/Gau-8742.inp -scrdir=/gss_gpfs_scratch/harms.n/comparerTST/
 Entering Link 1 = /shared/apps/gaussian/G09_LINUX_LINDA/g09/l1.exe PID=      8743.
  
 Copyright (c) 1988,1990,1992,1993,1995,1998,2003,2009,2010,
            Gaussian, Inc.  All Rights Reserved.
  
 This is part of the Gaussian(R) 09 program.  It is based on
 the Gaussian(R) 03 system (copyright 2003, Gaussian, Inc.),
 the Gaussian(R) 98 system (copyright 1998, Gaussian, Inc.),
 the Gaussian(R) 94 system (copyright 1995, Gaussian, Inc.),
 the Gaussian 92(TM) system (copyright 1992, Gaussian, Inc.),
 the Gaussian 90(TM) system (copyright 1990, Gaussian, Inc.),
 the Gaussian 88(TM) system (copyright 1988, Gaussian, Inc.),
 the Gaussian 86(TM) system (copyright 1986, Carnegie Mellon
 University), and the Gaussian 82(TM) system (copyright 1983,
 Carnegie Mellon University). Gaussian is a federally registered
 trademark of Gaussian, Inc.
  
 This software contains proprietary and confidential information,
 including trade secrets, belonging to Gaussian, Inc.
  
 This software is provided under written license and may be
 used, copied, transmitted, or stored only in accord with that
 written license.
  
 The following legend is applicable only to US Government
 contracts under FAR:
  
                    RESTRICTED RIGHTS LEGEND
  
 Use, reproduction and disclosure by the US Government is
 subject to restrictions as set forth in subparagraphs (a)
 and (c) of the Commercial Computer Software - Restricted
 Rights clause in FAR 52.227-19.
  
 Gaussian, Inc.
 340 Quinnipiac St., Bldg. 40, Wallingford CT 06492
  
  
 ---------------------------------------------------------------
 Warning -- This program may not be used in any manner that
 competes with the business of Gaussian, Inc. or will provide
 assistance to any competitor of Gaussian, Inc.  The licensee
 of this program is prohibited from giving any competitor of
 Gaussian, Inc. access to this program.  By using this program,
 the user acknowledges that Gaussian, Inc. is engaged in the
 business of creating and licensing software in the field of
 computational chemistry and represents and warrants to the
 licensee that it is not a competitor of Gaussian, Inc. and that
 it will not use this program in any manner prohibited above.
 ---------------------------------------------------------------
  

 Cite this work as:
 Gaussian 09, Revision B.01,
 M. J. Frisch, G. W. Trucks, H. B. Schlegel, G. E. Scuseria, 
 M. A. Robb, J. R. Cheeseman, G. Scalmani, V. Barone, B. Mennucci, 
 G. A. Petersson, H. Nakatsuji, M. Caricato, X. Li, H. P. Hratchian, 
 A. F. Izmaylov, J. Bloino, G. Zheng, J. L. Sonnenberg, M. Hada, 
 M. Ehara, K. Toyota, R. Fukuda, J. Hasegawa, M. Ishida, T. Nakajima, 
 Y. Honda, O. Kitao, H. Nakai, T. Vreven, J. A. Montgomery, Jr., 
 J. E. Peralta, F. Ogliaro, M. Bearpark, J. J. Heyd, E. Brothers, 
 K. N. Kudin, V. N. Staroverov, T. Keith, R. Kobayashi, J. Normand, 
 K. Raghavachari, A. Rendell, J. C. Burant, S. S. Iyengar, J. Tomasi, 
 M. Cossi, N. Rega, J. M. Millam, M. Klene, J. E. Knox, J. B. Cross, 
 V. Bakken, C. Adamo, J. Jaramillo, R. Gomperts, R. E. Stratmann, 
 O. Yazyev, A. J. Austin, R. Cammi, C. Pomelli, J. W. Ochterski, 
 R. L. Martin, K. Morokuma, V. G. Zakrzewski, G. A. Voth, 
 P. Salvador, J. J. Dannenberg, S. Dapprich, A. D. Daniels, 
 O. Farkas, J. B. Foresman, J. V. Ortiz, J. Cioslowski, 
 and D. J. Fox, Gaussian, Inc., Wallingford CT, 2010.
 
 ******************************************
 Gaussian 09:  EM64L-G09RevB.01 12-Aug-2010
                11-Aug-2017 
 ******************************************
 %nprocshared=20
 Will use up to   20 processors via shared memory.
 %mem=5GB
 ----------------------------------------------------------
 # m062x/6-311+g(2df,2p) Opt=(ModRedun,Loose) Int(Grid=SG1)
 ----------------------------------------------------------
 1/7=-1,14=-1,18=120,19=15,26=2,38=1/1,3;
 2/9=110,12=2,17=6,18=5,40=1/2;
 3/5=4,6=6,7=214,11=2,16=1,25=1,30=1,71=1,74=-55,75=1/1,2,3;
 4//1;
 5/5=2,38=5/2;
 6/7=2,8=2,9=2,10=2,28=1/1;
 7//1,2,3,16;
 1/7=-1,14=-1,18=20,19=15/3(2);
 2/9=110/2;
 99//99;
 2/9=110/2;
 3/5=4,6=6,7=214,11=2,16=1,25=1,30=1,71=1,74=-55,75=1/1,2,3;
 4/5=5,16=3/1;
 5/5=2,38=5/2;
 7//1,2,3,16;
 1/7=-1,14=-1,18=20,19=15/3(-5);
 2/9=110/2;
 6/7=2,8=2,9=2,10=2,19=2,28=1/1;
 99/9=1/99;
 ------------------------------
 [O]O+[O]OCCCCO_OO+[O]OC[CH]CCO
 ------------------------------
 Symbolic Z-matrix:
 Charge =  0 Multiplicity = 3
 C                    -0.7199   -0.1945    0.4124 
 C                     0.7303   -0.0632    0.7143 
 C                    -1.0768   -1.1548   -0.663 
 C                     1.593    -0.5204   -0.4224 
 O                    -1.6084   -2.2941   -0.0801 
 O                     2.9014   -0.0845   -0.1597 
 H                    -1.016     0.984    -0.13 
 H                    -1.3899   -0.1763    1.2718 
 H                     0.986     1.0102    0.9041 
 H                     0.9357   -0.5908    1.6572 
 H                    -1.8841   -0.73     -1.312 
 H                    -0.2278   -1.3594   -1.3254 
 H                     1.2734    0.0207   -1.3344 
 H                     1.6415   -1.6128   -0.5434 
 O                    -0.9149   -2.5355    1.0139 
 H                     3.0015    0.1523    0.7995 
 O                    -1.4701    3.3723   -0.6081 
 O                    -1.3658    2.0612   -0.5222 
 H                    -1.389     3.7154    0.3275 
 
 The following ModRedundant input section has been read:
 B       1       7 F                                                           
 B       1      18 F                                                           
 B       7      18 F                                                           

 GradGradGradGradGradGradGradGradGradGradGradGradGradGradGradGradGradGrad
 Berny optimization.
 Initialization pass.
                           ----------------------------
                           !    Initial Parameters    !
                           ! (Angstroms and Degrees)  !
 --------------------------                            --------------------------
 ! Name  Definition              Value          Derivative Info.                !
 --------------------------------------------------------------------------------
 ! R1    R(1,2)                  1.4871         estimate D2E/DX2                !
 ! R2    R(1,3)                  1.4853         estimate D2E/DX2                !
 ! R3    R(1,7)                  1.3307         Frozen                          !
 ! R4    R(1,8)                  1.0899         estimate D2E/DX2                !
 ! R5    R(1,18)                 2.5256         Frozen                          !
 ! R6    R(2,4)                  1.4985         estimate D2E/DX2                !
 ! R7    R(2,9)                  1.1196         estimate D2E/DX2                !
 ! R8    R(2,10)                 1.0998         estimate D2E/DX2                !
 ! R9    R(3,5)                  1.3858         estimate D2E/DX2                !
 ! R10   R(3,11)                 1.1195         estimate D2E/DX2                !
 ! R11   R(3,12)                 1.0961         estimate D2E/DX2                !
 ! R12   R(4,6)                  1.4039         estimate D2E/DX2                !
 ! R13   R(4,13)                 1.1076         estimate D2E/DX2                !
 ! R14   R(4,14)                 1.1002         estimate D2E/DX2                !
 ! R15   R(5,15)                 1.3176         estimate D2E/DX2                !
 ! R16   R(6,16)                 0.9931         estimate D2E/DX2                !
 ! R17   R(7,18)                 1.1986         Frozen                          !
 ! R18   R(17,18)                1.318          estimate D2E/DX2                !
 ! R19   R(17,19)                0.9998         estimate D2E/DX2                !
 ! A1    A(2,1,3)              116.0022         estimate D2E/DX2                !
 ! A2    A(2,1,7)              102.8001         estimate D2E/DX2                !
 ! A3    A(2,1,8)              115.9728         estimate D2E/DX2                !
 ! A4    A(3,1,7)              102.9446         estimate D2E/DX2                !
 ! A5    A(3,1,8)              115.7224         estimate D2E/DX2                !
 ! A6    A(7,1,8)               99.7781         estimate D2E/DX2                !
 ! A7    A(1,2,4)              112.3646         estimate D2E/DX2                !
 ! A8    A(1,2,9)              109.9848         estimate D2E/DX2                !
 ! A9    A(1,2,10)             108.2893         estimate D2E/DX2                !
 ! A10   A(4,2,9)              106.8355         estimate D2E/DX2                !
 ! A11   A(4,2,10)             113.3569         estimate D2E/DX2                !
 ! A12   A(9,2,10)             105.7785         estimate D2E/DX2                !
 ! A13   A(1,3,5)              108.6131         estimate D2E/DX2                !
 ! A14   A(1,3,11)             110.3451         estimate D2E/DX2                !
 ! A15   A(1,3,12)             111.8464         estimate D2E/DX2                !
 ! A16   A(5,3,11)             106.2107         estimate D2E/DX2                !
 ! A17   A(5,3,12)             113.4449         estimate D2E/DX2                !
 ! A18   A(11,3,12)            106.2026         estimate D2E/DX2                !
 ! A19   A(2,4,6)              107.4504         estimate D2E/DX2                !
 ! A20   A(2,4,13)             108.0257         estimate D2E/DX2                !
 ! A21   A(2,4,14)             114.3166         estimate D2E/DX2                !
 ! A22   A(6,4,13)             105.7431         estimate D2E/DX2                !
 ! A23   A(6,4,14)             106.7263         estimate D2E/DX2                !
 ! A24   A(13,4,14)            114.0333         estimate D2E/DX2                !
 ! A25   A(3,5,15)             107.3355         estimate D2E/DX2                !
 ! A26   A(4,6,16)             110.4093         estimate D2E/DX2                !
 ! A27   A(1,7,18)             173.8687         estimate D2E/DX2                !
 ! A28   A(18,17,19)           105.8994         estimate D2E/DX2                !
 ! A29   A(7,18,17)            159.79           estimate D2E/DX2                !
 ! D1    D(3,1,2,4)             21.1879         estimate D2E/DX2                !
 ! D2    D(3,1,2,9)            140.0616         estimate D2E/DX2                !
 ! D3    D(3,1,2,10)          -104.792          estimate D2E/DX2                !
 ! D4    D(7,1,2,4)            -90.3065         estimate D2E/DX2                !
 ! D5    D(7,1,2,9)             28.5672         estimate D2E/DX2                !
 ! D6    D(7,1,2,10)           143.7136         estimate D2E/DX2                !
 ! D7    D(8,1,2,4)            161.9712         estimate D2E/DX2                !
 ! D8    D(8,1,2,9)            -79.1551         estimate D2E/DX2                !
 ! D9    D(8,1,2,10)            35.9913         estimate D2E/DX2                !
 ! D10   D(2,1,3,5)            105.0631         estimate D2E/DX2                !
 ! D11   D(2,1,3,11)          -138.8928         estimate D2E/DX2                !
 ! D12   D(2,1,3,12)           -20.9048         estimate D2E/DX2                !
 ! D13   D(7,1,3,5)           -143.5265         estimate D2E/DX2                !
 ! D14   D(7,1,3,11)           -27.4825         estimate D2E/DX2                !
 ! D15   D(7,1,3,12)            90.5055         estimate D2E/DX2                !
 ! D16   D(8,1,3,5)            -35.819          estimate D2E/DX2                !
 ! D17   D(8,1,3,11)            80.225          estimate D2E/DX2                !
 ! D18   D(8,1,3,12)          -161.787          estimate D2E/DX2                !
 ! D19   D(2,1,7,18)          -119.5744         estimate D2E/DX2                !
 ! D20   D(3,1,7,18)           119.527          estimate D2E/DX2                !
 ! D21   D(8,1,7,18)             0.0874         estimate D2E/DX2                !
 ! D22   D(1,2,4,6)            167.1571         estimate D2E/DX2                !
 ! D23   D(1,2,4,13)            53.4921         estimate D2E/DX2                !
 ! D24   D(1,2,4,14)           -74.6074         estimate D2E/DX2                !
 ! D25   D(9,2,4,6)             46.452          estimate D2E/DX2                !
 ! D26   D(9,2,4,13)           -67.2131         estimate D2E/DX2                !
 ! D27   D(9,2,4,14)           164.6875         estimate D2E/DX2                !
 ! D28   D(10,2,4,6)           -69.6601         estimate D2E/DX2                !
 ! D29   D(10,2,4,13)          176.6749         estimate D2E/DX2                !
 ! D30   D(10,2,4,14)           48.5754         estimate D2E/DX2                !
 ! D31   D(1,3,5,15)           -38.8737         estimate D2E/DX2                !
 ! D32   D(11,3,5,15)         -157.557          estimate D2E/DX2                !
 ! D33   D(12,3,5,15)           86.1593         estimate D2E/DX2                !
 ! D34   D(2,4,6,16)            17.6469         estimate D2E/DX2                !
 ! D35   D(13,4,6,16)          132.8374         estimate D2E/DX2                !
 ! D36   D(14,4,6,16)         -105.39           estimate D2E/DX2                !
 ! D37   D(1,7,18,17)           77.5946         estimate D2E/DX2                !
 ! D38   D(19,17,18,7)         -33.0306         estimate D2E/DX2                !
 --------------------------------------------------------------------------------
 Trust Radius=3.00D-01 FncErr=1.00D-05 GrdErr=1.00D-04
 Number of steps in this run=     96 maximum allowed number of steps=    114.
 GradGradGradGradGradGradGradGradGradGradGradGradGradGradGradGradGradGrad

                          Input orientation:                          
 ---------------------------------------------------------------------
 Center     Atomic      Atomic             Coordinates (Angstroms)
 Number     Number       Type             X           Y           Z
 ---------------------------------------------------------------------
      1          6           0       -0.719900   -0.194500    0.412400
      2          6           0        0.730300   -0.063200    0.714300
      3          6           0       -1.076800   -1.154800   -0.663000
      4          6           0        1.593000   -0.520400   -0.422400
      5          8           0       -1.608400   -2.294100   -0.080100
      6          8           0        2.901400   -0.084500   -0.159700
      7          1           0       -1.016000    0.984000   -0.130000
      8          1           0       -1.389900   -0.176300    1.271800
      9          1           0        0.986000    1.010200    0.904100
     10          1           0        0.935700   -0.590800    1.657200
     11          1           0       -1.884100   -0.730000   -1.312000
     12          1           0       -0.227800   -1.359400   -1.325400
     13          1           0        1.273400    0.020700   -1.334400
     14          1           0        1.641500   -1.612800   -0.543400
     15          8           0       -0.914900   -2.535500    1.013900
     16          1           0        3.001500    0.152300    0.799500
     17          8           0       -1.470100    3.372300   -0.608100
     18          8           0       -1.365800    2.061200   -0.522200
     19          1           0       -1.389000    3.715400    0.327500
 ---------------------------------------------------------------------
                    Distance matrix (angstroms):
                    1          2          3          4          5
     1  C    0.000000
     2  C    1.487099   0.000000
     3  C    1.485274   2.520745   0.000000
     4  C    2.480445   1.498456   2.754666   0.000000
     5  O    2.332447   3.328288   1.385776   3.675887   0.000000
     6  O    3.667862   2.340514   4.150293   1.403898   5.022645
     7  H    1.330690   2.204322   2.205051   3.025822   3.331571
     8  H    1.089862   2.195187   2.190649   3.447667   2.521994
     9  H    2.145499   1.119640   3.376118   2.114424   4.314853
    10  H    2.108932   1.099823   3.122752   2.182140   3.520211
    11  H    2.148413   3.374256   1.119549   3.595211   2.009974
    12  H    2.149210   2.599705   1.096100   2.198782   2.080984
    13  H    2.659110   2.121124   2.712198   1.107555   3.903375
    14  H    2.915705   2.193936   2.759207   1.100150   3.352710
    15  O    2.424893   2.984746   2.178196   3.523230   1.317593
    16  H    3.757517   2.282991   4.525478   1.982281   5.292424
    17  O    3.785008   4.288725   4.544484   4.956832   5.692627
    18  O    2.525638   3.230425   3.232027   3.927991   4.384398
    19  H    3.967647   4.349582   4.979700   5.234183   6.027302
                    6          7          8          9         10
     6  O    0.000000
     7  H    4.060615   0.000000
     8  H    4.524696   1.857725   0.000000
     9  H    2.449244   2.253454   2.681023   0.000000
    10  H    2.724232   3.079482   2.393483   1.769997   0.000000
    11  H    4.964421   2.255774   2.688278   4.022048   4.097169
    12  H    3.574370   2.746227   3.081501   3.472605   3.292473
    13  H    2.010316   2.760413   3.731522   2.464263   3.072075
    14  H    2.017492   3.738526   3.814167   3.066768   2.526911
    15  O    4.684964   3.702109   2.420323   4.024607   2.760510
    16  H    0.993055   4.206662   4.428932   2.192983   2.356985
    17  O    5.591113   2.477653   4.016593   3.728095   5.160002
    18  O    4.790035   1.198558   2.868000   2.944469   4.132770
    19  H    5.751881   2.794455   4.004626   3.645710   5.071064
                   11         12         13         14         15
    11  H    0.000000
    12  H    1.771907   0.000000
    13  H    3.245591   2.039205   0.000000
    14  H    3.714827   2.042062   1.851891   0.000000
    15  O    3.099837   2.706962   4.103331   3.132370   0.000000
    16  H    5.394995   4.150761   2.749032   2.601645   4.754832
    17  O    4.182791   4.944372   4.391757   5.876858   6.151523
    18  O    2.946730   3.693329   3.433466   4.747903   4.867501
    19  H    4.763892   5.462056   4.847793   6.191293   6.306320
                   16         17         18         19
    16  H    0.000000
    17  O    5.687262   0.000000
    18  O    4.946120   1.318044   0.000000
    19  H    5.674060   0.999821   1.859813   0.000000
 Stoichiometry    C4H10O5(3)
 Framework group  C1[X(C4H10O5)]
 Deg. of freedom    51
 Full point group                 C1      NOp   1
 Largest Abelian subgroup         C1      NOp   1
 Largest concise Abelian subgroup C1      NOp   1
                         Standard orientation:                         
 ---------------------------------------------------------------------
 Center     Atomic      Atomic             Coordinates (Angstroms)
 Number     Number       Type             X           Y           Z
 ---------------------------------------------------------------------
      1          6           0        0.048631   -0.540499    0.433943
      2          6           0        0.322396    0.893699    0.716065
      3          6           0        0.716891   -1.107326   -0.765297
      4          6           0        0.796601    1.633171   -0.497888
      5          8           0        1.767663   -1.908991   -0.348660
      6          8           0        0.738097    3.004895   -0.204832
      7          1           0       -1.235157   -0.532268    0.083862
      8          1           0       -0.000595   -1.196879    1.302586
      9          1           0       -0.614296    1.401647    1.059852
     10          1           0        1.021959    0.951482    1.562755
     11          1           0        0.014084   -1.777662   -1.322164
     12          1           0        1.018382   -0.325560   -1.471966
     13          1           0        0.061010    1.467563   -1.309158
     14          1           0        1.836131    1.414612   -0.784139
     15          8           0        2.335160   -1.309954    0.678547
     16          1           0        0.682411    3.147318    0.776379
     17          8           0       -3.706264   -0.382190   -0.015487
     18          8           0       -2.412037   -0.602840   -0.131809
     19          1           0       -3.871996   -0.231882    0.958978
 ---------------------------------------------------------------------
 Rotational constants (GHZ):      1.3973765      0.9381336      0.6186127
 Standard basis: 6-311+G(2df,2p) (5D, 7F)
 There are   396 symmetry adapted basis functions of A   symmetry.
 Integral buffers will be    131072 words long.
 Raffenetti 2 integral format.
 Two-electron integral symmetry is turned on.
   396 basis functions,   578 primitive gaussians,   441 cartesian basis functions
    38 alpha electrons       36 beta electrons
       nuclear repulsion energy       483.3046126601 Hartrees.
 NAtoms=   19 NActive=   19 NUniq=   19 SFac= 1.00D+00 NAtFMM=   50 NAOKFM=F Big=F
 One-electron integrals computed using PRISM.
 NBasis=   396 RedAO= T  NBF=   396
 NBsUse=   396 1.00D-06 NBFU=   396
 Harris functional with IExCor= 1009 diagonalized for initial guess.
 ExpMin= 4.38D-02 ExpMax= 8.59D+03 ExpMxC= 1.30D+03 IAcc=2 IRadAn=         1 AccDes= 0.00D+00
 HarFok:  IExCor= 1009 AccDes= 0.00D+00 IRadAn=         1 IDoV= 1
 ScaDFX=  1.000000  1.000000  1.000000  1.000000
 FoFCou: FMM=F IPFlag=           0 FMFlag=      100000 FMFlg1=           0
         NFxFlg=           0 DoJE=T BraDBF=F KetDBF=T FulRan=T
         Omega=  0.000000  0.000000  1.000000  0.000000  0.000000 ICntrl=     500 IOpCl=  0
         NMat0=    1 NMatS0=    1 NMatT0=    0 NMatD0=    1 NMtDS0=    0 NMtDT0=    0
         I1Cent=           4 NGrid=           0.
 Petite list used in FoFCou.
 Initial guess orbital symmetries:
 Alpha Orbitals:
       Occupied  (A) (A) (A) (A) (A) (A) (A) (A) (A) (A) (A) (A)
                 (A) (A) (A) (A) (A) (A) (A) (A) (A) (A) (A) (A)
                 (A) (A) (A) (A) (A) (A) (A) (A) (A) (A) (A) (A)
                 (A) (A)
       Virtual   (A) (A) (A) (A) (A) (A) (A) (A) (A) (A) (A) (A)
                 (A) (A) (A) (A) (A) (A) (A) (A) (A) (A) (A) (A)
                 (A) (A) (A) (A) (A) (A) (A) (A) (A) (A) (A) (A)
                 (A) (A) (A) (A) (A) (A) (A) (A) (A) (A) (A) (A)
                 (A) (A) (A) (A) (A) (A) (A) (A) (A) (A) (A) (A)
                 (A) (A) (A) (A) (A) (A) (A) (A) (A) (A) (A) (A)
                 (A) (A) (A) (A) (A) (A) (A) (A) (A) (A) (A) (A)
                 (A) (A) (A) (A) (A) (A) (A) (A) (A) (A) (A) (A)
                 (A) (A) (A) (A) (A) (A) (A) (A) (A) (A) (A) (A)
                 (A) (A) (A) (A) (A) (A) (A) (A) (A) (A) (A) (A)
                 (A) (A) (A) (A) (A) (A) (A) (A) (A) (A) (A) (A)
                 (A) (A) (A) (A) (A) (A) (A) (A) (A) (A) (A) (A)
                 (A) (A) (A) (A) (A) (A) (A) (A) (A) (A) (A) (A)
                 (A) (A) (A) (A) (A) (A) (A) (A) (A) (A) (A) (A)
                 (A) (A) (A) (A) (A) (A) (A) (A) (A) (A) (A) (A)
                 (A) (A) (A) (A) (A) (A) (A) (A) (A) (A) (A) (A)
                 (A) (A) (A) (A) (A) (A) (A) (A) (A) (A) (A) (A)
                 (A) (A) (A) (A) (A) (A) (A) (A) (A) (A) (A) (A)
                 (A) (A) (A) (A) (A) (A) (A) (A) (A) (A) (A) (A)
                 (A) (A) (A) (A) (A) (A) (A) (A) (A) (A) (A) (A)
                 (A) (A) (A) (A) (A) (A) (A) (A) (A) (A) (A) (A)
                 (A) (A) (A) (A) (A) (A) (A) (A) (A) (A) (A) (A)
                 (A) (A) (A) (A) (A) (A) (A) (A) (A) (A) (A) (A)
                 (A) (A) (A) (A) (A) (A) (A) (A) (A) (A) (A) (A)
                 (A) (A) (A) (A) (A) (A) (A) (A) (A) (A) (A) (A)
                 (A) (A) (A) (A) (A) (A) (A) (A) (A) (A) (A) (A)
                 (A) (A) (A) (A) (A) (A) (A) (A) (A) (A) (A) (A)
                 (A) (A) (A) (A) (A) (A) (A) (A) (A) (A) (A) (A)
                 (A) (A) (A) (A) (A) (A) (A) (A) (A) (A) (A) (A)
                 (A) (A) (A) (A) (A) (A) (A) (A) (A) (A)
 Beta  Orbitals:
       Occupied  (A) (A) (A) (A) (A) (A) (A) (A) (A) (A) (A) (A)
                 (A) (A) (A) (A) (A) (A) (A) (A) (A) (A) (A) (A)
                 (A) (A) (A) (A) (A) (A) (A) (A) (A) (A) (A) (A)
       Virtual   (A) (A) (A) (A) (A) (A) (A) (A) (A) (A) (A) (A)
                 (A) (A) (A) (A) (A) (A) (A) (A) (A) (A) (A) (A)
                 (A) (A) (A) (A) (A) (A) (A) (A) (A) (A) (A) (A)
                 (A) (A) (A) (A) (A) (A) (A) (A) (A) (A) (A) (A)
                 (A) (A) (A) (A) (A) (A) (A) (A) (A) (A) (A) (A)
                 (A) (A) (A) (A) (A) (A) (A) (A) (A) (A) (A) (A)
                 (A) (A) (A) (A) (A) (A) (A) (A) (A) (A) (A) (A)
                 (A) (A) (A) (A) (A) (A) (A) (A) (A) (A) (A) (A)
                 (A) (A) (A) (A) (A) (A) (A) (A) (A) (A) (A) (A)
                 (A) (A) (A) (A) (A) (A) (A) (A) (A) (A) (A) (A)
                 (A) (A) (A) (A) (A) (A) (A) (A) (A) (A) (A) (A)
                 (A) (A) (A) (A) (A) (A) (A) (A) (A) (A) (A) (A)
                 (A) (A) (A) (A) (A) (A) (A) (A) (A) (A) (A) (A)
                 (A) (A) (A) (A) (A) (A) (A) (A) (A) (A) (A) (A)
                 (A) (A) (A) (A) (A) (A) (A) (A) (A) (A) (A) (A)
                 (A) (A) (A) (A) (A) (A) (A) (A) (A) (A) (A) (A)
                 (A) (A) (A) (A) (A) (A) (A) (A) (A) (A) (A) (A)
                 (A) (A) (A) (A) (A) (A) (A) (A) (A) (A) (A) (A)
                 (A) (A) (A) (A) (A) (A) (A) (A) (A) (A) (A) (A)
                 (A) (A) (A) (A) (A) (A) (A) (A) (A) (A) (A) (A)
                 (A) (A) (A) (A) (A) (A) (A) (A) (A) (A) (A) (A)
                 (A) (A) (A) (A) (A) (A) (A) (A) (A) (A) (A) (A)
                 (A) (A) (A) (A) (A) (A) (A) (A) (A) (A) (A) (A)
                 (A) (A) (A) (A) (A) (A) (A) (A) (A) (A) (A) (A)
                 (A) (A) (A) (A) (A) (A) (A) (A) (A) (A) (A) (A)
                 (A) (A) (A) (A) (A) (A) (A) (A) (A) (A) (A) (A)
                 (A) (A) (A) (A) (A) (A) (A) (A) (A) (A) (A) (A)
                 (A) (A) (A) (A) (A) (A) (A) (A) (A) (A) (A) (A)
                 (A) (A) (A) (A) (A) (A) (A) (A) (A) (A) (A) (A)
                 (A) (A) (A) (A) (A) (A) (A) (A) (A) (A) (A) (A)
 The electronic state of the initial guess is 3-A.
 Initial guess <Sx>= 0.0000 <Sy>= 0.0000 <Sz>= 1.0000 <S**2>= 2.0000 S= 1.0000
 Requested convergence on RMS density matrix=1.00D-08 within 128 cycles.
 Requested convergence on MAX density matrix=1.00D-06.
 Requested convergence on             energy=1.00D-06.
 No special actions if energy rises.
 Restarting incremental Fock formation.
 SCF Done:  E(UM062X) =  -534.133378549     A.U. after   26 cycles
             Convg  =    0.8924D-08             -V/T =  2.0026
 <Sx>= 0.0000 <Sy>= 0.0000 <Sz>= 1.0000 <S**2>= 2.0133 S= 1.0044
 <L.S>= 0.000000000000E+00
 Annihilation of the first spin contaminant:
 S**2 before annihilation     2.0133,   after     2.0001

 **********************************************************************

            Population analysis using the SCF density.

 **********************************************************************

 Orbital symmetries:
 Alpha Orbitals:
       Occupied  (A) (A) (A) (A) (A) (A) (A) (A) (A) (A) (A) (A)
                 (A) (A) (A) (A) (A) (A) (A) (A) (A) (A) (A) (A)
                 (A) (A) (A) (A) (A) (A) (A) (A) (A) (A) (A) (A)
                 (A) (A)
       Virtual   (A) (A) (A) (A) (A) (A) (A) (A) (A) (A) (A) (A)
                 (A) (A) (A) (A) (A) (A) (A) (A) (A) (A) (A) (A)
                 (A) (A) (A) (A) (A) (A) (A) (A) (A) (A) (A) (A)
                 (A) (A) (A) (A) (A) (A) (A) (A) (A) (A) (A) (A)
                 (A) (A) (A) (A) (A) (A) (A) (A) (A) (A) (A) (A)
                 (A) (A) (A) (A) (A) (A) (A) (A) (A) (A) (A) (A)
                 (A) (A) (A) (A) (A) (A) (A) (A) (A) (A) (A) (A)
                 (A) (A) (A) (A) (A) (A) (A) (A) (A) (A) (A) (A)
                 (A) (A) (A) (A) (A) (A) (A) (A) (A) (A) (A) (A)
                 (A) (A) (A) (A) (A) (A) (A) (A) (A) (A) (A) (A)
                 (A) (A) (A) (A) (A) (A) (A) (A) (A) (A) (A) (A)
                 (A) (A) (A) (A) (A) (A) (A) (A) (A) (A) (A) (A)
                 (A) (A) (A) (A) (A) (A) (A) (A) (A) (A) (A) (A)
                 (A) (A) (A) (A) (A) (A) (A) (A) (A) (A) (A) (A)
                 (A) (A) (A) (A) (A) (A) (A) (A) (A) (A) (A) (A)
                 (A) (A) (A) (A) (A) (A) (A) (A) (A) (A) (A) (A)
                 (A) (A) (A) (A) (A) (A) (A) (A) (A) (A) (A) (A)
                 (A) (A) (A) (A) (A) (A) (A) (A) (A) (A) (A) (A)
                 (A) (A) (A) (A) (A) (A) (A) (A) (A) (A) (A) (A)
                 (A) (A) (A) (A) (A) (A) (A) (A) (A) (A) (A) (A)
                 (A) (A) (A) (A) (A) (A) (A) (A) (A) (A) (A) (A)
                 (A) (A) (A) (A) (A) (A) (A) (A) (A) (A) (A) (A)
                 (A) (A) (A) (A) (A) (A) (A) (A) (A) (A) (A) (A)
                 (A) (A) (A) (A) (A) (A) (A) (A) (A) (A) (A) (A)
                 (A) (A) (A) (A) (A) (A) (A) (A) (A) (A) (A) (A)
                 (A) (A) (A) (A) (A) (A) (A) (A) (A) (A) (A) (A)
                 (A) (A) (A) (A) (A) (A) (A) (A) (A) (A) (A) (A)
                 (A) (A) (A) (A) (A) (A) (A) (A) (A) (A) (A) (A)
                 (A) (A) (A) (A) (A) (A) (A) (A) (A) (A) (A) (A)
                 (A) (A) (A) (A) (A) (A) (A) (A) (A) (A)
 Beta  Orbitals:
       Occupied  (A) (A) (A) (A) (A) (A) (A) (A) (A) (A) (A) (A)
                 (A) (A) (A) (A) (A) (A) (A) (A) (A) (A) (A) (A)
                 (A) (A) (A) (A) (A) (A) (A) (A) (A) (A) (A) (A)
       Virtual   (A) (A) (A) (A) (A) (A) (A) (A) (A) (A) (A) (A)
                 (A) (A) (A) (A) (A) (A) (A) (A) (A) (A) (A) (A)
                 (A) (A) (A) (A) (A) (A) (A) (A) (A) (A) (A) (A)
                 (A) (A) (A) (A) (A) (A) (A) (A) (A) (A) (A) (A)
                 (A) (A) (A) (A) (A) (A) (A) (A) (A) (A) (A) (A)
                 (A) (A) (A) (A) (A) (A) (A) (A) (A) (A) (A) (A)
                 (A) (A) (A) (A) (A) (A) (A) (A) (A) (A) (A) (A)
                 (A) (A) (A) (A) (A) (A) (A) (A) (A) (A) (A) (A)
                 (A) (A) (A) (A) (A) (A) (A) (A) (A) (A) (A) (A)
                 (A) (A) (A) (A) (A) (A) (A) (A) (A) (A) (A) (A)
                 (A) (A) (A) (A) (A) (A) (A) (A) (A) (A) (A) (A)
                 (A) (A) (A) (A) (A) (A) (A) (A) (A) (A) (A) (A)
                 (A) (A) (A) (A) (A) (A) (A) (A) (A) (A) (A) (A)
                 (A) (A) (A) (A) (A) (A) (A) (A) (A) (A) (A) (A)
                 (A) (A) (A) (A) (A) (A) (A) (A) (A) (A) (A) (A)
                 (A) (A) (A) (A) (A) (A) (A) (A) (A) (A) (A) (A)
                 (A) (A) (A) (A) (A) (A) (A) (A) (A) (A) (A) (A)
                 (A) (A) (A) (A) (A) (A) (A) (A) (A) (A) (A) (A)
                 (A) (A) (A) (A) (A) (A) (A) (A) (A) (A) (A) (A)
                 (A) (A) (A) (A) (A) (A) (A) (A) (A) (A) (A) (A)
                 (A) (A) (A) (A) (A) (A) (A) (A) (A) (A) (A) (A)
                 (A) (A) (A) (A) (A) (A) (A) (A) (A) (A) (A) (A)
                 (A) (A) (A) (A) (A) (A) (A) (A) (A) (A) (A) (A)
                 (A) (A) (A) (A) (A) (A) (A) (A) (A) (A) (A) (A)
                 (A) (A) (A) (A) (A) (A) (A) (A) (A) (A) (A) (A)
                 (A) (A) (A) (A) (A) (A) (A) (A) (A) (A) (A) (A)
                 (A) (A) (A) (A) (A) (A) (A) (A) (A) (A) (A) (A)
                 (A) (A) (A) (A) (A) (A) (A) (A) (A) (A) (A) (A)
                 (A) (A) (A) (A) (A) (A) (A) (A) (A) (A) (A) (A)
                 (A) (A) (A) (A) (A) (A) (A) (A) (A) (A) (A) (A)
 The electronic state is 3-A.
 Alpha  occ. eigenvalues --  -19.77027 -19.74523 -19.73276 -19.69450 -19.61630
 Alpha  occ. eigenvalues --  -10.59791 -10.58369 -10.53882 -10.53632  -1.36010
 Alpha  occ. eigenvalues --   -1.34152  -1.14148  -1.03810  -1.01297  -0.90719
 Alpha  occ. eigenvalues --   -0.80223  -0.74815  -0.72054  -0.66768  -0.62859
 Alpha  occ. eigenvalues --   -0.61768  -0.61358  -0.60356  -0.58726  -0.56142
 Alpha  occ. eigenvalues --   -0.54377  -0.51901  -0.48425  -0.46538  -0.46228
 Alpha  occ. eigenvalues --   -0.43170  -0.41636  -0.40666  -0.38582  -0.37592
 Alpha  occ. eigenvalues --   -0.36201  -0.34908  -0.31079
 Alpha virt. eigenvalues --   -0.00344   0.01985   0.02210   0.03228   0.04404
 Alpha virt. eigenvalues --    0.05105   0.05929   0.06506   0.07499   0.08088
 Alpha virt. eigenvalues --    0.09812   0.09914   0.10478   0.11716   0.12587
 Alpha virt. eigenvalues --    0.12968   0.14721   0.15215   0.16155   0.16925
 Alpha virt. eigenvalues --    0.17474   0.17807   0.18929   0.19065   0.20797
 Alpha virt. eigenvalues --    0.21222   0.21908   0.22916   0.23543   0.24217
 Alpha virt. eigenvalues --    0.24955   0.25372   0.26236   0.26831   0.27556
 Alpha virt. eigenvalues --    0.28052   0.29114   0.29452   0.29674   0.30654
 Alpha virt. eigenvalues --    0.31053   0.31796   0.33210   0.33583   0.35097
 Alpha virt. eigenvalues --    0.36048   0.37474   0.37938   0.38147   0.40423
 Alpha virt. eigenvalues --    0.40446   0.41675   0.42856   0.46116   0.47557
 Alpha virt. eigenvalues --    0.48963   0.49108   0.50697   0.53554   0.54245
 Alpha virt. eigenvalues --    0.55851   0.57618   0.58318   0.58764   0.60416
 Alpha virt. eigenvalues --    0.61495   0.62388   0.63178   0.63992   0.65207
 Alpha virt. eigenvalues --    0.65789   0.66483   0.67826   0.69511   0.69908
 Alpha virt. eigenvalues --    0.71087   0.71831   0.73978   0.76746   0.79521
 Alpha virt. eigenvalues --    0.80825   0.84365   0.86565   0.88250   0.89631
 Alpha virt. eigenvalues --    0.92033   0.93810   0.94406   0.96272   0.97042
 Alpha virt. eigenvalues --    0.98556   1.00661   1.02504   1.04532   1.06038
 Alpha virt. eigenvalues --    1.06190   1.07670   1.08280   1.09447   1.11472
 Alpha virt. eigenvalues --    1.11580   1.13982   1.15126   1.15801   1.16077
 Alpha virt. eigenvalues --    1.16855   1.18640   1.18865   1.21407   1.21950
 Alpha virt. eigenvalues --    1.22790   1.23261   1.24928   1.25275   1.25920
 Alpha virt. eigenvalues --    1.27070   1.30088   1.30752   1.32303   1.32649
 Alpha virt. eigenvalues --    1.34015   1.35416   1.36163   1.39040   1.40291
 Alpha virt. eigenvalues --    1.41082   1.42247   1.43125   1.43749   1.46193
 Alpha virt. eigenvalues --    1.46609   1.49421   1.50481   1.51285   1.52069
 Alpha virt. eigenvalues --    1.52181   1.54121   1.54819   1.55149   1.57234
 Alpha virt. eigenvalues --    1.58028   1.58960   1.60170   1.63092   1.64029
 Alpha virt. eigenvalues --    1.65352   1.68830   1.69756   1.73874   1.74431
 Alpha virt. eigenvalues --    1.76052   1.79107   1.80536   1.83114   1.85305
 Alpha virt. eigenvalues --    1.90415   1.91949   1.95680   1.99190   2.07372
 Alpha virt. eigenvalues --    2.09589   2.14301   2.15066   2.16853   2.24490
 Alpha virt. eigenvalues --    2.26223   2.28544   2.32610   2.34315   2.35619
 Alpha virt. eigenvalues --    2.39081   2.42926   2.53255   2.57354   2.60480
 Alpha virt. eigenvalues --    2.61985   2.63348   2.66884   2.70524   2.74260
 Alpha virt. eigenvalues --    2.75637   2.77767   2.79039   2.80881   2.82970
 Alpha virt. eigenvalues --    2.87948   2.90643   2.91548   2.96046   2.97532
 Alpha virt. eigenvalues --    3.01107   3.04100   3.07049   3.09390   3.12200
 Alpha virt. eigenvalues --    3.13371   3.16536   3.20094   3.21100   3.24381
 Alpha virt. eigenvalues --    3.27637   3.29292   3.31744   3.34284   3.36680
 Alpha virt. eigenvalues --    3.38865   3.41701   3.44766   3.48135   3.51130
 Alpha virt. eigenvalues --    3.52982   3.53648   3.55123   3.55911   3.57849
 Alpha virt. eigenvalues --    3.60634   3.61855   3.63824   3.66894   3.70899
 Alpha virt. eigenvalues --    3.71330   3.71950   3.73030   3.74415   3.76077
 Alpha virt. eigenvalues --    3.76994   3.78095   3.84042   3.85627   3.89064
 Alpha virt. eigenvalues --    3.91928   3.94214   3.95191   3.97301   3.98947
 Alpha virt. eigenvalues --    3.99696   4.01599   4.02898   4.06564   4.10582
 Alpha virt. eigenvalues --    4.12179   4.13487   4.14449   4.15858   4.19371
 Alpha virt. eigenvalues --    4.21713   4.27494   4.27815   4.29619   4.30895
 Alpha virt. eigenvalues --    4.35381   4.36672   4.38938   4.43732   4.44239
 Alpha virt. eigenvalues --    4.49604   4.51469   4.53330   4.53723   4.54626
 Alpha virt. eigenvalues --    4.56922   4.59377   4.60355   4.62315   4.65964
 Alpha virt. eigenvalues --    4.66878   4.69445   4.71340   4.76715   4.78997
 Alpha virt. eigenvalues --    4.81788   4.84316   4.85943   4.91701   4.96387
 Alpha virt. eigenvalues --    4.97733   5.00722   5.01285   5.04369   5.05675
 Alpha virt. eigenvalues --    5.06845   5.10553   5.11657   5.13711   5.14575
 Alpha virt. eigenvalues --    5.16665   5.18596   5.20405   5.21094   5.23286
 Alpha virt. eigenvalues --    5.24702   5.27512   5.29869   5.30670   5.34988
 Alpha virt. eigenvalues --    5.37795   5.41751   5.45025   5.46405   5.48607
 Alpha virt. eigenvalues --    5.50395   5.53124   5.54690   5.56250   5.56880
 Alpha virt. eigenvalues --    5.58794   5.59392   5.61963   5.65645   5.72589
 Alpha virt. eigenvalues --    5.81492   5.87021   5.88577   5.97993   6.32944
 Alpha virt. eigenvalues --    6.34353   6.44492   6.53150   6.54059   6.59796
 Alpha virt. eigenvalues --    6.64306   6.71041   6.82260   6.82855   6.83593
 Alpha virt. eigenvalues --    6.86012   6.89267   6.90873   6.98748   6.99025
 Alpha virt. eigenvalues --    7.00798   7.07554   7.12323   7.14085   7.18445
 Alpha virt. eigenvalues --    7.23407   7.25610   7.30015   7.32404   7.34162
 Alpha virt. eigenvalues --    7.40705   7.53137   7.53737   7.65290   7.69204
 Alpha virt. eigenvalues --    7.90319   7.92530   7.94805   8.07119  24.27565
 Alpha virt. eigenvalues --   24.41808  24.51008  24.60299  49.92547  50.00642
 Alpha virt. eigenvalues --   50.02447  50.09896  50.16152
  Beta  occ. eigenvalues --  -19.76343 -19.73687 -19.72024 -19.68061 -19.61629
  Beta  occ. eigenvalues --  -10.59818 -10.58367 -10.53894 -10.53490  -1.33059
  Beta  occ. eigenvalues --   -1.30960  -1.14141  -0.99686  -0.97400  -0.89948
  Beta  occ. eigenvalues --   -0.79393  -0.74072  -0.70547  -0.65405  -0.61020
  Beta  occ. eigenvalues --   -0.59687  -0.58445  -0.55986  -0.55583  -0.53733
  Beta  occ. eigenvalues --   -0.52549  -0.49014  -0.47892  -0.45683  -0.42595
  Beta  occ. eigenvalues --   -0.41012  -0.40488  -0.38223  -0.35054  -0.34878
  Beta  occ. eigenvalues --   -0.29999
  Beta virt. eigenvalues --   -0.12303  -0.06555  -0.00042   0.02052   0.02244
  Beta virt. eigenvalues --    0.03341   0.04593   0.05186   0.05928   0.06820
  Beta virt. eigenvalues --    0.07669   0.08419   0.09920   0.09980   0.10680
  Beta virt. eigenvalues --    0.12128   0.12743   0.13134   0.14962   0.16160
  Beta virt. eigenvalues --    0.16355   0.17349   0.17910   0.18168   0.19080
  Beta virt. eigenvalues --    0.19244   0.20920   0.21418   0.22277   0.23450
  Beta virt. eigenvalues --    0.23825   0.24532   0.25081   0.25597   0.26496
  Beta virt. eigenvalues --    0.27165   0.27702   0.28244   0.29225   0.29726
  Beta virt. eigenvalues --    0.30032   0.30799   0.31228   0.32043   0.33365
  Beta virt. eigenvalues --    0.33951   0.35327   0.36203   0.37473   0.38126
  Beta virt. eigenvalues --    0.38318   0.40580   0.40763   0.41837   0.43002
  Beta virt. eigenvalues --    0.46108   0.47922   0.49190   0.49263   0.50840
  Beta virt. eigenvalues --    0.53632   0.54345   0.55890   0.57658   0.58347
  Beta virt. eigenvalues --    0.58780   0.60512   0.61551   0.62434   0.63354
  Beta virt. eigenvalues --    0.64063   0.65346   0.66037   0.66542   0.67985
  Beta virt. eigenvalues --    0.69553   0.70121   0.71071   0.71989   0.74108
  Beta virt. eigenvalues --    0.76898   0.79686   0.80986   0.84488   0.86892
  Beta virt. eigenvalues --    0.88485   0.89750   0.92320   0.93988   0.94720
  Beta virt. eigenvalues --    0.96565   0.97312   0.98749   1.01265   1.02886
  Beta virt. eigenvalues --    1.05964   1.06370   1.06841   1.08228   1.08643
  Beta virt. eigenvalues --    1.10023   1.11804   1.12841   1.14671   1.15633
  Beta virt. eigenvalues --    1.16461   1.17576   1.18103   1.18998   1.19640
  Beta virt. eigenvalues --    1.21699   1.22534   1.23455   1.23846   1.25402
  Beta virt. eigenvalues --    1.25588   1.26511   1.27210   1.30356   1.31025
  Beta virt. eigenvalues --    1.32524   1.33035   1.34311   1.35686   1.36534
  Beta virt. eigenvalues --    1.39361   1.40563   1.41613   1.42786   1.43733
  Beta virt. eigenvalues --    1.44086   1.46492   1.46937   1.49642   1.50762
  Beta virt. eigenvalues --    1.51574   1.52157   1.52382   1.54403   1.55212
  Beta virt. eigenvalues --    1.55490   1.57802   1.58276   1.59361   1.60436
  Beta virt. eigenvalues --    1.63965   1.64472   1.67297   1.69794   1.70315
  Beta virt. eigenvalues --    1.74503   1.75155   1.76282   1.79537   1.81138
  Beta virt. eigenvalues --    1.84375   1.85824   1.91395   1.92996   1.95815
  Beta virt. eigenvalues --    1.99780   2.07465   2.10307   2.15003   2.15634
  Beta virt. eigenvalues --    2.17102   2.25327   2.27440   2.29147   2.32759
  Beta virt. eigenvalues --    2.34681   2.36396   2.39233   2.43323   2.53402
  Beta virt. eigenvalues --    2.57553   2.60764   2.62148   2.63637   2.67033
  Beta virt. eigenvalues --    2.70693   2.74336   2.76186   2.77814   2.79075
  Beta virt. eigenvalues --    2.80920   2.83141   2.88133   2.90733   2.91736
  Beta virt. eigenvalues --    2.96161   2.97240   3.01200   3.03964   3.06756
  Beta virt. eigenvalues --    3.08955   3.12164   3.13367   3.16453   3.20137
  Beta virt. eigenvalues --    3.21184   3.24380   3.27963   3.29385   3.31930
  Beta virt. eigenvalues --    3.34386   3.36660   3.38927   3.41920   3.44887
  Beta virt. eigenvalues --    3.48244   3.51289   3.53328   3.53721   3.55354
  Beta virt. eigenvalues --    3.56249   3.57951   3.60806   3.61883   3.64253
  Beta virt. eigenvalues --    3.66905   3.70904   3.71560   3.72079   3.73251
  Beta virt. eigenvalues --    3.75061   3.76205   3.77045   3.78320   3.84015
  Beta virt. eigenvalues --    3.85831   3.89271   3.92041   3.94274   3.95276
  Beta virt. eigenvalues --    3.97356   3.98847   3.99648   4.01781   4.03048
  Beta virt. eigenvalues --    4.06597   4.10558   4.12220   4.13412   4.14479
  Beta virt. eigenvalues --    4.16104   4.19259   4.21974   4.27528   4.27895
  Beta virt. eigenvalues --    4.29522   4.30932   4.35418   4.36866   4.39081
  Beta virt. eigenvalues --    4.43952   4.44329   4.50436   4.51602   4.53805
  Beta virt. eigenvalues --    4.55103   4.55812   4.57743   4.60133   4.60726
  Beta virt. eigenvalues --    4.62752   4.66220   4.67474   4.69445   4.72000
  Beta virt. eigenvalues --    4.76931   4.79409   4.81998   4.85115   4.86543
  Beta virt. eigenvalues --    4.92445   4.98444   5.00135   5.01815   5.03300
  Beta virt. eigenvalues --    5.05288   5.08858   5.09045   5.12293   5.14718
  Beta virt. eigenvalues --    5.15892   5.18241   5.19315   5.19884   5.20772
  Beta virt. eigenvalues --    5.22524   5.23972   5.25540   5.27677   5.30593
  Beta virt. eigenvalues --    5.31721   5.35111   5.38423   5.41921   5.45069
  Beta virt. eigenvalues --    5.46772   5.48694   5.51095   5.53994   5.55467
  Beta virt. eigenvalues --    5.56285   5.57284   5.59264   5.59825   5.62233
  Beta virt. eigenvalues --    5.65532   5.72115   5.81599   5.87219   5.89322
  Beta virt. eigenvalues --    5.98013   6.35394   6.35817   6.45046   6.53862
  Beta virt. eigenvalues --    6.54217   6.59929   6.70955   6.78905   6.83624
  Beta virt. eigenvalues --    6.87257   6.90424   6.92203   6.93524   6.98775
  Beta virt. eigenvalues --    6.99571   7.00814   7.04370   7.07665   7.14400
  Beta virt. eigenvalues --    7.15729   7.21592   7.23712   7.25667   7.32959
  Beta virt. eigenvalues --    7.35353   7.37071   7.44221   7.53032   7.53589
  Beta virt. eigenvalues --    7.65294   7.68948   7.89619   7.93150   7.95768
  Beta virt. eigenvalues --    8.10122  24.27598  24.41817  24.50994  24.60356
  Beta virt. eigenvalues --   49.92076  50.00088  50.01873  50.09312  50.16142
          Condensed to atoms (all electrons):
              1          2          3          4          5          6
     1  C    8.486531  -1.175465  -1.434057   0.066535   0.078420  -0.018670
     2  C   -1.175465   6.509067   0.515388  -0.299373  -0.028735  -0.012688
     3  C   -1.434057   0.515388   6.471674  -0.157884   0.046530   0.009975
     4  C    0.066535  -0.299373  -0.157884   5.750501  -0.001522   0.139502
     5  O    0.078420  -0.028735   0.046530  -0.001522   7.773639   0.000131
     6  O   -0.018670  -0.012688   0.009975   0.139502   0.000131   8.174922
     7  H    0.555286  -0.148624  -0.155746   0.001570   0.015011  -0.001937
     8  H    0.353265  -0.010622   0.020281   0.010145  -0.003653  -0.000364
     9  H   -0.152689   0.512619   0.045944  -0.054362  -0.002827  -0.002640
    10  H    0.022484   0.434061  -0.022280  -0.057419   0.003326   0.000059
    11  H   -0.177157   0.036484   0.544302   0.002732  -0.054855   0.000002
    12  H    0.044100  -0.047777   0.370621   0.010924  -0.017835   0.001889
    13  H    0.059514  -0.081361  -0.032915   0.442517   0.001520  -0.057377
    14  H   -0.038739   0.002919   0.025178   0.396300  -0.004774  -0.053137
    15  O   -0.091570   0.045114  -0.033643  -0.016319   0.175828  -0.001210
    16  H    0.027610  -0.052663  -0.008145   0.011338   0.000051   0.239541
    17  O    0.062168  -0.003389  -0.009233  -0.005921   0.000922   0.000021
    18  O   -0.128528   0.078379   0.041874  -0.010696  -0.007265   0.000761
    19  H   -0.005242   0.007499  -0.001704  -0.000735   0.000013  -0.000009
              7          8          9         10         11         12
     1  C    0.555286   0.353265  -0.152689   0.022484  -0.177157   0.044100
     2  C   -0.148624  -0.010622   0.512619   0.434061   0.036484  -0.047777
     3  C   -0.155746   0.020281   0.045944  -0.022280   0.544302   0.370621
     4  C    0.001570   0.010145  -0.054362  -0.057419   0.002732   0.010924
     5  O    0.015011  -0.003653  -0.002827   0.003326  -0.054855  -0.017835
     6  O   -0.001937  -0.000364  -0.002640   0.000059   0.000002   0.001889
     7  H    0.739083  -0.019738  -0.029866   0.009418  -0.026454   0.007109
     8  H   -0.019738   0.452389   0.001683  -0.008815   0.002690   0.002181
     9  H   -0.029866   0.001683   0.549383  -0.042831   0.000361   0.000065
    10  H    0.009418  -0.008815  -0.042831   0.481909  -0.000562   0.000950
    11  H   -0.026454   0.002690   0.000361  -0.000562   0.518855  -0.032473
    12  H    0.007109   0.002181   0.000065   0.000950  -0.032473   0.508547
    13  H    0.005180   0.000126  -0.008146   0.004910  -0.001004  -0.002526
    14  H   -0.001004  -0.000536   0.006675  -0.007428   0.001377  -0.010465
    15  O    0.001922  -0.009727   0.002735  -0.005963   0.009691  -0.004634
    16  H    0.000019  -0.000177  -0.002438  -0.000848   0.000010  -0.000157
    17  O    0.033286  -0.002902  -0.005287   0.000448  -0.001852   0.000001
    18  O   -0.419045   0.008938   0.018166  -0.002499   0.021439  -0.004759
    19  H   -0.001608   0.000125  -0.000096  -0.000040   0.000012  -0.000006
             13         14         15         16         17         18
     1  C    0.059514  -0.038739  -0.091570   0.027610   0.062168  -0.128528
     2  C   -0.081361   0.002919   0.045114  -0.052663  -0.003389   0.078379
     3  C   -0.032915   0.025178  -0.033643  -0.008145  -0.009233   0.041874
     4  C    0.442517   0.396300  -0.016319   0.011338  -0.005921  -0.010696
     5  O    0.001520  -0.004774   0.175828   0.000051   0.000922  -0.007265
     6  O   -0.057377  -0.053137  -0.001210   0.239541   0.000021   0.000761
     7  H    0.005180  -0.001004   0.001922   0.000019   0.033286  -0.419045
     8  H    0.000126  -0.000536  -0.009727  -0.000177  -0.002902   0.008938
     9  H   -0.008146   0.006675   0.002735  -0.002438  -0.005287   0.018166
    10  H    0.004910  -0.007428  -0.005963  -0.000848   0.000448  -0.002499
    11  H   -0.001004   0.001377   0.009691   0.000010  -0.001852   0.021439
    12  H   -0.002526  -0.010465  -0.004634  -0.000157   0.000001  -0.004759
    13  H    0.553000  -0.046336  -0.000711   0.006216  -0.000520  -0.003974
    14  H   -0.046336   0.556298   0.005938   0.000531   0.000029   0.000525
    15  O   -0.000711   0.005938   8.066439  -0.000257   0.000124   0.000620
    16  H    0.006216   0.000531  -0.000257   0.524372   0.000003  -0.000200
    17  O   -0.000520   0.000029   0.000124   0.000003   7.875456  -0.091650
    18  O   -0.003974   0.000525   0.000620  -0.000200  -0.091650   8.822514
    19  H   -0.000056   0.000001  -0.000017   0.000004   0.250015  -0.050901
             19
     1  C   -0.005242
     2  C    0.007499
     3  C   -0.001704
     4  C   -0.000735
     5  O    0.000013
     6  O   -0.000009
     7  H   -0.001608
     8  H    0.000125
     9  H   -0.000096
    10  H   -0.000040
    11  H    0.000012
    12  H   -0.000006
    13  H   -0.000056
    14  H    0.000001
    15  O   -0.000017
    16  H    0.000004
    17  O    0.250015
    18  O   -0.050901
    19  H    0.521587
 Mulliken atomic charges:
              1
     1  C   -0.533796
     2  C   -0.280835
     3  C   -0.236161
     4  C   -0.227833
     5  O    0.026074
     6  O   -0.418772
     7  H    0.436137
     8  H    0.204709
     9  H    0.163549
    10  H    0.191119
    11  H    0.156402
    12  H    0.174245
    13  H    0.161943
    14  H    0.166647
    15  O   -0.144359
    16  H    0.255189
    17  O   -0.101720
    18  O   -0.273698
    19  H    0.281159
 Sum of Mulliken atomic charges =   0.00000
 Mulliken charges with hydrogens summed into heavy atoms:
              1
     1  C   -0.329087
     2  C    0.073832
     3  C    0.094487
     4  C    0.100758
     5  O    0.026074
     6  O   -0.163583
    15  O   -0.144359
    17  O    0.179439
    18  O    0.162438
 Sum of Mulliken charges with hydrogens summed into heavy atoms =   0.00000
          Atomic-Atomic Spin Densities.
              1          2          3          4          5          6
     1  C    0.235749   0.012806  -0.105112   0.032856  -0.006854  -0.002576
     2  C    0.012806  -0.043152   0.038288  -0.020213  -0.005048   0.002392
     3  C   -0.105112   0.038288   0.050945  -0.019999   0.006221   0.001085
     4  C    0.032856  -0.020213  -0.019999   0.011536   0.000171  -0.001636
     5  O   -0.006854  -0.005048   0.006221   0.000171   0.455135  -0.000061
     6  O   -0.002576   0.002392   0.001085  -0.001636  -0.000061   0.001620
     7  H   -0.025986   0.012458   0.026520   0.008217  -0.001389   0.000447
     8  H   -0.020332   0.006930   0.016356  -0.002902   0.001598  -0.000013
     9  H   -0.002511   0.005329  -0.001062  -0.003097   0.000024  -0.000478
    10  H   -0.000300   0.000482  -0.002265   0.002390   0.000052   0.000142
    11  H    0.003993   0.000720  -0.000597  -0.001532  -0.001643  -0.000017
    12  H   -0.009250  -0.002602   0.018222  -0.000041  -0.007629   0.000300
    13  H   -0.000536   0.000708   0.000521  -0.000831   0.000028  -0.000419
    14  H    0.002993  -0.001027  -0.003617   0.001719   0.000854  -0.000063
    15  O    0.004291  -0.005159   0.007719   0.002018  -0.160877   0.000207
    16  H    0.001234  -0.001091  -0.000430   0.000553  -0.000001  -0.000309
    17  O    0.031424  -0.015286  -0.009009   0.002906   0.000060   0.000068
    18  O   -0.011627   0.008015  -0.012247  -0.005231   0.000667  -0.000347
    19  H    0.003020  -0.001258  -0.000623   0.000057   0.000004   0.000002
              7          8          9         10         11         12
     1  C   -0.025986  -0.020332  -0.002511  -0.000300   0.003993  -0.009250
     2  C    0.012458   0.006930   0.005329   0.000482   0.000720  -0.002602
     3  C    0.026520   0.016356  -0.001062  -0.002265  -0.000597   0.018222
     4  C    0.008217  -0.002902  -0.003097   0.002390  -0.001532  -0.000041
     5  O   -0.001389   0.001598   0.000024   0.000052  -0.001643  -0.007629
     6  O    0.000447  -0.000013  -0.000478   0.000142  -0.000017   0.000300
     7  H   -0.086556   0.001202   0.003139  -0.001115   0.001395   0.000853
     8  H    0.001202   0.000350   0.000197  -0.000678   0.000097  -0.000008
     9  H    0.003139   0.000197   0.001707   0.000072   0.000019  -0.000091
    10  H   -0.001115  -0.000678   0.000072   0.003161  -0.000001  -0.000002
    11  H    0.001395   0.000097   0.000019  -0.000001   0.007943  -0.002630
    12  H    0.000853  -0.000008  -0.000091  -0.000002  -0.002630   0.019090
    13  H   -0.001834   0.000021   0.000213  -0.000091   0.000088  -0.000693
    14  H    0.000231   0.000006  -0.000041   0.000252   0.000047  -0.000868
    15  O   -0.000343  -0.005867  -0.000193   0.001325   0.000283   0.003767
    16  H   -0.000036  -0.000004   0.000125  -0.000019   0.000001  -0.000026
    17  O    0.012282  -0.000963  -0.001613   0.000150  -0.000384   0.000037
    18  O    0.029502  -0.001022   0.003522   0.000113  -0.001781  -0.001018
    19  H    0.002442  -0.000101  -0.000174   0.000011  -0.000021   0.000003
             13         14         15         16         17         18
     1  C   -0.000536   0.002993   0.004291   0.001234   0.031424  -0.011627
     2  C    0.000708  -0.001027  -0.005159  -0.001091  -0.015286   0.008015
     3  C    0.000521  -0.003617   0.007719  -0.000430  -0.009009  -0.012247
     4  C   -0.000831   0.001719   0.002018   0.000553   0.002906  -0.005231
     5  O    0.000028   0.000854  -0.160877  -0.000001   0.000060   0.000667
     6  O   -0.000419  -0.000063   0.000207  -0.000309   0.000068  -0.000347
     7  H   -0.001834   0.000231  -0.000343  -0.000036   0.012282   0.029502
     8  H    0.000021   0.000006  -0.005867  -0.000004  -0.000963  -0.001022
     9  H    0.000213  -0.000041  -0.000193   0.000125  -0.001613   0.003522
    10  H   -0.000091   0.000252   0.001325  -0.000019   0.000150   0.000113
    11  H    0.000088   0.000047   0.000283   0.000001  -0.000384  -0.001781
    12  H   -0.000693  -0.000868   0.003767  -0.000026   0.000037  -0.001018
    13  H    0.001713   0.000316  -0.000026   0.000045  -0.000060   0.001519
    14  H    0.000316  -0.000810  -0.001714   0.000025  -0.000008  -0.000023
    15  O   -0.000026  -0.001714   0.855281  -0.000014   0.000035   0.000384
    16  H    0.000045   0.000025  -0.000014   0.000135  -0.000003   0.000020
    17  O   -0.000060  -0.000008   0.000035  -0.000003   0.387043  -0.148532
    18  O    0.001519  -0.000023   0.000384   0.000020  -0.148532   0.746536
    19  H    0.000000   0.000000   0.000002   0.000000   0.005917  -0.007161
             19
     1  C    0.003020
     2  C   -0.001258
     3  C   -0.000623
     4  C    0.000057
     5  O    0.000004
     6  O    0.000002
     7  H    0.002442
     8  H   -0.000101
     9  H   -0.000174
    10  H    0.000011
    11  H   -0.000021
    12  H    0.000003
    13  H    0.000000
    14  H    0.000000
    15  O    0.000002
    16  H    0.000000
    17  O    0.005917
    18  O   -0.007161
    19  H   -0.012287
 Mulliken atomic spin densities:
              1
     1  C    0.143283
     2  C   -0.006707
     3  C    0.010914
     4  C    0.006941
     5  O    0.281315
     6  O    0.000341
     7  H   -0.018571
     8  H   -0.005132
     9  H    0.005086
    10  H    0.003678
    11  H    0.005981
    12  H    0.017413
    13  H    0.000681
    14  H   -0.001730
    15  O    0.701118
    16  H    0.000204
    17  O    0.264065
    18  O    0.601290
    19  H   -0.010170
 Sum of Mulliken atomic spin densities =   2.00000
 Electronic spatial extent (au):  <R**2>=           1760.8798
 Charge=              0.0000 electrons
 Dipole moment (field-independent basis, Debye):
    X=             -3.7863    Y=             -0.1784    Z=              1.9630  Tot=              4.2687
 Quadrupole moment (field-independent basis, Debye-Ang):
   XX=            -52.9877   YY=            -64.1707   ZZ=            -50.4559
   XY=              2.6211   XZ=             -8.7296   YZ=              5.3401
 Traceless Quadrupole moment (field-independent basis, Debye-Ang):
   XX=              2.8838   YY=             -8.2993   ZZ=              5.4155
   XY=              2.6211   XZ=             -8.7296   YZ=              5.3401
 Octapole moment (field-independent basis, Debye-Ang**2):
  XXX=            -60.3369  YYY=            -26.3909  ZZZ=              2.7930  XYY=            -16.6041
  XXY=              9.5057  XXZ=             25.0724  XZZ=             -9.3851  YZZ=              0.9010
  YYZ=             16.5776  XYZ=              6.1742
 Hexadecapole moment (field-independent basis, Debye-Ang**3):
 XXXX=           -978.4596 YYYY=           -891.8794 ZZZZ=           -170.3320 XXXY=             23.4801
 XXXZ=           -127.4745 YYYX=             -9.1286 YYYZ=             60.9467 ZZZX=             -7.5211
 ZZZY=              1.1466 XXYY=           -347.5044 XXZZ=           -184.5675 YYZZ=           -148.3683
 XXYZ=              1.8724 YYXZ=             10.7474 ZZXY=              5.2097
 N-N= 4.833046126601D+02 E-N=-3.312182219733D+03  KE= 7.959025477536D+02
                          Isotropic Fermi Contact Couplings
        Atom                 a.u.       MegaHertz       Gauss      10(-4) cm-1
     1  C(13)              0.03093      17.38419       6.20311       5.79874
     2  C(13)             -0.00833      -4.68220      -1.67072      -1.56181
     3  C(13)             -0.00925      -5.19824      -1.85486      -1.73395
     4  C(13)              0.00186       1.04438       0.37266       0.34837
     5  O(17)              0.08241     -24.97705      -8.91243      -8.33145
     6  O(17)              0.00098      -0.29646      -0.10578      -0.09889
     7  H(1)              -0.00722     -16.14118      -5.75957      -5.38412
     8  H(1)               0.00040       0.88614       0.31620       0.29559
     9  H(1)               0.00187       4.17995       1.49151       1.39428
    10  H(1)               0.00264       5.89754       2.10439       1.96721
    11  H(1)               0.00434       9.70220       3.46199       3.23631
    12  H(1)               0.01076      24.04424       8.57958       8.02030
    13  H(1)              -0.00006      -0.12906      -0.04605      -0.04305
    14  H(1)               0.00050       1.12321       0.40079       0.37466
    15  O(17)              0.10893     -33.01497     -11.78056     -11.01261
    16  H(1)               0.00004       0.09890       0.03529       0.03299
    17  O(17)              0.04273     -12.95084      -4.62118      -4.31993
    18  O(17)              0.10369     -31.42895     -11.21463     -10.48357
    19  H(1)              -0.00473     -10.57469      -3.77331      -3.52734
 --------------------------------------------------------
       Center         ----  Spin Dipole Couplings  ----
                      3XX-RR        3YY-RR        3ZZ-RR
 --------------------------------------------------------
     1   Atom        0.183358     -0.111174     -0.072183
     2   Atom        0.002826      0.003859     -0.006685
     3   Atom        0.015060     -0.009730     -0.005331
     4   Atom        0.000393      0.004263     -0.004656
     5   Atom        0.173073     -0.259769      0.086696
     6   Atom        0.000815      0.003323     -0.004138
     7   Atom        0.122494     -0.053429     -0.069065
     8   Atom        0.015785     -0.014716     -0.001069
     9   Atom        0.000656      0.004312     -0.004968
    10   Atom       -0.001357      0.005800     -0.004443
    11   Atom        0.011213     -0.011028     -0.000186
    12   Atom       -0.000322     -0.004042      0.004364
    13   Atom        0.000571      0.002443     -0.003013
    14   Atom       -0.002010      0.006236     -0.004226
    15   Atom        0.213924     -0.396600      0.182676
    16   Atom       -0.000892      0.003278     -0.002386
    17   Atom       -0.460191      1.132686     -0.672495
    18   Atom       -1.111543      2.356291     -1.244748
    19   Atom       -0.022797     -0.028113      0.050910
 --------------------------------------------------------
                        XY            XZ            YZ
 --------------------------------------------------------
     1   Atom       -0.035244      0.078827     -0.004641
     2   Atom       -0.001348      0.003264      0.003998
     3   Atom       -0.010159      0.009881     -0.006667
     4   Atom       -0.000068     -0.001876     -0.002830
     5   Atom        0.710708     -0.969163     -0.788133
     6   Atom       -0.001784      0.000700      0.000726
     7   Atom       -0.020736      0.034693     -0.000790
     8   Atom       -0.003543     -0.004017     -0.012202
     9   Atom        0.001893      0.002888      0.005307
    10   Atom       -0.003051      0.000162      0.006710
    11   Atom       -0.003846      0.007204      0.005142
    12   Atom       -0.005638      0.004192     -0.009420
    13   Atom        0.000626     -0.000853     -0.004706
    14   Atom        0.000149     -0.000034     -0.004821
    15   Atom        1.342509     -1.722982     -1.359676
    16   Atom        0.000423      0.000248      0.000673
    17   Atom        0.846373     -0.024385      0.017254
    18   Atom        0.903320      0.158080      0.547486
    19   Atom        0.003316     -0.030829      0.007602
 --------------------------------------------------------


 ---------------------------------------------------------------------------------
              Anisotropic Spin Dipole Couplings in Principal Axis System
 ---------------------------------------------------------------------------------

       Atom             a.u.   MegaHertz   Gauss  10(-4) cm-1        Axes

              Baa    -0.1162   -15.598    -5.566    -5.203  0.1644  0.9675 -0.1922
     1 C(13)  Bbb    -0.0933   -12.525    -4.469    -4.178 -0.2398  0.2282  0.9436
              Bcc     0.2096    28.123    10.035     9.381  0.9568 -0.1090  0.2695
 
              Baa    -0.0091    -1.218    -0.434    -0.406 -0.2840 -0.3101  0.9073
     2 C(13)  Bbb     0.0038     0.514     0.183     0.171  0.9457  0.0652  0.3183
              Bcc     0.0052     0.703     0.251     0.235 -0.1579  0.9485  0.2748
 
              Baa    -0.0149    -2.001    -0.714    -0.668  0.1454  0.8761  0.4596
     3 C(13)  Bbb    -0.0085    -1.136    -0.405    -0.379 -0.4855 -0.3416  0.8047
              Bcc     0.0234     3.137     1.119     1.046  0.8620 -0.3402  0.3757
 
              Baa    -0.0060    -0.805    -0.287    -0.268  0.2747  0.2573  0.9265
     4 C(13)  Bbb     0.0009     0.116     0.041     0.039  0.9560 -0.1763 -0.2345
              Bcc     0.0051     0.689     0.246     0.230  0.1030  0.9501 -0.2944
 
              Baa    -0.9081    65.706    23.446    21.917  0.2583  0.6188  0.7419
     5 O(17)  Bbb    -0.7705    55.756    19.895    18.598  0.7377 -0.6222  0.2620
              Bcc     1.6786  -121.463   -43.341   -40.516  0.6237  0.4796 -0.6172
 
              Baa    -0.0044     0.316     0.113     0.105 -0.1776 -0.1333  0.9750
     6 O(17)  Bbb     0.0001    -0.007    -0.003    -0.002  0.8737  0.4346  0.2186
              Bcc     0.0043    -0.308    -0.110    -0.103 -0.4529  0.8907  0.0392
 
              Baa    -0.0755   -40.308   -14.383   -13.445 -0.1850 -0.1386  0.9729
     7 H(1)   Bbb    -0.0553   -29.522   -10.534    -9.847  0.0843  0.9841  0.1563
              Bcc     0.1309    69.830    24.917    23.293  0.9791 -0.1109  0.1703
 
              Baa    -0.0226   -12.032    -4.293    -4.013  0.1319  0.8511  0.5081
     8 H(1)   Bbb     0.0058     3.111     1.110     1.038  0.1518 -0.5239  0.8382
              Bcc     0.0167     8.921     3.183     2.976  0.9796 -0.0334 -0.1983
 
              Baa    -0.0078    -4.168    -1.487    -1.390 -0.2280 -0.3604  0.9045
     9 H(1)   Bbb    -0.0001    -0.063    -0.023    -0.021  0.8956 -0.4421  0.0496
              Bcc     0.0079     4.231     1.510     1.411  0.3820  0.8214  0.4235
 
              Baa    -0.0081    -4.331    -1.545    -1.445 -0.2295 -0.4631  0.8561
    10 H(1)   Bbb    -0.0016    -0.879    -0.314    -0.293  0.9444  0.1067  0.3109
              Bcc     0.0098     5.210     1.859     1.738 -0.2353  0.8799  0.4129
 
              Baa    -0.0147    -7.836    -2.796    -2.614  0.2487  0.8673 -0.4311
    11 H(1)   Bbb    -0.0001    -0.041    -0.015    -0.014 -0.3413  0.4950  0.7991
              Bcc     0.0148     7.877     2.811     2.627  0.9065 -0.0516  0.4191
 
              Baa    -0.0109    -5.793    -2.067    -1.933  0.2756  0.8495  0.4498
    12 H(1)   Bbb    -0.0028    -1.483    -0.529    -0.495  0.8585 -0.0070 -0.5128
              Bcc     0.0136     7.277     2.597     2.427  0.4325 -0.5275  0.7312
 
              Baa    -0.0058    -3.070    -1.095    -1.024  0.0682  0.4928  0.8675
    13 H(1)   Bbb     0.0004     0.215     0.077     0.072  0.9776 -0.2066  0.0406
              Bcc     0.0054     2.855     1.019     0.952  0.1992  0.8452 -0.4959
 
              Baa    -0.0061    -3.259    -1.163    -1.087 -0.0055  0.3638  0.9315
    14 H(1)   Bbb    -0.0020    -1.074    -0.383    -0.358  0.9999 -0.0119  0.0106
              Bcc     0.0081     4.333     1.546     1.445  0.0149  0.9314 -0.3637
 
              Baa    -1.5304   110.741    39.515    36.939  0.5695  0.2605  0.7796
    15 O(17)  Bbb    -1.4667   106.127    37.869    35.400 -0.5427  0.8315  0.1186
              Bcc     2.9971  -216.867   -77.384   -72.339  0.6174  0.4906 -0.6150
 
              Baa    -0.0025    -1.328    -0.474    -0.443 -0.1253 -0.1059  0.9864
    16 H(1)   Bbb    -0.0009    -0.488    -0.174    -0.163  0.9866 -0.1176  0.1127
              Bcc     0.0034     1.816     0.648     0.606  0.1041  0.9874  0.1192
 
              Baa    -0.8313    60.153    21.464    20.065  0.9026 -0.3906  0.1810
    17 O(17)  Bbb    -0.6671    48.273    17.225    16.102 -0.1673  0.0692  0.9835
              Bcc     1.4984  -108.426   -38.689   -36.167  0.3966  0.9180  0.0028
 
              Baa    -1.3535    97.936    34.946    32.668  0.7455 -0.0839 -0.6612
    18 O(17)  Bbb    -1.3070    94.576    33.747    31.547  0.6233 -0.2637  0.7362
              Bcc     2.6605  -192.512   -68.693   -64.215  0.2362  0.9609  0.1443
 
              Baa    -0.0376   -20.049    -7.154    -6.688  0.7848 -0.5313  0.3191
    19 H(1)   Bbb    -0.0249   -13.301    -4.746    -4.437  0.5202  0.8446  0.1268
              Bcc     0.0625    33.350    11.900    11.124 -0.3369  0.0665  0.9392
 

 ---------------------------------------------------------------------------------

 Calling FoFJK, ICntrl=      2127 FMM=F ISym2X=0 I1Cent= 0 IOpClX= 1 NMat=1 NMatS=1 NMatT=0.
 ***** Axes restored to original set *****
 -------------------------------------------------------------------
 Center     Atomic                   Forces (Hartrees/Bohr)
 Number     Number              X              Y              Z
 -------------------------------------------------------------------
      1        6          -0.010962913    0.075678123   -0.032884097
      2        6          -0.003383965    0.006095021    0.024623621
      3        6          -0.018378957    0.037493282   -0.026271257
      4        6           0.018951545    0.012458104    0.007842927
      5        8           0.005924244   -0.035760115    0.024120113
      6        8           0.025424527    0.011056471    0.025362870
      7        1           0.039589536   -0.093703416    0.045760691
      8        1           0.001031056   -0.005494115   -0.003117440
      9        1          -0.003058986   -0.013372352   -0.002224494
     10        1           0.007994788   -0.002710342   -0.005893638
     11        1           0.007847314   -0.010601686    0.008738960
     12        1          -0.008363027   -0.007609272    0.004052851
     13        1           0.001528354   -0.012051340    0.002829409
     14        1          -0.008630722    0.005219715   -0.003824695
     15        8          -0.012406466   -0.017709388   -0.008854301
     16        1          -0.004398676   -0.009895519   -0.031820450
     17        8           0.026504793    0.037065314    0.022218275
     18        8          -0.056677016    0.031751415   -0.028257441
     19        1          -0.008535428   -0.007909899   -0.022401906
 -------------------------------------------------------------------
 Cartesian Forces:  Max     0.093703416 RMS     0.025564196

 GradGradGradGradGradGradGradGradGradGradGradGradGradGradGradGradGradGrad
 Berny optimization.
 Internal  Forces:  Max     0.061865628 RMS     0.017008069
 Search for a local minimum.
 Step number   1 out of a maximum of   96
 All quantities printed in internal units (Hartrees-Bohrs-Radians)
 Mixed Optimization -- RFO/linear search
 Second derivative matrix not updated -- first step.
 ITU=  0
     Eigenvalues ---    0.00230   0.00230   0.00786   0.00937   0.00961
     Eigenvalues ---    0.01640   0.01880   0.02379   0.03013   0.03886
     Eigenvalues ---    0.05193   0.05318   0.05419   0.05498   0.06076
     Eigenvalues ---    0.06211   0.08167   0.08564   0.11501   0.11501
     Eigenvalues ---    0.11983   0.12320   0.13587   0.13819   0.16000
     Eigenvalues ---    0.16000   0.16000   0.17362   0.21856   0.21910
     Eigenvalues ---    0.22193   0.25000   0.31600   0.31610   0.32540
     Eigenvalues ---    0.32860   0.33665   0.33702   0.33769   0.33973
     Eigenvalues ---    0.34117   0.34829   0.44981   0.47720   0.48061
     Eigenvalues ---    0.48930   0.62421   0.625351000.000001000.00000
     Eigenvalues --- 1000.000001000.000001000.000001000.000001000.00000
     Eigenvalues --- 1000.000001000.000001000.000001000.000001000.00000
     Eigenvalues --- 1000.000001000.000001000.000001000.000001000.00000
     Eigenvalues --- 1000.000001000.000001000.000001000.000001000.00000
     Eigenvalues --- 1000.000001000.000001000.000001000.000001000.00000
     Eigenvalues --- 1000.000001000.000001000.000001000.000001000.00000
     Eigenvalues --- 1000.000001000.000001000.000001000.000001000.00000
     Eigenvalues --- 1000.00000
 RFO step:  Lambda=-5.96273753D-02 EMin= 2.30000000D-03
 Linear search not attempted -- first point.
 Maximum step size (   0.300) exceeded in Quadratic search.
    -- Step size scaled by   0.734
 Iteration  1 RMS(Cart)=  0.12388139 RMS(Int)=  0.00615632
 Iteration  2 RMS(Cart)=  0.00786515 RMS(Int)=  0.00068151
 Iteration  3 RMS(Cart)=  0.00004161 RMS(Int)=  0.00068131
 Iteration  4 RMS(Cart)=  0.00000002 RMS(Int)=  0.00068131
 Iteration  1 RMS(Cart)=  0.00000000 RMS(Int)=  0.00000000
 Variable       Old X    -DE/DX   Delta X   Delta X   Delta X     New X
                                 (Linear)    (Quad)   (Total)
    R1        2.81021   0.03672   0.00000   0.06786   0.06786   2.87807
    R2        2.80676   0.02685   0.00000   0.04937   0.04937   2.85614
    R3        2.51464  -0.04975   0.00000   0.00000   0.00000   2.51464
    R4        2.05954  -0.00318   0.00000  -0.00573  -0.00573   2.05381
    R5        4.77276   0.01355   0.00000   0.00000   0.00000   4.77276
    R6        2.83167   0.01652   0.00000   0.03151   0.03151   2.86318
    R7        2.11581  -0.01389   0.00000  -0.02716  -0.02716   2.08866
    R8        2.07836  -0.00226   0.00000  -0.00418  -0.00418   2.07418
    R9        2.61874   0.05288   0.00000   0.07188   0.07188   2.69062
   R10        2.11564  -0.01475   0.00000  -0.02883  -0.02883   2.08681
   R11        2.07133  -0.00752   0.00000  -0.01377  -0.01377   2.05756
   R12        2.65298   0.01874   0.00000   0.02702   0.02702   2.68000
   R13        2.09298  -0.00868   0.00000  -0.01642  -0.01642   2.07656
   R14        2.07898  -0.00513   0.00000  -0.00950  -0.00950   2.06948
   R15        2.48989  -0.01062   0.00000  -0.01139  -0.01139   2.47850
   R16        1.87660  -0.03353   0.00000  -0.04485  -0.04485   1.83175
   R17        2.26495   0.06187   0.00000   0.00000   0.00000   2.26495
   R18        2.49074   0.02761   0.00000   0.02965   0.02965   2.52039
   R19        1.88939  -0.02442   0.00000  -0.03341  -0.03341   1.85598
    A1        2.02462   0.02340   0.00000   0.07520   0.07486   2.09948
    A2        1.79420   0.00111   0.00000   0.02643   0.02528   1.81948
    A3        2.02411  -0.01053   0.00000  -0.04003  -0.03931   1.98480
    A4        1.79672  -0.00545   0.00000  -0.00541  -0.00782   1.78890
    A5        2.01974  -0.01316   0.00000  -0.05589  -0.05549   1.96425
    A6        1.74146   0.00401   0.00000   0.00698   0.00722   1.74868
    A7        1.96113   0.02797   0.00000   0.07663   0.07687   2.03800
    A8        1.91960  -0.00787   0.00000  -0.01661  -0.01626   1.90334
    A9        1.89000  -0.00371   0.00000   0.00311   0.00394   1.89394
   A10        1.86463  -0.00834   0.00000  -0.02406  -0.02452   1.84011
   A11        1.97845  -0.01461   0.00000  -0.04853  -0.04941   1.92904
   A12        1.84618   0.00501   0.00000   0.00466   0.00370   1.84988
   A13        1.89566   0.03936   0.00000   0.10596   0.10571   2.00137
   A14        1.92589  -0.00762   0.00000  -0.01494  -0.01445   1.91144
   A15        1.95209  -0.00047   0.00000   0.01338   0.01406   1.96615
   A16        1.85373  -0.01293   0.00000  -0.03467  -0.03543   1.81829
   A17        1.97999  -0.02321   0.00000  -0.07269  -0.07437   1.90562
   A18        1.85359   0.00275   0.00000  -0.00326  -0.00443   1.84915
   A19        1.87536   0.02190   0.00000   0.06456   0.06423   1.93960
   A20        1.88540   0.00085   0.00000   0.00612   0.00525   1.89066
   A21        1.99520  -0.00879   0.00000  -0.03019  -0.03060   1.96460
   A22        1.84557  -0.00518   0.00000  -0.00261  -0.00345   1.84212
   A23        1.86272  -0.00362   0.00000   0.00198   0.00237   1.86509
   A24        1.99026  -0.00322   0.00000  -0.03141  -0.03189   1.95837
   A25        1.87336   0.04895   0.00000   0.11609   0.11609   1.98945
   A26        1.92701  -0.00288   0.00000  -0.00962  -0.00962   1.91738
   A27        3.03458   0.01154   0.00000   0.00000   0.00000   3.03458
   A28        1.84829   0.00191   0.00000   0.00640   0.00640   1.85469
   A29        2.78886  -0.03155   0.00000  -0.10548  -0.10548   2.68338
    D1        0.36980   0.00364   0.00000   0.04404   0.04493   0.41473
    D2        2.44454   0.00583   0.00000   0.05185   0.05251   2.49704
    D3       -1.82897   0.00551   0.00000   0.05023   0.05038  -1.77858
    D4       -1.57614  -0.00074   0.00000   0.00148   0.00103  -1.57511
    D5        0.49859   0.00145   0.00000   0.00929   0.00861   0.50720
    D6        2.50828   0.00113   0.00000   0.00767   0.00648   2.51476
    D7        2.82693  -0.00197   0.00000  -0.00642  -0.00589   2.82104
    D8       -1.38152   0.00022   0.00000   0.00139   0.00169  -1.37983
    D9        0.62817  -0.00010   0.00000  -0.00023  -0.00044   0.62773
   D10        1.83370  -0.00749   0.00000  -0.06055  -0.06027   1.77343
   D11       -2.42414  -0.00456   0.00000  -0.04939  -0.04937  -2.47351
   D12       -0.36486  -0.00637   0.00000  -0.05472  -0.05556  -0.42042
   D13       -2.50501   0.00074   0.00000   0.00068   0.00107  -2.50394
   D14       -0.47966   0.00368   0.00000   0.01184   0.01197  -0.46769
   D15        1.57962   0.00186   0.00000   0.00651   0.00578   1.58540
   D16       -0.62516  -0.00289   0.00000  -0.01631  -0.01560  -0.64076
   D17        1.40019   0.00005   0.00000  -0.00515  -0.00470   1.39549
   D18       -2.82372  -0.00177   0.00000  -0.01048  -0.01089  -2.83461
   D19       -2.08697   0.01152   0.00000   0.04501   0.04469  -2.04228
   D20        2.08614  -0.01252   0.00000  -0.04637  -0.04624   2.03990
   D21        0.00153   0.00199   0.00000   0.01309   0.01328   0.01481
   D22        2.91744  -0.00077   0.00000   0.00204   0.00272   2.92016
   D23        0.93361  -0.00598   0.00000  -0.02975  -0.02951   0.90410
   D24       -1.30214   0.00437   0.00000   0.03043   0.03045  -1.27170
   D25        0.81074  -0.00223   0.00000  -0.00730  -0.00652   0.80422
   D26       -1.17309  -0.00744   0.00000  -0.03909  -0.03875  -1.21183
   D27        2.87434   0.00291   0.00000   0.02109   0.02121   2.89555
   D28       -1.21580   0.00492   0.00000   0.02879   0.02842  -1.18737
   D29        3.08356  -0.00029   0.00000  -0.00300  -0.00381   3.07975
   D30        0.84780   0.01006   0.00000   0.05718   0.05615   0.90395
   D31       -0.67847  -0.00823   0.00000  -0.05965  -0.05863  -0.73710
   D32       -2.74989  -0.01256   0.00000  -0.07791  -0.07614  -2.82603
   D33        1.50376   0.00470   0.00000  -0.01306  -0.01585   1.48791
   D34        0.30800  -0.00196   0.00000  -0.00204  -0.00184   0.30616
   D35        2.31845   0.00659   0.00000   0.03338   0.03359   2.35204
   D36       -1.83940  -0.00177   0.00000  -0.00359  -0.00399  -1.84340
   D37        1.35428   0.00098   0.00000   0.01163   0.01163   1.36591
   D38       -0.57649  -0.01178   0.00000  -0.10370  -0.10370  -0.68020
         Item               Value     Threshold  Converged?
 Maximum Force            0.052881     0.002500     NO 
 RMS     Force            0.014832     0.001667     NO 
 Maximum Displacement     0.574383     0.010000     NO 
 RMS     Displacement     0.126115     0.006667     NO 
 Predicted change in Energy=-3.187055D-02
 GradGradGradGradGradGradGradGradGradGradGradGradGradGradGradGradGradGrad

                          Input orientation:                          
 ---------------------------------------------------------------------
 Center     Atomic      Atomic             Coordinates (Angstroms)
 Number     Number       Type             X           Y           Z
 ---------------------------------------------------------------------
      1          6           0       -0.722681   -0.159781    0.388664
      2          6           0        0.763108   -0.022660    0.693927
      3          6           0       -1.201220   -1.163929   -0.634578
      4          6           0        1.725979   -0.471845   -0.386224
      5          8           0       -1.741401   -2.361135   -0.084895
      6          8           0        3.045731   -0.032512   -0.109604
      7          1           0       -1.050305    1.001502   -0.172424
      8          1           0       -1.354962   -0.131636    1.272196
      9          1           0        0.997908    1.042467    0.872800
     10          1           0        0.974340   -0.541500    1.637821
     11          1           0       -2.036125   -0.731330   -1.213584
     12          1           0       -0.432952   -1.419337   -1.362619
     13          1           0        1.443148    0.019726   -1.327431
     14          1           0        1.768103   -1.561701   -0.484865
     15          8           0       -1.057276   -2.839450    0.926733
     16          1           0        3.120552    0.217909    0.823816
     17          8           0       -1.439440    3.399274   -0.598996
     18          8           0       -1.423648    2.065799   -0.577919
     19          1           0       -1.378760    3.689940    0.337183
 ---------------------------------------------------------------------
                    Distance matrix (angstroms):
                    1          2          3          4          5
     1  C    0.000000
     2  C    1.523009   0.000000
     3  C    1.511402   2.631730   0.000000
     4  C    2.587232   1.515128   3.018138   0.000000
     5  O    2.471438   3.513914   1.423815   3.960169   0.000000
     6  O    3.803340   2.419944   4.426319   1.418195   5.323507
     7  H    1.330690   2.255646   2.219335   3.150272   3.434035
     8  H    1.086831   2.198293   2.173718   3.515437   2.638503
     9  H    2.154115   1.105270   3.460713   2.099612   4.472750
    10  H    2.141490   1.097610   3.206910   2.160224   3.695141
    11  H    2.149187   3.460711   1.104290   3.860737   2.004262
[...]
    13  H    0.484400  -0.037764  -0.000047   0.008133  -0.012536   0.000770
    14  H   -0.037764   0.541884   0.000212  -0.009592   0.001639  -0.001154
    15  O   -0.000047   0.000212   8.004335  -0.000370   0.000088  -0.000676
    16  H    0.008133  -0.009592  -0.000370   0.537242   0.000098   0.000090
    17  O   -0.012536   0.001639   0.000088   0.000098   7.860794   0.121753
    18  O    0.000770  -0.001154  -0.000676   0.000090   0.121753   8.220921
    19  H    0.000586  -0.000056   0.000002   0.000011   0.213088  -0.035923
             19
     1  C    0.000729
     2  C    0.016365
     3  C    0.005528
     4  C   -0.016039
     5  O   -0.000013
     6  O    0.000028
     7  H    0.001967
     8  H    0.000058
     9  H   -0.001713
    10  H   -0.000120
    11  H   -0.000037
    12  H   -0.000024
    13  H    0.000586
    14  H   -0.000056
    15  O    0.000002
    16  H    0.000011
    17  O    0.213088
    18  O   -0.035923
    19  H    0.563194
 Mulliken atomic charges:
              1
     1  C   -0.494804
     2  C   -0.387368
     3  C   -0.280910
     4  C   -0.164008
     5  O    0.026933
     6  O   -0.374067
     7  H    0.424994
     8  H    0.201924
     9  H    0.218837
    10  H    0.201580
    11  H    0.178994
    12  H    0.205468
    13  H    0.192371
    14  H    0.160925
    15  O   -0.160371
    16  H    0.250078
    17  O   -0.155510
    18  O   -0.297434
    19  H    0.252369
 Sum of Mulliken atomic charges =   0.00000
 Mulliken charges with hydrogens summed into heavy atoms:
              1
     1  C   -0.292880
     2  C    0.033050
     3  C    0.103552
     4  C    0.189288
     5  O    0.026933
     6  O   -0.123990
    15  O   -0.160371
    17  O    0.096859
    18  O    0.127560
 Sum of Mulliken charges with hydrogens summed into heavy atoms =   0.00000
          Atomic-Atomic Spin Densities.
              1          2          3          4          5          6
     1  C    0.536010   0.071307  -0.007456   0.000883  -0.026966   0.000696
     2  C    0.071307  -0.037744  -0.066656  -0.004770  -0.009939  -0.000585
     3  C   -0.007456  -0.066656   0.004006   0.005775   0.017112   0.000590
     4  C    0.000883  -0.004770   0.005775  -0.001721   0.000729  -0.000511
     5  O   -0.026966  -0.009939   0.017112   0.000729   0.521668  -0.000034
     6  O    0.000696  -0.000585   0.000590  -0.000511  -0.000034  -0.000863
     7  H    0.097983  -0.028812   0.013008   0.004944   0.000119   0.000018
     8  H   -0.009846   0.005517   0.001076  -0.000127  -0.000946   0.000003
     9  H   -0.016617   0.015707  -0.002320   0.002677  -0.000539  -0.000162
    10  H   -0.005119   0.007742   0.003988  -0.005547   0.004619  -0.000164
    11  H   -0.007694   0.000459   0.004519   0.000329  -0.002556   0.000003
    12  H   -0.019815   0.003924   0.016509  -0.000154  -0.003975   0.000075
    13  H    0.001471  -0.000486   0.000072  -0.000968  -0.000067   0.000048
    14  H   -0.002487   0.001928  -0.000943   0.001889  -0.000477   0.000348
    15  O    0.006026   0.004214  -0.000208   0.003807  -0.176782   0.000241
    16  H   -0.000768  -0.000137   0.000209   0.000914   0.000031   0.000418
    17  O    0.049663  -0.017350  -0.001060  -0.003532   0.000425   0.000069
    18  O   -0.142207   0.034649  -0.003442   0.004698  -0.001577  -0.000048
    19  H   -0.001162  -0.000913   0.000091   0.000837  -0.000005  -0.000006
              7          8          9         10         11         12
     1  C    0.097983  -0.009846  -0.016617  -0.005119  -0.007694  -0.019815
     2  C   -0.028812   0.005517   0.015707   0.007742   0.000459   0.003924
     3  C    0.013008   0.001076  -0.002320   0.003988   0.004519   0.016509
     4  C    0.004944  -0.000127   0.002677  -0.005547   0.000329  -0.000154
     5  O    0.000119  -0.000946  -0.000539   0.004619  -0.002556  -0.003975
     6  O    0.000018   0.000003  -0.000162  -0.000164   0.000003   0.000075
     7  H   -0.079459  -0.001012  -0.001785   0.000897  -0.001957  -0.001690
     8  H   -0.001012  -0.025066   0.001075  -0.001511   0.001061   0.000234
     9  H   -0.001785   0.001075   0.011711  -0.004715   0.000054   0.000004
    10  H    0.000897  -0.001511  -0.004715   0.032237  -0.000132  -0.000180
    11  H   -0.001957   0.001061   0.000054  -0.000132   0.004936   0.001574
    12  H   -0.001690   0.000234   0.000004  -0.000180   0.001574   0.007966
    13  H   -0.001540   0.000034  -0.000066  -0.000182   0.000015   0.000246
    14  H   -0.000416   0.000077   0.000142  -0.000470   0.000024  -0.000175
    15  O   -0.000536   0.000542   0.000690  -0.005159   0.000746   0.002534
    16  H    0.000006   0.000002  -0.000136   0.000138   0.000000  -0.000001
    17  O    0.035494  -0.002148  -0.005841   0.001382  -0.000431  -0.000482
    18  O   -0.048462   0.005815   0.005502  -0.002065   0.002571   0.002291
    19  H   -0.000232   0.000034   0.000285  -0.000018   0.000005   0.000005
             13         14         15         16         17         18
     1  C    0.001471  -0.002487   0.006026  -0.000768   0.049663  -0.142207
     2  C   -0.000486   0.001928   0.004214  -0.000137  -0.017350   0.034649
     3  C    0.000072  -0.000943  -0.000208   0.000209  -0.001060  -0.003442
     4  C   -0.000968   0.001889   0.003807   0.000914  -0.003532   0.004698
     5  O   -0.000067  -0.000477  -0.176782   0.000031   0.000425  -0.001577
     6  O    0.000048   0.000348   0.000241   0.000418   0.000069  -0.000048
     7  H   -0.001540  -0.000416  -0.000536   0.000006   0.035494  -0.048462
     8  H    0.000034   0.000077   0.000542   0.000002  -0.002148   0.005815
     9  H   -0.000066   0.000142   0.000690  -0.000136  -0.005841   0.005502
    10  H   -0.000182  -0.000470  -0.005159   0.000138   0.001382  -0.002065
    11  H    0.000015   0.000024   0.000746   0.000000  -0.000431   0.002571
    12  H    0.000246  -0.000175   0.002534  -0.000001  -0.000482   0.002291
    13  H    0.000443   0.000051  -0.000012   0.000076  -0.000244   0.001098
    14  H    0.000051  -0.001757   0.000550  -0.000081  -0.000250   0.000541
    15  O   -0.000012   0.000550   0.862341  -0.000149  -0.000275   0.000982
    16  H    0.000076  -0.000081  -0.000149  -0.000612  -0.000003  -0.000009
    17  O   -0.000244  -0.000250  -0.000275  -0.000003   0.131838  -0.097485
    18  O    0.001098   0.000541   0.000982  -0.000009  -0.097485   0.626445
    19  H    0.000004   0.000003   0.000002  -0.000001  -0.000822   0.003378
             19
     1  C   -0.001162
     2  C   -0.000913
     3  C    0.000091
     4  C    0.000837
     5  O   -0.000005
     6  O   -0.000006
     7  H   -0.000232
     8  H    0.000034
     9  H    0.000285
    10  H   -0.000018
    11  H    0.000005
    12  H    0.000005
    13  H    0.000004
    14  H    0.000003
    15  O    0.000002
    16  H   -0.000001
    17  O   -0.000822
    18  O    0.003378
    19  H   -0.004206
 Mulliken atomic spin densities:
              1
     1  C    0.523900
     2  C   -0.021946
     3  C   -0.015131
     4  C    0.010151
     5  O    0.320840
     6  O    0.000137
     7  H   -0.013435
     8  H   -0.025184
     9  H    0.005666
    10  H    0.025741
    11  H    0.003525
    12  H    0.008892
    13  H   -0.000008
    14  H   -0.001503
    15  O    0.699552
    16  H   -0.000103
    17  O    0.088949
    18  O    0.392674
    19  H   -0.002719
 Sum of Mulliken atomic spin densities =   2.00000
 Electronic spatial extent (au):  <R**2>=           1600.0886
 Charge=              0.0000 electrons
 Dipole moment (field-independent basis, Debye):
    X=             -0.4924    Y=             -1.9142    Z=              1.8018  Tot=              2.6745
 Quadrupole moment (field-independent basis, Debye-Ang):
   XX=            -61.9634   YY=            -55.1766   ZZ=            -51.9448
   XY=              4.5060   XZ=             -6.7640   YZ=             -0.1929
 Traceless Quadrupole moment (field-independent basis, Debye-Ang):
   XX=             -5.6018   YY=              1.1850   ZZ=              4.4168
   XY=              4.5060   XZ=             -6.7640   YZ=             -0.1929
 Octapole moment (field-independent basis, Debye-Ang**2):
  XXX=            -49.8945  YYY=             -4.2326  ZZZ=              0.1196  XYY=             20.2404
  XXY=            -11.5021  XXZ=             15.5128  XZZ=             -2.5755  YZZ=             -3.0345
  YYZ=              7.7379  XYZ=              8.1068
 Hexadecapole moment (field-independent basis, Debye-Ang**3):
 XXXX=          -1057.5848 YYYY=           -663.0130 ZZZZ=           -147.9666 XXXY=             46.1267
 XXXZ=            -67.6681 YYYX=             51.9771 YYYZ=             20.9378 ZZZX=             -7.3134
 ZZZY=             -2.8730 XXYY=           -300.2481 XXZZ=           -181.9968 YYZZ=           -140.2282
 XXYZ=            -18.1499 YYXZ=            -11.8442 ZZXY=              6.6541
 N-N= 4.896724666727D+02 E-N=-3.330910844189D+03  KE= 7.957435264080D+02
                          Isotropic Fermi Contact Couplings
        Atom                 a.u.       MegaHertz       Gauss      10(-4) cm-1
     1  C(13)              0.15024      84.45177      30.13449      28.17008
     2  C(13)             -0.00773      -4.34686      -1.55107      -1.44996
     3  C(13)             -0.01896     -10.65535      -3.80209      -3.55424
     4  C(13)              0.00328       1.84123       0.65700       0.61417
     5  O(17)              0.10033     -30.41061     -10.85126     -10.14389
     6  O(17)             -0.00084       0.25570       0.09124       0.08529
     7  H(1)              -0.03199     -71.50289     -25.51401     -23.85080
     8  H(1)              -0.00560     -12.52029      -4.46755      -4.17632
     9  H(1)               0.00580      12.96813       4.62735       4.32570
    10  H(1)               0.01952      43.62005      15.56472      14.55008
    11  H(1)               0.00151       3.36585       1.20102       1.12273
    12  H(1)               0.00459      10.26525       3.66290       3.42412
    13  H(1)              -0.00012      -0.27055      -0.09654      -0.09025
    14  H(1)              -0.00003      -0.07323      -0.02613      -0.02443
    15  O(17)              0.10680     -32.36996     -11.55041     -10.79746
    16  H(1)              -0.00002      -0.05427      -0.01936      -0.01810
    17  O(17)              0.01498      -4.54147      -1.62051      -1.51487
    18  O(17)              0.09094     -27.56301      -9.83517      -9.19403
    19  H(1)              -0.00174      -3.88596      -1.38661      -1.29622
 --------------------------------------------------------
       Center         ----  Spin Dipole Couplings  ----
                      3XX-RR        3YY-RR        3ZZ-RR
 --------------------------------------------------------
     1   Atom        0.388871     -0.215447     -0.173423
     2   Atom        0.017614      0.002053     -0.019667
     3   Atom        0.009237     -0.006724     -0.002514
     4   Atom       -0.002844      0.004899     -0.002055
     5   Atom       -0.373331     -0.975264      1.348595
     6   Atom        0.003114      0.000527     -0.003642
     7   Atom        0.158401     -0.090098     -0.068304
     8   Atom       -0.009142     -0.015438      0.024580
     9   Atom        0.000765      0.001684     -0.002449
    10   Atom        0.005653      0.001220     -0.006872
    11   Atom        0.004988      0.003199     -0.008187
    12   Atom        0.008652     -0.013656      0.005004
    13   Atom       -0.000034      0.004166     -0.004131
    14   Atom        0.002905      0.000357     -0.003262
    15   Atom       -0.996231     -1.490401      2.486631
    16   Atom       -0.000941      0.004290     -0.003349
    17   Atom        0.268630     -0.229004     -0.039626
    18   Atom        0.693847     -0.505986     -0.187860
    19   Atom        0.006310     -0.016099      0.009789
 --------------------------------------------------------
                        XY            XZ            YZ
 --------------------------------------------------------
     1   Atom        0.270082      0.299695      0.128376
     2   Atom        0.015170      0.005456      0.008885
     3   Atom        0.004508     -0.004964      0.008861
     4   Atom       -0.002593      0.001103     -0.009202
     5   Atom       -0.097812     -0.769288      0.275799
     6   Atom        0.000895     -0.002910     -0.000100
     7   Atom        0.088324      0.119023      0.039896
     8   Atom        0.011325      0.008428     -0.035638
     9   Atom       -0.005525     -0.005250      0.008875
    10   Atom       -0.001757     -0.003788      0.009419
    11   Atom        0.005142     -0.000844      0.011060
    12   Atom        0.007145      0.005545      0.004433
    13   Atom       -0.001228      0.002932     -0.006021
    14   Atom       -0.003545      0.003854     -0.007018
    15   Atom       -0.155540     -1.323667      0.469419
    16   Atom       -0.002673      0.000285     -0.000561
    17   Atom        0.205774      0.319252      0.082886
    18   Atom        0.958181      1.223631      0.670746
    19   Atom        0.002880     -0.016099     -0.004823
 --------------------------------------------------------


 ---------------------------------------------------------------------------------
              Anisotropic Spin Dipole Couplings in Principal Axis System
 ---------------------------------------------------------------------------------

       Atom             a.u.   MegaHertz   Gauss  10(-4) cm-1        Axes

              Baa    -0.3260   -43.747   -15.610   -14.592 -0.1229  0.8650 -0.4865
     1 C(13)  Bbb    -0.2989   -40.115   -14.314   -13.381 -0.4899  0.3734  0.7878
              Bcc     0.6249    83.861    29.924    27.973  0.8631  0.3351  0.3779
 
              Baa    -0.0228    -3.065    -1.094    -1.022 -0.0012 -0.3355  0.9420
     2 C(13)  Bbb    -0.0059    -0.785    -0.280    -0.262 -0.5663  0.7767  0.2759
              Bcc     0.0287     3.850     1.374     1.284  0.8242  0.5331  0.1909
 
              Baa    -0.0155    -2.080    -0.742    -0.694 -0.2589  0.7489 -0.6100
     3 C(13)  Bbb     0.0043     0.580     0.207     0.194  0.1480  0.6548  0.7411
              Bcc     0.0112     1.500     0.535     0.500  0.9545  0.1016 -0.2804
 
              Baa    -0.0085    -1.137    -0.406    -0.379  0.1074  0.5776  0.8092
     4 C(13)  Bbb    -0.0033    -0.443    -0.158    -0.148  0.9767  0.0907 -0.1943
              Bcc     0.0118     1.581     0.564     0.527 -0.1856  0.8113 -0.5544
 
              Baa    -1.0077    72.917    26.018    24.322  0.0201  0.9938 -0.1097
     5 O(17)  Bbb    -0.6668    48.250    17.217    16.094  0.9350  0.0202  0.3541
              Bcc     1.6745  -121.167   -43.235   -40.417 -0.3541  0.1097  0.9287
 
              Baa    -0.0047     0.342     0.122     0.114  0.3516 -0.0421  0.9352
     6 O(17)  Bbb     0.0003    -0.024    -0.009    -0.008 -0.1925  0.9744  0.1162
              Bcc     0.0044    -0.318    -0.113    -0.106  0.9161  0.2208 -0.3345
 
              Baa    -0.1208   -64.474   -23.006   -21.506 -0.1335 -0.6200  0.7732
     7 H(1)   Bbb    -0.1172   -62.526   -22.311   -20.856 -0.4541  0.7317  0.5084
              Bcc     0.2380   127.000    45.317    42.363  0.8809  0.2832  0.3792
 
              Baa    -0.0423   -22.543    -8.044    -7.519 -0.3905  0.7910  0.4710
     8 H(1)   Bbb    -0.0032    -1.727    -0.616    -0.576  0.9201  0.3518  0.1720
              Bcc     0.0455    24.270     8.660     8.096  0.0297 -0.5006  0.8652
 
              Baa    -0.0096    -5.100    -1.820    -1.701  0.0938 -0.5881  0.8033
     9 H(1)   Bbb    -0.0038    -2.010    -0.717    -0.670  0.8504  0.4670  0.2426
              Bcc     0.0133     7.110     2.537     2.372 -0.5178  0.6604  0.5439
 
              Baa    -0.0133    -7.118    -2.540    -2.374  0.1186 -0.5292  0.8402
    10 H(1)   Bbb     0.0031     1.633     0.583     0.545  0.7713  0.5820  0.2577
              Bcc     0.0103     5.484     1.957     1.829  0.6253 -0.6175 -0.4772
 
              Baa    -0.0155    -8.277    -2.954    -2.761  0.1684 -0.5354  0.8276
    11 H(1)   Bbb     0.0033     1.751     0.625     0.584  0.8494 -0.3473 -0.3974
              Bcc     0.0122     6.527     2.329     2.177  0.5002  0.7699  0.3963
 
              Baa    -0.0161    -8.601    -3.069    -2.869 -0.2461  0.9595 -0.1367
    12 H(1)   Bbb     0.0010     0.538     0.192     0.179 -0.5691 -0.0289  0.8217
              Bcc     0.0151     8.063     2.877     2.690  0.7845  0.2801  0.5532
 
              Baa    -0.0078    -4.187    -1.494    -1.397 -0.2631  0.4107  0.8730
    13 H(1)   Bbb    -0.0002    -0.131    -0.047    -0.044  0.9178  0.3855  0.0952
              Bcc     0.0081     4.318     1.541     1.440 -0.2975  0.8263 -0.4783
 
              Baa    -0.0088    -4.683    -1.671    -1.562 -0.0884  0.5850  0.8062
    14 H(1)   Bbb    -0.0009    -0.507    -0.181    -0.169  0.7909  0.5333 -0.3003
              Bcc     0.0097     5.190     1.852     1.731 -0.6056  0.6110 -0.5099
 
              Baa    -1.5451   111.800    39.893    37.293  0.0124  0.9937 -0.1116
    15 O(17)  Bbb    -1.4421   104.352    37.235    34.808  0.9482  0.0238  0.3166
              Bcc     2.9872  -216.152   -77.128   -72.101 -0.3173  0.1098  0.9420
 
              Baa    -0.0034    -1.811    -0.646    -0.604 -0.0591  0.0522  0.9969
    16 H(1)   Bbb    -0.0021    -1.101    -0.393    -0.367  0.9201  0.3901  0.0342
              Bcc     0.0055     2.913     1.039     0.972 -0.3871  0.9193 -0.0711
 
              Baa    -0.3116    22.544     8.044     7.520 -0.4499  0.8518  0.2685
    17 O(17)  Bbb    -0.2203    15.940     5.688     5.317 -0.3508 -0.4450  0.8240
              Bcc     0.5318   -38.484   -13.732   -12.837  0.8213  0.2765  0.4989
 
              Baa    -1.0479    75.825    27.056    25.292 -0.6159  0.1267  0.7775
    18 O(17)  Bbb    -1.0343    74.840    26.705    24.964 -0.2539  0.9024 -0.3481
              Bcc     2.0822  -150.665   -53.761   -50.256  0.7458  0.4118  0.5237
 
              Baa    -0.0170    -9.054    -3.231    -3.020  0.0016  0.9840  0.1783
    19 H(1)   Bbb    -0.0080    -4.276    -1.526    -1.426  0.7522 -0.1187  0.6481
              Bcc     0.0250    13.330     4.756     4.446 -0.6589 -0.1331  0.7404
 

 ---------------------------------------------------------------------------------

 1\1\GINC-COMPUTE-3-044\FOpt\UM062X\6-311+G(2df,2p)\C4H10O5(3)\ROOT\12-
 Aug-2017\0\\# m062x/6-311+g(2df,2p) Opt=(ModRedun,Loose) Int(Grid=SG1)
 \\[O]O+[O]OCCCCO_OO+[O]OC[CH]CCO\\0,3\C,-0.9577543244,-0.0787016663,0.
 4117174316\C,0.4778779313,0.0793267694,0.8413808479\C,-1.343075587,-1.
 2303072391,-0.4718928441\C,1.492021337,0.0214446682,-0.2961022996\O,-1
 .3021566437,-2.4944411949,0.2468545404\O,2.8024159659,0.2649795916,0.1
 726217793\H,-1.1802290085,0.9585156794,-0.3916624406\H,-1.6786949214,0
 .0949845355,1.2082826651\H,0.5985800639,1.0333397357,1.357539107\H,0.7
 153444429,-0.7047991138,1.5716027079\H,-2.3800461974,-1.1527194009,-0.
 7929768029\H,-0.694957895,-1.3357353317,-1.3389627282\H,1.2768764952,0
 .8044623504,-1.023049869\H,1.4377261379,-0.9453588633,-0.8026551077\O,
 -0.0874950994,-2.8775396231,0.4767486915\H,3.083535926,-0.4814158765,0
 .7059358883\O,-0.2699164824,2.7640876537,-0.675017593\O,-1.2536479386,
 1.9102667226,-1.1164515531\H,-0.7363042023,3.3694106032,-0.0839124208\
 \Version=EM64L-G09RevB.01\State=3-A\HF=-534.2099501\S2=2.016352\S2-1=0
 .\S2A=2.000143\RMSD=8.309e-09\RMSF=8.666e-04\Dipole=-0.8259673,0.41298
 26,0.5043794\Quadrupole=-0.2523388,-1.092687,1.3450258,-4.6020941,0.95
 66184,5.230459\PG=C01 [X(C4H10O5)]\\@


 Change starts when someone sees the next step.
                            -- William Drayton
 Job cpu time:  1 days 18 hours 38 minutes 35.7 seconds.
 File lengths (MBytes):  RWF=   1312 Int=      0 D2E=      0 Chk=     32 Scr=     32
 Normal termination of Gaussian 09 at Sat Aug 12 00:57:43 2017.
