 Entering Gaussian System, Link 0=/shared/apps/gaussian/G09_LINUX_LINDA/g09/g09
 Input=/gss_gpfs_scratch/harms.n/QMscratch/[O]O+[O]O_OO+[O][O]RxnC.gjf
 Output=/gss_gpfs_scratch/harms.n/QMscratch/[O]O+[O]O_OO+[O][O]RxnC.log
 Initial command:
 /shared/apps/gaussian/G09_LINUX_LINDA/g09/l1.exe /home/harms.n/Code/OOHabstraction/Biofuels/results/Gau-45525.inp -scrdir=/home/harms.n/Code/OOHabstraction/Biofuels/results/
 Entering Link 1 = /shared/apps/gaussian/G09_LINUX_LINDA/g09/l1.exe PID=     45526.
  
 Copyright (c) 1988,1990,1992,1993,1995,1998,2003,2009,2010,
            Gaussian, Inc.  All Rights Reserved.
  
 This is part of the Gaussian(R) 09 program.  It is based on
 the Gaussian(R) 03 system (copyright 2003, Gaussian, Inc.),
 the Gaussian(R) 98 system (copyright 1998, Gaussian, Inc.),
 the Gaussian(R) 94 system (copyright 1995, Gaussian, Inc.),
 the Gaussian 92(TM) system (copyright 1992, Gaussian, Inc.),
 the Gaussian 90(TM) system (copyright 1990, Gaussian, Inc.),
 the Gaussian 88(TM) system (copyright 1988, Gaussian, Inc.),
 the Gaussian 86(TM) system (copyright 1986, Carnegie Mellon
 University), and the Gaussian 82(TM) system (copyright 1983,
 Carnegie Mellon University). Gaussian is a federally registered
 trademark of Gaussian, Inc.
  
 This software contains proprietary and confidential information,
 including trade secrets, belonging to Gaussian, Inc.
  
 This software is provided under written license and may be
 used, copied, transmitted, or stored only in accord with that
 written license.
  
 The following legend is applicable only to US Government
 contracts under FAR:
  
                    RESTRICTED RIGHTS LEGEND
  
 Use, reproduction and disclosure by the US Government is
 subject to restrictions as set forth in subparagraphs (a)
 and (c) of the Commercial Computer Software - Restricted
 Rights clause in FAR 52.227-19.
  
 Gaussian, Inc.
 340 Quinnipiac St., Bldg. 40, Wallingford CT 06492
  
  
 ---------------------------------------------------------------
 Warning -- This program may not be used in any manner that
 competes with the business of Gaussian, Inc. or will provide
 assistance to any competitor of Gaussian, Inc.  The licensee
 of this program is prohibited from giving any competitor of
 Gaussian, Inc. access to this program.  By using this program,
 the user acknowledges that Gaussian, Inc. is engaged in the
 business of creating and licensing software in the field of
 computational chemistry and represents and warrants to the
 licensee that it is not a competitor of Gaussian, Inc. and that
 it will not use this program in any manner prohibited above.
 ---------------------------------------------------------------
  

 Cite this work as:
 Gaussian 09, Revision B.01,
 M. J. Frisch, G. W. Trucks, H. B. Schlegel, G. E. Scuseria, 
 M. A. Robb, J. R. Cheeseman, G. Scalmani, V. Barone, B. Mennucci, 
 G. A. Petersson, H. Nakatsuji, M. Caricato, X. Li, H. P. Hratchian, 
 A. F. Izmaylov, J. Bloino, G. Zheng, J. L. Sonnenberg, M. Hada, 
 M. Ehara, K. Toyota, R. Fukuda, J. Hasegawa, M. Ishida, T. Nakajima, 
 Y. Honda, O. Kitao, H. Nakai, T. Vreven, J. A. Montgomery, Jr., 
 J. E. Peralta, F. Ogliaro, M. Bearpark, J. J. Heyd, E. Brothers, 
 K. N. Kudin, V. N. Staroverov, T. Keith, R. Kobayashi, J. Normand, 
 K. Raghavachari, A. Rendell, J. C. Burant, S. S. Iyengar, J. Tomasi, 
 M. Cossi, N. Rega, J. M. Millam, M. Klene, J. E. Knox, J. B. Cross, 
 V. Bakken, C. Adamo, J. Jaramillo, R. Gomperts, R. E. Stratmann, 
 O. Yazyev, A. J. Austin, R. Cammi, C. Pomelli, J. W. Ochterski, 
 R. L. Martin, K. Morokuma, V. G. Zakrzewski, G. A. Voth, 
 P. Salvador, J. J. Dannenberg, S. Dapprich, A. D. Daniels, 
 O. Farkas, J. B. Foresman, J. V. Ortiz, J. Cioslowski, 
 and D. J. Fox, Gaussian, Inc., Wallingford CT, 2010.
 
 ******************************************
 Gaussian 09:  EM64L-G09RevB.01 12-Aug-2010
                11-May-2017 
 ******************************************
 %nprocshared=20
 Will use up to   20 processors via shared memory.
 %mem=5GB
 ---------------------------------------------------
 # m062x/6-311+g(2df,2p) opt=(ts,calcfc,noeigentest)
 ---------------------------------------------------
 1/5=1,10=4,11=1,14=-1,18=20,26=3,38=1/1,3;
 2/9=110,12=2,17=6,18=5,40=1/2;
 3/5=4,6=6,7=214,11=2,16=1,25=1,30=1,71=2,74=-55/1,2,3;
 4//1;
 5/5=2,38=5/2;
 8/6=4,10=90,11=11/1;
 11/6=1,8=1,9=11,15=111,16=1/1,2,10;
 10/6=1,7=6,13=1/2;
 6/7=2,8=2,9=2,10=2,28=1/1;
 7/10=1,18=20,25=1/1,2,3,16;
 1/5=1,10=4,11=1,14=-1,18=20/3(2);
 2/9=110/2;
 99//99;
 2/9=110/2;
 3/5=4,6=6,7=214,11=2,16=1,25=1,30=1,71=1,74=-55/1,2,3;
 4/5=5,16=3/1;
 5/5=2,38=5/2;
 7//1,2,3,16;
 1/5=1,11=1,14=-1,18=20/3(-5);
 2/9=110/2;
 6/7=2,8=2,9=2,10=2,19=2,28=1/1;
 99/9=1/99;
 -------------------
 [O]O+[O]O_OO+[O][O]
 -------------------
 Symbolic Z-matrix:
 Charge =  0 Multiplicity = 3
 O                     1.20842   0.57485  -0.00795 
 O                     1.3177   -0.63255   0.01353 
 H                     0.04497   0.89338  -0.00918 
 O                    -1.21334  -0.65237  -0.13063 
 O                    -1.14627   0.72057   0.03079 
 H                    -1.37703  -0.97739   0.76326 
 

 GradGradGradGradGradGradGradGradGradGradGradGradGradGradGradGradGradGrad
 Berny optimization.
 Initialization pass.
                           ----------------------------
                           !    Initial Parameters    !
                           ! (Angstroms and Degrees)  !
 --------------------------                            --------------------------
 ! Name  Definition              Value          Derivative Info.                !
 --------------------------------------------------------------------------------
 ! R1    R(1,2)                  1.2125         calculate D2E/DX2 analytically  !
 ! R2    R(1,3)                  1.2063         calculate D2E/DX2 analytically  !
 ! R3    R(3,5)                  1.2044         calculate D2E/DX2 analytically  !
 ! R4    R(4,5)                  1.384          calculate D2E/DX2 analytically  !
 ! R5    R(4,6)                  0.9651         calculate D2E/DX2 analytically  !
 ! A1    A(2,1,3)              110.4809         calculate D2E/DX2 analytically  !
 ! A2    A(1,3,5)              156.3573         calculate D2E/DX2 analytically  !
 ! A3    A(5,4,6)              103.5485         calculate D2E/DX2 analytically  !
 ! A4    A(3,5,4)              100.7431         calculate D2E/DX2 analytically  !
 ! D1    D(2,1,3,5)              3.8202         calculate D2E/DX2 analytically  !
 ! D2    D(1,3,5,4)            -11.6818         calculate D2E/DX2 analytically  !
 ! D3    D(6,4,5,3)            102.2796         calculate D2E/DX2 analytically  !
 --------------------------------------------------------------------------------
 Trust Radius=3.00D-01 FncErr=1.00D-07 GrdErr=1.00D-06
 Number of steps in this run=     22 maximum allowed number of steps=    100.
 Search for a saddle point of order  1.
 GradGradGradGradGradGradGradGradGradGradGradGradGradGradGradGradGradGrad

                          Input orientation:                          
 ---------------------------------------------------------------------
 Center     Atomic      Atomic             Coordinates (Angstroms)
 Number     Number       Type             X           Y           Z
 ---------------------------------------------------------------------
      1          8           0        1.208416    0.574852   -0.007946
      2          8           0        1.317700   -0.632548    0.013527
      3          1           0        0.044969    0.893381   -0.009183
      4          8           0       -1.213344   -0.652373   -0.130627
      5          8           0       -1.146265    0.720570    0.030785
      6          1           0       -1.377030   -0.977390    0.763263
 ---------------------------------------------------------------------
                    Distance matrix (angstroms):
                    1          2          3          4          5
     1  O    0.000000
     2  O    1.212526   0.000000
     3  H    1.206263   1.987164   0.000000
     4  O    2.717729   2.535223   1.996861   0.000000
     5  O    2.359503   2.811112   1.204367   1.384025   0.000000
     6  H    3.112676   2.818260   2.473568   0.965126   1.863557
                    6
     6  H    0.000000
 Stoichiometry    H2O4(3)
 Framework group  C1[X(H2O4)]
 Deg. of freedom    12
 Full point group                 C1      NOp   1
 Largest Abelian subgroup         C1      NOp   1
 Largest concise Abelian subgroup C1      NOp   1
                         Standard orientation:                         
 ---------------------------------------------------------------------
 Center     Atomic      Atomic             Coordinates (Angstroms)
 Number     Number       Type             X           Y           Z
 ---------------------------------------------------------------------
      1          8           0        1.208416    0.574852   -0.007946
      2          8           0        1.317700   -0.632548    0.013527
      3          1           0        0.044969    0.893381   -0.009183
      4          8           0       -1.213344   -0.652373   -0.130627
      5          8           0       -1.146265    0.720570    0.030785
      6          1           0       -1.377030   -0.977390    0.763263
 ---------------------------------------------------------------------
 Rotational constants (GHZ):     17.1916558      5.1330073      4.0053125
 Standard basis: 6-311+G(2df,2p) (5D, 7F)
 There are   154 symmetry adapted basis functions of A   symmetry.
 Integral buffers will be    131072 words long.
 Raffenetti 2 integral format.
 Two-electron integral symmetry is turned on.
   154 basis functions,   230 primitive gaussians,   174 cartesian basis functions
    18 alpha electrons       16 beta electrons
       nuclear repulsion energy       125.6322259787 Hartrees.
 NAtoms=    6 NActive=    6 NUniq=    6 SFac= 1.00D+00 NAtFMM=   50 NAOKFM=F Big=F
 One-electron integrals computed using PRISM.
 NBasis=   154 RedAO= T  NBF=   154
 NBsUse=   154 1.00D-06 NBFU=   154
 Harris functional with IExCor= 1009 diagonalized for initial guess.
 ExpMin= 8.45D-02 ExpMax= 8.59D+03 ExpMxC= 1.30D+03 IAcc=2 IRadAn=         0 AccDes= 0.00D+00
 HarFok:  IExCor= 1009 AccDes= 0.00D+00 IRadAn=         0 IDoV= 1
 ScaDFX=  1.000000  1.000000  1.000000  1.000000
 FoFCou: FMM=F IPFlag=           0 FMFlag=      100000 FMFlg1=           0
         NFxFlg=           0 DoJE=T BraDBF=F KetDBF=T FulRan=T
         Omega=  0.000000  0.000000  1.000000  0.000000  0.000000 ICntrl=     500 IOpCl=  0
         NMat0=    1 NMatS0=    1 NMatT0=    0 NMatD0=    1 NMtDS0=    0 NMtDT0=    0
         I1Cent=           4 NGrid=           0.
 Petite list used in FoFCou.
 Initial guess orbital symmetries:
 Alpha Orbitals:
       Occupied  (A) (A) (A) (A) (A) (A) (A) (A) (A) (A) (A) (A)
                 (A) (A) (A) (A) (A) (A)
       Virtual   (A) (A) (A) (A) (A) (A) (A) (A) (A) (A) (A) (A)
                 (A) (A) (A) (A) (A) (A) (A) (A) (A) (A) (A) (A)
                 (A) (A) (A) (A) (A) (A) (A) (A) (A) (A) (A) (A)
                 (A) (A) (A) (A) (A) (A) (A) (A) (A) (A) (A) (A)
                 (A) (A) (A) (A) (A) (A) (A) (A) (A) (A) (A) (A)
                 (A) (A) (A) (A) (A) (A) (A) (A) (A) (A) (A) (A)
                 (A) (A) (A) (A) (A) (A) (A) (A) (A) (A) (A) (A)
                 (A) (A) (A) (A) (A) (A) (A) (A) (A) (A) (A) (A)
                 (A) (A) (A) (A) (A) (A) (A) (A) (A) (A) (A) (A)
                 (A) (A) (A) (A) (A) (A) (A) (A) (A) (A) (A) (A)
                 (A) (A) (A) (A) (A) (A) (A) (A) (A) (A) (A) (A)
                 (A) (A) (A) (A)
 Beta  Orbitals:
       Occupied  (A) (A) (A) (A) (A) (A) (A) (A) (A) (A) (A) (A)
                 (A) (A) (A) (A)
       Virtual   (A) (A) (A) (A) (A) (A) (A) (A) (A) (A) (A) (A)
                 (A) (A) (A) (A) (A) (A) (A) (A) (A) (A) (A) (A)
                 (A) (A) (A) (A) (A) (A) (A) (A) (A) (A) (A) (A)
                 (A) (A) (A) (A) (A) (A) (A) (A) (A) (A) (A) (A)
                 (A) (A) (A) (A) (A) (A) (A) (A) (A) (A) (A) (A)
                 (A) (A) (A) (A) (A) (A) (A) (A) (A) (A) (A) (A)
                 (A) (A) (A) (A) (A) (A) (A) (A) (A) (A) (A) (A)
                 (A) (A) (A) (A) (A) (A) (A) (A) (A) (A) (A) (A)
                 (A) (A) (A) (A) (A) (A) (A) (A) (A) (A) (A) (A)
                 (A) (A) (A) (A) (A) (A) (A) (A) (A) (A) (A) (A)
                 (A) (A) (A) (A) (A) (A) (A) (A) (A) (A) (A) (A)
                 (A) (A) (A) (A) (A) (A)
 The electronic state of the initial guess is 3-A.
 Initial guess <Sx>= 0.0000 <Sy>= 0.0000 <Sz>= 1.0000 <S**2>= 2.0000 S= 1.0000
 Requested convergence on RMS density matrix=1.00D-08 within 128 cycles.
 Requested convergence on MAX density matrix=1.00D-06.
 Requested convergence on             energy=1.00D-06.
 No special actions if energy rises.
 Keep R1 and R2 ints in memory in canonical form, NReq=234659957.
 Integral accuracy reduced to 1.0D-05 until final iterations.
 Initial convergence to 1.0D-05 achieved.  Increase integral accuracy.
 SCF Done:  E(UM062X) =  -301.816349915     A.U. after   21 cycles
             Convg  =    0.2430D-08             -V/T =  2.0026
 <Sx>= 0.0000 <Sy>= 0.0000 <Sz>= 1.0000 <S**2>= 2.0175 S= 1.0058
 <L.S>= 0.000000000000E+00
 Annihilation of the first spin contaminant:
 S**2 before annihilation     2.0175,   after     2.0002
 Range of M.O.s used for correlation:     1   154
 NBasis=   154 NAE=    18 NBE=    16 NFC=     0 NFV=     0
 NROrb=    154 NOA=    18 NOB=    16 NVA=   136 NVB=   138

 **** Warning!!: The largest alpha MO coefficient is  0.16841086D+02


 **** Warning!!: The largest beta MO coefficient is  0.17234768D+02

 Symmetrizing basis deriv contribution to polar:
 IMax=3 JMax=2 DiffMx= 0.00D+00
 G2DrvN: will do     7 centers at a time, making    1 passes doing MaxLOS=3.
 Calling FoFCou, ICntrl=  3107 FMM=F I1Cent=   0 AccDes= 0.00D+00.
 FoFDir/FoFCou used for L=0 through L=3.
 End of G2Drv Frequency-dependent properties file   721 does not exist.
 End of G2Drv Frequency-dependent properties file   722 does not exist.
          IDoAtm=111111
          Differentiating once with respect to nuclear coordinates.
          Keep R1 and R2 ints in memory in canonical form, NReq=233758402.
          There are    21 degrees of freedom in the 1st order CPHF.  IDoFFX=5.
     15 vectors produced by pass  0 Test12= 2.22D-10 4.76D-07 XBig12= 2.23D-01 3.06D-01.
 AX will form    15 AO Fock derivatives at one time.
     15 vectors produced by pass  1 Test12= 2.22D-10 4.76D-07 XBig12= 2.43D-02 6.50D-02.
     15 vectors produced by pass  2 Test12= 2.22D-10 4.76D-07 XBig12= 1.79D-03 8.60D-03.
     15 vectors produced by pass  3 Test12= 2.22D-10 4.76D-07 XBig12= 9.20D-05 2.02D-03.
     15 vectors produced by pass  4 Test12= 2.22D-10 4.76D-07 XBig12= 2.13D-06 2.30D-04.
     15 vectors produced by pass  5 Test12= 2.22D-10 4.76D-07 XBig12= 5.91D-08 4.21D-05.
      6 vectors produced by pass  6 Test12= 2.22D-10 4.76D-07 XBig12= 1.42D-09 5.40D-06.
      2 vectors produced by pass  7 Test12= 2.22D-10 4.76D-07 XBig12= 2.79D-11 8.05D-07.
 Inverted reduced A of dimension    98 with in-core refinement.
 End of Minotr Frequency-dependent properties file   721 does not exist.
 End of Minotr Frequency-dependent properties file   722 does not exist.

 **********************************************************************

            Population analysis using the SCF density.

 **********************************************************************

 Orbital symmetries:
 Alpha Orbitals:
       Occupied  (A) (A) (A) (A) (A) (A) (A) (A) (A) (A) (A) (A)
                 (A) (A) (A) (A) (A) (A)
       Virtual   (A) (A) (A) (A) (A) (A) (A) (A) (A) (A) (A) (A)
                 (A) (A) (A) (A) (A) (A) (A) (A) (A) (A) (A) (A)
                 (A) (A) (A) (A) (A) (A) (A) (A) (A) (A) (A) (A)
                 (A) (A) (A) (A) (A) (A) (A) (A) (A) (A) (A) (A)
                 (A) (A) (A) (A) (A) (A) (A) (A) (A) (A) (A) (A)
                 (A) (A) (A) (A) (A) (A) (A) (A) (A) (A) (A) (A)
                 (A) (A) (A) (A) (A) (A) (A) (A) (A) (A) (A) (A)
                 (A) (A) (A) (A) (A) (A) (A) (A) (A) (A) (A) (A)
                 (A) (A) (A) (A) (A) (A) (A) (A) (A) (A) (A) (A)
                 (A) (A) (A) (A) (A) (A) (A) (A) (A) (A) (A) (A)
                 (A) (A) (A) (A) (A) (A) (A) (A) (A) (A) (A) (A)
                 (A) (A) (A) (A)
 Beta  Orbitals:
       Occupied  (A) (A) (A) (A) (A) (A) (A) (A) (A) (A) (A) (A)
                 (A) (A) (A) (A)
       Virtual   (A) (A) (A) (A) (A) (A) (A) (A) (A) (A) (A) (A)
                 (A) (A) (A) (A) (A) (A) (A) (A) (A) (A) (A) (A)
                 (A) (A) (A) (A) (A) (A) (A) (A) (A) (A) (A) (A)
                 (A) (A) (A) (A) (A) (A) (A) (A) (A) (A) (A) (A)
                 (A) (A) (A) (A) (A) (A) (A) (A) (A) (A) (A) (A)
                 (A) (A) (A) (A) (A) (A) (A) (A) (A) (A) (A) (A)
                 (A) (A) (A) (A) (A) (A) (A) (A) (A) (A) (A) (A)
                 (A) (A) (A) (A) (A) (A) (A) (A) (A) (A) (A) (A)
                 (A) (A) (A) (A) (A) (A) (A) (A) (A) (A) (A) (A)
                 (A) (A) (A) (A) (A) (A) (A) (A) (A) (A) (A) (A)
                 (A) (A) (A) (A) (A) (A) (A) (A) (A) (A) (A) (A)
                 (A) (A) (A) (A) (A) (A)
 The electronic state is 3-A.
 Alpha  occ. eigenvalues --  -19.81349 -19.81043 -19.70627 -19.68113  -1.47588
 Alpha  occ. eigenvalues --   -1.27861  -1.02752  -0.97609  -0.74034  -0.69791
 Alpha  occ. eigenvalues --   -0.67410  -0.62074  -0.55478  -0.52902  -0.46342
 Alpha  occ. eigenvalues --   -0.43314  -0.37782  -0.35603
 Alpha virt. eigenvalues --    0.04386   0.06525   0.10358   0.11730   0.12893
 Alpha virt. eigenvalues --    0.15688   0.17104   0.17819   0.19437   0.20404
 Alpha virt. eigenvalues --    0.23316   0.24109   0.24542   0.26086   0.26588
 Alpha virt. eigenvalues --    0.31182   0.33201   0.33915   0.38310   0.42350
 Alpha virt. eigenvalues --    0.53544   0.56456   0.65720   0.71589   0.77120
 Alpha virt. eigenvalues --    0.80195   0.88200   0.93444   0.94908   0.97569
 Alpha virt. eigenvalues --    0.99039   1.00824   1.03727   1.04783   1.08761
 Alpha virt. eigenvalues --    1.12477   1.14739   1.17589   1.28817   1.30544
 Alpha virt. eigenvalues --    1.32206   1.34698   1.37466   1.47765   1.52163
 Alpha virt. eigenvalues --    1.54072   1.57836   1.61335   1.62819   1.65491
 Alpha virt. eigenvalues --    1.71097   1.83956   1.96437   2.02122   2.18529
 Alpha virt. eigenvalues --    2.20084   2.21321   2.25499   2.28077   2.31844
 Alpha virt. eigenvalues --    2.45639   2.55356   2.57688   2.60795   2.71276
 Alpha virt. eigenvalues --    2.87191   3.58511   3.67265   3.73900   3.75508
 Alpha virt. eigenvalues --    3.85825   4.12124   4.42931   4.49176   4.49709
 Alpha virt. eigenvalues --    4.58185   4.60625   4.61372   4.68487   4.74328
 Alpha virt. eigenvalues --    4.82389   4.82540   4.86310   4.87969   4.90107
 Alpha virt. eigenvalues --    4.98222   4.99346   5.02314   5.03261   5.06931
 Alpha virt. eigenvalues --    5.10613   5.12264   5.15327   5.18070   5.22010
 Alpha virt. eigenvalues --    5.24675   5.26820   5.32653   5.35747   5.41597
 Alpha virt. eigenvalues --    5.52195   5.57801   5.62008   5.64182   6.10691
 Alpha virt. eigenvalues --    6.11371   6.49174   6.54582   6.63843   6.65616
 Alpha virt. eigenvalues --    6.70356   6.71072   6.80400   6.81009   6.82413
 Alpha virt. eigenvalues --    6.83873   6.86209   6.88751   6.94461   6.98622
 Alpha virt. eigenvalues --    7.07098   7.20307   7.20668   7.25368   7.30433
 Alpha virt. eigenvalues --    7.36379   7.46927   7.69428   7.82014   7.90919
 Alpha virt. eigenvalues --    7.92643   8.03288  49.92103  49.98689  50.00463
 Alpha virt. eigenvalues --   50.05844
  Beta  occ. eigenvalues --  -19.79455 -19.78573 -19.70265 -19.67610  -1.41275
  Beta  occ. eigenvalues --   -1.26506  -0.98368  -0.91341  -0.67546  -0.61426
  Beta  occ. eigenvalues --   -0.61014  -0.56851  -0.52739  -0.48599  -0.37464
  Beta  occ. eigenvalues --   -0.35064
  Beta virt. eigenvalues --   -0.11588  -0.09264   0.04860   0.06939   0.10591
  Beta virt. eigenvalues --    0.12246   0.13464   0.16104   0.17472   0.18177
  Beta virt. eigenvalues --    0.20129   0.20930   0.23588   0.24356   0.24765
  Beta virt. eigenvalues --    0.26771   0.28395   0.32437   0.33152   0.35072
  Beta virt. eigenvalues --    0.39102   0.42305   0.53805   0.57145   0.65891
  Beta virt. eigenvalues --    0.72023   0.77420   0.80437   0.88620   0.94945
  Beta virt. eigenvalues --    0.95675   1.00162   1.01519   1.02077   1.04613
  Beta virt. eigenvalues --    1.07857   1.09983   1.13191   1.15211   1.19229
  Beta virt. eigenvalues --    1.30493   1.32909   1.34229   1.36665   1.38702
  Beta virt. eigenvalues --    1.48851   1.52711   1.54506   1.58762   1.63518
  Beta virt. eigenvalues --    1.65094   1.66553   1.72692   1.84557   1.96872
  Beta virt. eigenvalues --    2.03152   2.19073   2.21340   2.22223   2.27127
  Beta virt. eigenvalues --    2.28625   2.32478   2.45814   2.55316   2.58247
  Beta virt. eigenvalues --    2.61156   2.69888   2.85123   3.58519   3.67242
  Beta virt. eigenvalues --    3.73554   3.74901   3.84915   4.12017   4.46172
  Beta virt. eigenvalues --    4.51015   4.51557   4.58457   4.60844   4.62395
  Beta virt. eigenvalues --    4.69159   4.74560   4.84131   4.84550   4.87043
  Beta virt. eigenvalues --    4.90020   4.95122   5.00964   5.02689   5.04031
  Beta virt. eigenvalues --    5.05351   5.08699   5.11599   5.13072   5.16618
  Beta virt. eigenvalues --    5.18745   5.23516   5.25533   5.27146   5.34276
  Beta virt. eigenvalues --    5.36191   5.42201   5.52561   5.58391   5.63340
  Beta virt. eigenvalues --    5.64695   6.10786   6.11824   6.49159   6.64781
  Beta virt. eigenvalues --    6.67746   6.71806   6.77345   6.78270   6.82243
  Beta virt. eigenvalues --    6.83388   6.85321   6.87342   6.87946   6.90538
  Beta virt. eigenvalues --    6.96552   7.02061   7.07928   7.22477   7.23621
  Beta virt. eigenvalues --    7.26113   7.31762   7.37304   7.46988   7.70195
  Beta virt. eigenvalues --    7.82671   7.90970   7.94079   8.04328  49.90960
  Beta virt. eigenvalues --   49.98315  49.99908  50.04693
          Condensed to atoms (all electrons):
              1          2          3          4          5          6
     1  O    7.714600   0.321919   0.056323   0.023969  -0.026834  -0.002461
     2  O    0.321919   7.654934  -0.025230   0.008334   0.013974   0.002347
     3  H    0.056323  -0.025230   0.414966  -0.070639   0.218701   0.008534
     4  O    0.023969   0.008334  -0.070639   7.776213   0.161598   0.249696
     5  O   -0.026834   0.013974   0.218701   0.161598   8.111829  -0.054042
     6  H   -0.002461   0.002347   0.008534   0.249696  -0.054042   0.555081
 Mulliken atomic charges:
              1
     1  O   -0.087516
     2  O    0.023721
     3  H    0.397346
     4  O   -0.149169
     5  O   -0.425226
     6  H    0.240844
 Sum of Mulliken atomic charges =   0.00000
 Mulliken charges with hydrogens summed into heavy atoms:
              1
     1  O   -0.087516
     2  O    0.023721
     4  O    0.091675
     5  O   -0.027880
 Sum of Mulliken charges with hydrogens summed into heavy atoms =   0.00000
          Atomic-Atomic Spin Densities.
              1          2          3          4          5          6
     1  O    1.059536  -0.357466   0.031366   0.031346  -0.039342  -0.001220
     2  O   -0.357466   1.379304   0.011086  -0.063577   0.033883   0.003495
     3  H    0.031366   0.011086  -0.115588   0.017970   0.009489  -0.001506
     4  O    0.031346  -0.063577   0.017970   0.162241  -0.053596   0.002009
     5  O   -0.039342   0.033883   0.009489  -0.053596   0.267455   0.002382
     6  H   -0.001220   0.003495  -0.001506   0.002009   0.002382  -0.005589
 Mulliken atomic spin densities:
              1
     1  O    0.724221
     2  O    1.006725
     3  H   -0.047182
     4  O    0.096394
     5  O    0.220271
     6  H   -0.000429
 Sum of Mulliken atomic spin densities =   2.00000
 APT atomic charges:
              1
     1  O   -0.089312
     2  O    0.027989
     3  H    0.399568
     4  O   -0.393059
     5  O   -0.425160
     6  H    0.479973
 Sum of APT charges=   0.00000
 APT Atomic charges with hydrogens summed into heavy atoms:
              1
     1  O   -0.089312
     2  O    0.027989
     3  H    0.000000
     4  O    0.086915
     5  O   -0.025592
     6  H    0.000000
 Sum of APT charges=   0.00000
 Electronic spatial extent (au):  <R**2>=            284.2595
 Charge=              0.0000 electrons
 Dipole moment (field-independent basis, Debye):
    X=              1.2627    Y=             -0.6521    Z=              1.4591  Tot=              2.0368
 Quadrupole moment (field-independent basis, Debye-Ang):
   XX=            -23.8757   YY=            -21.7104   ZZ=            -21.4450
   XY=              2.5665   XZ=             -2.2683   YZ=             -1.8443
 Traceless Quadrupole moment (field-independent basis, Debye-Ang):
   XX=             -1.5320   YY=              0.6333   ZZ=              0.8987
   XY=              2.5665   XZ=             -2.2683   YZ=             -1.8443
 Octapole moment (field-independent basis, Debye-Ang**2):
  XXX=              3.8770  YYY=             -1.1838  ZZZ=              1.3534  XYY=              0.6433
  XXY=             -4.1716  XXZ=              3.3536  XZZ=              0.0471  YZZ=             -1.8316
  YYZ=              1.9218  XYZ=              2.5905
 Hexadecapole moment (field-independent basis, Debye-Ang**3):
 XXXX=           -215.2924 YYYY=            -71.5341 ZZZZ=            -18.3672 XXXY=              5.2880
 XXXZ=             -5.5583 YYYX=              4.0466 YYYZ=             -2.2774 ZZZX=             -2.1944
 ZZZY=             -1.9638 XXYY=            -49.3415 XXZZ=            -36.8366 YYZZ=            -15.5232
 XXYZ=             -3.8423 YYXZ=             -2.7980 ZZXY=              2.3929
 N-N= 1.256322259787D+02 E-N=-1.430040967329D+03  KE= 4.478925898193D+02
  Exact polarizability:   0.000   0.000   0.000   0.000   0.000   0.000
 Approx polarizability:  52.096  -4.597  39.325   0.124  -0.560  19.417
                          Isotropic Fermi Contact Couplings
        Atom                 a.u.       MegaHertz       Gauss      10(-4) cm-1
     1  O(17)              0.11700     -35.46119     -12.65343     -11.82858
     2  O(17)              0.18185     -55.11885     -19.66777     -18.38567
     3  H(1)              -0.03138     -70.14164     -25.02828     -23.39673
     4  O(17)              0.03704     -11.22538      -4.00549      -3.74438
     5  O(17)              0.00907      -2.74790      -0.98052      -0.91660
     6  H(1)              -0.00222      -4.95854      -1.76933      -1.65399
 --------------------------------------------------------
       Center         ----  Spin Dipole Couplings  ----
                      3XX-RR        3YY-RR        3ZZ-RR
 --------------------------------------------------------
     1   Atom        0.582960     -1.968492      1.385532
     2   Atom        0.804125     -2.503318      1.699193
     3   Atom        0.188653     -0.078243     -0.110410
     4   Atom        0.668566     -0.351162     -0.317404
     5   Atom        1.067210     -0.555000     -0.512210
     6   Atom        0.004124     -0.015403      0.011279
 --------------------------------------------------------
                        XY            XZ            YZ
 --------------------------------------------------------
     1   Atom        0.299179     -0.032577      0.063272
     2   Atom        0.356936      0.057009      0.095731
     3   Atom       -0.063792     -0.004009     -0.000359
     4   Atom       -0.072439      0.094762     -0.018151
     5   Atom       -0.129196      0.048580     -0.003087
     6   Atom        0.009443     -0.013221     -0.019519
 --------------------------------------------------------


 ---------------------------------------------------------------------------------
              Anisotropic Spin Dipole Couplings in Principal Axis System
 ---------------------------------------------------------------------------------

       Atom             a.u.   MegaHertz   Gauss  10(-4) cm-1        Axes

              Baa    -2.0044   145.038    51.753    48.379 -0.1151  0.9932 -0.0196
     1 O(17)  Bbb     0.6168   -44.628   -15.924   -14.886  0.9928  0.1157  0.0325
              Bcc     1.3877  -100.410   -35.829   -33.493 -0.0346  0.0158  0.9993
 
              Baa    -2.5433   184.030    65.666    61.386 -0.1057  0.9942 -0.0210
     2 O(17)  Bbb     0.8370   -60.568   -21.612   -20.203  0.9916  0.1038 -0.0771
              Bcc     1.7062  -123.462   -44.054   -41.182  0.0745  0.0290  0.9968
 
              Baa    -0.1105   -58.980   -21.046   -19.674  0.0272  0.0648  0.9975
     3 H(1)   Bbb    -0.0926   -49.418   -17.634   -16.484  0.2197  0.9731 -0.0692
              Bcc     0.2032   108.398    38.679    36.158  0.9752 -0.2211 -0.0122
 
              Baa    -0.3601    26.059     9.299     8.692  0.0372  0.9468  0.3196
     4 O(17)  Bbb    -0.3227    23.352     8.333     7.789 -0.1130 -0.3138  0.9427
              Bcc     0.6829   -49.412   -17.631   -16.482  0.9929 -0.0712  0.0954
 
              Baa    -0.5652    40.900    14.594    13.643  0.0793  0.9967 -0.0146
     5 O(17)  Bbb    -0.5137    37.170    13.263    12.399 -0.0293  0.0170  0.9994
              Bcc     1.0789   -78.070   -27.857   -26.041  0.9964 -0.0788  0.0306
 
              Baa    -0.0259   -13.818    -4.931    -4.609 -0.0884  0.8945  0.4382
     6 H(1)   Bbb    -0.0053    -2.822    -1.007    -0.941  0.8542 -0.1582  0.4952
              Bcc     0.0312    16.640     5.938     5.551 -0.5123 -0.4181  0.7501
 

 ---------------------------------------------------------------------------------

 Calling FoFJK, ICntrl=    100147 FMM=F ISym2X=0 I1Cent= 0 IOpClX= 1 NMat=1 NMatS=1 NMatT=0.
 ***** Axes restored to original set *****
 -------------------------------------------------------------------
 Center     Atomic                   Forces (Hartrees/Bohr)
 Number     Number              X              Y              Z
 -------------------------------------------------------------------
      1        8           0.033777653   -0.004936618   -0.000456327
      2        8          -0.000344053    0.000483387    0.000052623
      3        1          -0.071958215   -0.006068957    0.002023634
      4        8           0.000374097   -0.000290588   -0.000112936
      5        8           0.038168627    0.010967483   -0.001619556
      6        1          -0.000018110   -0.000154707    0.000112562
 -------------------------------------------------------------------
 Cartesian Forces:  Max     0.071958215 RMS     0.021035422

 GradGradGradGradGradGradGradGradGradGradGradGradGradGradGradGradGradGrad
 Berny optimization.
 Internal  Forces:  Max     0.039674962 RMS     0.015247596
 Search for a saddle point.
 Step number   1 out of a maximum of   22
 All quantities printed in internal units (Hartrees-Bohrs-Radians)
 Swaping is turned off.
 Second derivative matrix not updated -- analytic derivatives used.
 The second derivative matrix:
                          R1        R2        R3        R4        R5
           R1           0.76576
           R2           0.07825   0.09422
           R3          -0.04842   0.14676   0.10235
           R4           0.05269  -0.04877   0.03312   0.37594
           R5          -0.00577   0.00445  -0.00266   0.00714   0.52197
           A1           0.07756   0.01023   0.03619  -0.03098   0.00413
           A2           0.01935   0.03610   0.06835  -0.02590   0.00337
           A3           0.00090   0.00137   0.00044   0.07491  -0.00538
           A4           0.00476   0.00629   0.04686   0.05324   0.00200
           D1           0.00084  -0.00229  -0.00032  -0.00245   0.00016
           D2           0.00220  -0.00423  -0.00172  -0.00289   0.00023
           D3           0.00643  -0.00397   0.00623  -0.00545   0.00230
                          A1        A2        A3        A4        D1
           A1           0.19048
           A2           0.05315   0.13942
           A3           0.00069   0.00076   0.23140
           A4           0.01976   0.07157   0.01211   0.28531
           D1          -0.00202  -0.00333  -0.00165  -0.00210   0.01915
           D2          -0.00459  -0.00734  -0.00183  -0.00539   0.01759
           D3          -0.00319   0.00225   0.00658   0.01414   0.00201
                          D2        D3
           D2           0.01967
           D3           0.00394   0.02309
 ITU=  0
     Eigenvalues ---   -0.07546   0.00166   0.02112   0.03792   0.07830
     Eigenvalues ---    0.16612   0.19781   0.22345   0.36938   0.43405
     Eigenvalues ---    0.52252   0.79189
 Eigenvectors required to have negative eigenvalues:
                          R3        R2        R4        R1        A2
   1                   -0.68899   0.67311   0.15592  -0.12475   0.10195
                          A1        D3        A3        D2        A4
   1                    0.10190   0.08576  -0.04314   0.03204   0.02932
 RFO step:  Lambda0=2.558807310D-02 Lambda=-2.06455527D-03.
 Linear search not attempted -- option 19 set.
 Maximum step size (   0.300) exceeded in Quadratic search.
    -- Step size scaled by   0.606
 Iteration  1 RMS(Cart)=  0.09780786 RMS(Int)=  0.00635726
 Iteration  2 RMS(Cart)=  0.00576213 RMS(Int)=  0.00000949
 Iteration  3 RMS(Cart)=  0.00000909 RMS(Int)=  0.00000000
 Iteration  4 RMS(Cart)=  0.00000000 RMS(Int)=  0.00000000
 Variable       Old X    -DE/DX   Delta X   Delta X   Delta X     New X
                                 (Linear)    (Quad)   (Total)
    R1        2.29134  -0.00054   0.00000   0.04594   0.04594   2.33728
    R2        2.27951   0.03341   0.00000  -0.20819  -0.20819   2.07132
    R3        2.27592  -0.03967   0.00000   0.18735   0.18735   2.46328
    R4        2.61543   0.00047   0.00000  -0.06318  -0.06318   2.55225
    R5        1.82382   0.00015   0.00000   0.00587   0.00587   1.82969
    A1        1.92825  -0.00065   0.00000  -0.06468  -0.06468   1.86358
    A2        2.72895   0.00987   0.00000   0.01088   0.01088   2.73983
    A3        1.80726   0.00025   0.00000   0.02767   0.02767   1.83493
    A4        1.75830  -0.00113   0.00000  -0.01179  -0.01179   1.74651
    D1        0.06667  -0.00015   0.00000   0.00937   0.00937   0.07605
    D2       -0.20389  -0.00011   0.00000  -0.04754  -0.04754  -0.25143
    D3        1.78512  -0.00004   0.00000  -0.13814  -0.13814   1.64697
         Item               Value     Threshold  Converged?
 Maximum Force            0.039675     0.000450     NO 
 RMS     Force            0.015248     0.000300     NO 
 Maximum Displacement     0.202591     0.001800     NO 
 RMS     Displacement     0.100734     0.001200     NO 
 Predicted change in Energy= 1.111106D-02
 GradGradGradGradGradGradGradGradGradGradGradGradGradGradGradGradGradGrad

                          Input orientation:                          
 ---------------------------------------------------------------------
 Center     Atomic      Atomic             Coordinates (Angstroms)
 Number     Number       Type             X           Y           Z
 ---------------------------------------------------------------------
      1          8           0        1.178815    0.593878   -0.007365
      2          8           0        1.210493   -0.641198    0.050460
      3          1           0        0.121606    0.882962   -0.020195
      4          8           0       -1.236648   -0.626623   -0.142869
      5          8           0       -1.169700    0.711510    0.027471
      6          1           0       -1.270122   -0.994036    0.752317
 ---------------------------------------------------------------------
                    Distance matrix (angstroms):
                    1          2          3          4          5
     1  O    0.000000
     2  O    1.236834   0.000000
     3  H    1.096096   1.874495   0.000000
     4  O    2.709695   2.454809   2.034391   0.000000
     5  O    2.351717   2.737821   1.303510   1.350592   0.000000
     6  H    3.015938   2.602027   2.461057   0.968230   1.855902
                    6
     6  H    0.000000
 Stoichiometry    H2O4(3)
 Framework group  C1[X(H2O4)]
 Deg. of freedom    12
 Full point group                 C1      NOp   1
 Largest Abelian subgroup         C1      NOp   1
 Largest concise Abelian subgroup C1      NOp   1
                         Standard orientation:                         
 ---------------------------------------------------------------------
 Center     Atomic      Atomic             Coordinates (Angstroms)
 Number     Number       Type             X           Y           Z
 ---------------------------------------------------------------------
      1          8           0       -1.221837   -0.577125   -0.020294
      2          8           0       -1.242623    0.658860    0.020551
      3          1           0       -0.167326   -0.876130   -0.015091
      4          8           0        1.206621    0.619020   -0.139779
      5          8           0        1.124795   -0.716011    0.047561
      6          1           0        1.231682    0.998178    0.750772
 ---------------------------------------------------------------------
 Rotational constants (GHZ):     17.2707328      5.3440030      4.1407879
 Standard basis: 6-311+G(2df,2p) (5D, 7F)
 There are   154 symmetry adapted basis functions of A   symmetry.
 Integral buffers will be    131072 words long.
 Raffenetti 2 integral format.
 Two-electron integral symmetry is turned on.
   154 basis functions,   230 primitive gaussians,   174 cartesian basis functions
    18 alpha electrons       16 beta electrons
       nuclear repulsion energy       126.8727862154 Hartrees.
 NAtoms=    6 NActive=    6 NUniq=    6 SFac= 1.00D+00 NAtFMM=   50 NAOKFM=F Big=F
 One-electron integrals computed using PRISM.
 NBasis=   154 RedAO= T  NBF=   154
 NBsUse=   154 1.00D-06 NBFU=   154
 Initial guess read from the read-write file.
 B after Tr=     0.000000    0.000000    0.000000
         Rot=    1.000000    0.000000    0.000000    0.000000 Ang=   0.00 deg.
 Initial guess orbital symmetries:
 Alpha Orbitals:
       Occupied  (A) (A) (A) (A) (A) (A) (A) (A) (A) (A) (A) (A)
                 (A) (A) (A) (A) (A) (A)
       Virtual   (A) (A) (A) (A) (A) (A) (A) (A) (A) (A) (A) (A)
                 (A) (A) (A) (A) (A) (A) (A) (A) (A) (A) (A) (A)
                 (A) (A) (A) (A) (A) (A) (A) (A) (A) (A) (A) (A)
                 (A) (A) (A) (A) (A) (A) (A) (A) (A) (A) (A) (A)
                 (A) (A) (A) (A) (A) (A) (A) (A) (A) (A) (A) (A)
                 (A) (A) (A) (A) (A) (A) (A) (A) (A) (A) (A) (A)
                 (A) (A) (A) (A) (A) (A) (A) (A) (A) (A) (A) (A)
                 (A) (A) (A) (A) (A) (A) (A) (A) (A) (A) (A) (A)
                 (A) (A) (A) (A) (A) (A) (A) (A) (A) (A) (A) (A)
                 (A) (A) (A) (A) (A) (A) (A) (A) (A) (A) (A) (A)
                 (A) (A) (A) (A) (A) (A) (A) (A) (A) (A) (A) (A)
                 (A) (A) (A) (A)
 Beta  Orbitals:
       Occupied  (A) (A) (A) (A) (A) (A) (A) (A) (A) (A) (A) (A)
                 (A) (A) (A) (A)
       Virtual   (A) (A) (A) (A) (A) (A) (A) (A) (A) (A) (A) (A)
                 (A) (A) (A) (A) (A) (A) (A) (A) (A) (A) (A) (A)
                 (A) (A) (A) (A) (A) (A) (A) (A) (A) (A) (A) (A)
                 (A) (A) (A) (A) (A) (A) (A) (A) (A) (A) (A) (A)
                 (A) (A) (A) (A) (A) (A) (A) (A) (A) (A) (A) (A)
                 (A) (A) (A) (A) (A) (A) (A) (A) (A) (A) (A) (A)
                 (A) (A) (A) (A) (A) (A) (A) (A) (A) (A) (A) (A)
                 (A) (A) (A) (A) (A) (A) (A) (A) (A) (A) (A) (A)
                 (A) (A) (A) (A) (A) (A) (A) (A) (A) (A) (A) (A)
                 (A) (A) (A) (A) (A) (A) (A) (A) (A) (A) (A) (A)
                 (A) (A) (A) (A) (A) (A) (A) (A) (A) (A) (A) (A)
                 (A) (A) (A) (A) (A) (A)
 Initial guess <Sx>= 0.0000 <Sy>= 0.0000 <Sz>= 1.0000 <S**2>= 2.0567 S= 1.0188
 Harris functional with IExCor= 1009 diagonalized for initial guess.
 ExpMin= 8.45D-02 ExpMax= 8.59D+03 ExpMxC= 1.30D+03 IAcc=2 IRadAn=         0 AccDes= 0.00D+00
 HarFok:  IExCor= 1009 AccDes= 0.00D+00 IRadAn=         0 IDoV= 1
 ScaDFX=  1.000000  1.000000  1.000000  1.000000
 FoFCou: FMM=F IPFlag=           0 FMFlag=      100000 FMFlg1=           0
         NFxFlg=           0 DoJE=T BraDBF=F KetDBF=T FulRan=T
         Omega=  0.000000  0.000000  1.000000  0.000000  0.000000 ICntrl=     500 IOpCl=  0
         NMat0=    1 NMatS0=    1 NMatT0=    0 NMatD0=    1 NMtDS0=    0 NMtDT0=    0
         I1Cent=           4 NGrid=           0.
 Petite list used in FoFCou.
 Requested convergence on RMS density matrix=1.00D-08 within 128 cycles.
 Requested convergence on MAX density matrix=1.00D-06.
 Requested convergence on             energy=1.00D-06.
 No special actions if energy rises.
 Keep R1 and R2 ints in memory in canonical form, NReq=234659957.
 Integral accuracy reduced to 1.0D-05 until final iterations.
 Initial convergence to 1.0D-05 achieved.  Increase integral accuracy.
 SCF Done:  E(UM062X) =  -301.806258627     A.U. after   23 cycles
             Convg  =    0.3869D-08             -V/T =  2.0024
 <Sx>= 0.0000 <Sy>= 0.0000 <Sz>= 1.0000 <S**2>= 2.0191 S= 1.0063
 <L.S>= 0.000000000000E+00
 Annihilation of the first spin contaminant:
 S**2 before annihilation     2.0191,   after     2.0002
 Calling FoFJK, ICntrl=      2127 FMM=F ISym2X=0 I1Cent= 0 IOpClX= 1 NMat=1 NMatS=1 NMatT=0.
 ***** Axes restored to original set *****
 -------------------------------------------------------------------
 Center     Atomic                   Forces (Hartrees/Bohr)
 Number     Number              X              Y              Z
 -------------------------------------------------------------------
      1        8           0.017424673    0.005282333   -0.000719617
      2        8           0.004455677   -0.010415745    0.001040095
      3        1          -0.030971115    0.000900171    0.000372361
      4        8          -0.001519830    0.004211418   -0.000776215
      5        8           0.010526447    0.000188077   -0.000633741
      6        1           0.000084148   -0.000166254    0.000717116
 -------------------------------------------------------------------
 Cartesian Forces:  Max     0.030971115 RMS     0.009291759

 GradGradGradGradGradGradGradGradGradGradGradGradGradGradGradGradGradGrad
 Berny optimization.
 Internal  Forces:  Max     0.022462112 RMS     0.008990149
 Search for a saddle point.
 Step number   2 out of a maximum of   22
 All quantities printed in internal units (Hartrees-Bohrs-Radians)
 Swaping is turned off.
 Update second derivatives using D2CorX and points    1    2
 The second derivative matrix:
                          R1        R2        R3        R4        R5
           R1           0.75228
           R2           0.09446   0.11375
           R3          -0.07486   0.15373   0.06629
           R4           0.06272  -0.05343   0.04808   0.36988
           R5          -0.00689   0.00528  -0.00454   0.00788   0.52188
           A1           0.07628   0.02937   0.02249  -0.02669   0.00379
           A2           0.01314   0.04618   0.05450  -0.02079   0.00282
           A3          -0.00171  -0.00029  -0.00163   0.07594  -0.00553
           A4           0.00250   0.01396   0.03929   0.05585   0.00175
           D1           0.00098  -0.00498   0.00156  -0.00303   0.00021
           D2           0.00802  -0.00416   0.00521  -0.00588   0.00062
           D3           0.01977   0.00364   0.01735  -0.01089   0.00310
                          A1        A2        A3        A4        D1
           A1           0.19830
           A2           0.05375   0.13674
           A3          -0.00171  -0.00076   0.23149
           A4           0.02178   0.07086   0.01106   0.28557
           D1          -0.00314  -0.00343  -0.00131  -0.00240   0.01931
           D2          -0.00085  -0.00418  -0.00157  -0.00351   0.01707
           D3           0.00874   0.00998   0.00626   0.01938   0.00034
                          D2        D3
           D2           0.01844
           D3           0.00246   0.02422
 ITU=  0  0
     Eigenvalues ---   -0.10086   0.00167   0.02202   0.03701   0.07906
     Eigenvalues ---    0.16717   0.19794   0.22342   0.36751   0.43312
     Eigenvalues ---    0.52250   0.78758
 Eigenvectors required to have negative eigenvalues:
                          R3        R2        R4        R1        D3
   1                    0.73121  -0.61885  -0.18026   0.15361  -0.11600
                          D2        A2        A3        A1        D1
   1                   -0.06764  -0.05729   0.04708  -0.03548  -0.03326
 RFO step:  Lambda0=3.620866612D-03 Lambda=-2.31713907D-03.
 Linear search not attempted -- option 19 set.
 Iteration  1 RMS(Cart)=  0.09557120 RMS(Int)=  0.01132401
 Iteration  2 RMS(Cart)=  0.01117503 RMS(Int)=  0.00009896
 Iteration  3 RMS(Cart)=  0.00012322 RMS(Int)=  0.00000002
 Iteration  4 RMS(Cart)=  0.00000001 RMS(Int)=  0.00000000
 Variable       Old X    -DE/DX   Delta X   Delta X   Delta X     New X
                                 (Linear)    (Quad)   (Total)
    R1        2.33728   0.01056   0.00000   0.04496   0.04496   2.38224
    R2        2.07132   0.02246   0.00000  -0.07073  -0.07073   2.00059
    R3        2.46328  -0.00959   0.00000   0.13386   0.13386   2.59714
    R4        2.55225  -0.00391   0.00000  -0.05571  -0.05571   2.49654
    R5        1.82969   0.00070   0.00000   0.00570   0.00570   1.83539
    A1        1.86358   0.00978   0.00000   0.01593   0.01593   1.87950
    A2        2.73983   0.01139   0.00000   0.03744   0.03744   2.77727
    A3        1.83493  -0.00017   0.00000   0.02217   0.02217   1.85710
    A4        1.74651   0.00405   0.00000   0.00723   0.00723   1.75374
    D1        0.07605  -0.00119   0.00000   0.07517   0.07517   0.15122
    D2       -0.25143  -0.00165   0.00000  -0.19620  -0.19620  -0.44763
    D3        1.64697  -0.00018   0.00000  -0.15905  -0.15905   1.48792
         Item               Value     Threshold  Converged?
 Maximum Force            0.022462     0.000450     NO 
 RMS     Force            0.008990     0.000300     NO 
 Maximum Displacement     0.191805     0.001800     NO 
 RMS     Displacement     0.100760     0.001200     NO 
 Predicted change in Energy= 6.392295D-04
 GradGradGradGradGradGradGradGradGradGradGradGradGradGradGradGradGradGrad

                          Input orientation:                          
 ---------------------------------------------------------------------
 Center     Atomic      Atomic             Coordinates (Angstroms)
 Number     Number       Type             X           Y           Z
 ---------------------------------------------------------------------
      1          8           0        1.176322    0.597994   -0.035585
      2          8           0        1.253224   -0.650009    0.124892
      3          1           0        0.150089    0.857495   -0.052455
      4          8           0       -1.338147   -0.581497   -0.148610
      5          8           0       -1.212171    0.716545    0.062454
      6          1           0       -1.194871   -1.014036    0.709122
 ---------------------------------------------------------------------
                    Distance matrix (angstroms):
                    1          2          3          4          5
     1  O    0.000000
     2  O    1.260626   0.000000
     3  H    1.058668   1.876413   0.000000
     4  O    2.779663   2.606664   2.072388   0.000000
     5  O    2.393442   2.819493   1.374345   1.321109   0.000000
     6  H    2.962395   2.543031   2.427250   0.971248   1.847536
                    6
     6  H    0.000000
 Stoichiometry    H2O4(3)
 Framework group  C1[X(H2O4)]
 Deg. of freedom    12
 Full point group                 C1      NOp   1
 Largest Abelian subgroup         C1      NOp   1
 Largest concise Abelian subgroup C1      NOp   1
                         Standard orientation:                         
 ---------------------------------------------------------------------
 Center     Atomic      Atomic             Coordinates (Angstroms)
 Number     Number       Type             X           Y           Z
 ---------------------------------------------------------------------
      1          8           0       -1.229847   -0.594435   -0.059659
      2          8           0       -1.318969    0.658155    0.051044
      3          1           0       -0.201696   -0.846335   -0.044539
      4          8           0        1.278148    0.599549   -0.164010
      5          8           0        1.156725   -0.690411    0.094042
      6          1           0        1.113244    1.063466    0.673194
 ---------------------------------------------------------------------
 Rotational constants (GHZ):     17.4824194      4.9569226      3.9276985
 Standard basis: 6-311+G(2df,2p) (5D, 7F)
 There are   154 symmetry adapted basis functions of A   symmetry.
 Integral buffers will be    131072 words long.
 Raffenetti 2 integral format.
 Two-electron integral symmetry is turned on.
   154 basis functions,   230 primitive gaussians,   174 cartesian basis functions
    18 alpha electrons       16 beta electrons
       nuclear repulsion energy       125.1794495876 Hartrees.
 NAtoms=    6 NActive=    6 NUniq=    6 SFac= 1.00D+00 NAtFMM=   50 NAOKFM=F Big=F
 One-electron integrals computed using PRISM.
 NBasis=   154 RedAO= T  NBF=   154
 NBsUse=   154 1.00D-06 NBFU=   154
 Initial guess read from the read-write file.
 B after Tr=     0.000000    0.000000    0.000000
         Rot=    1.000000    0.000000    0.000000    0.000000 Ang=   0.00 deg.
 Initial guess orbital symmetries:
 Alpha Orbitals:
       Occupied  (A) (A) (A) (A) (A) (A) (A) (A) (A) (A) (A) (A)
                 (A) (A) (A) (A) (A) (A)
       Virtual   (A) (A) (A) (A) (A) (A) (A) (A) (A) (A) (A) (A)
                 (A) (A) (A) (A) (A) (A) (A) (A) (A) (A) (A) (A)
                 (A) (A) (A) (A) (A) (A) (A) (A) (A) (A) (A) (A)
                 (A) (A) (A) (A) (A) (A) (A) (A) (A) (A) (A) (A)
                 (A) (A) (A) (A) (A) (A) (A) (A) (A) (A) (A) (A)
                 (A) (A) (A) (A) (A) (A) (A) (A) (A) (A) (A) (A)
                 (A) (A) (A) (A) (A) (A) (A) (A) (A) (A) (A) (A)
                 (A) (A) (A) (A) (A) (A) (A) (A) (A) (A) (A) (A)
                 (A) (A) (A) (A) (A) (A) (A) (A) (A) (A) (A) (A)
                 (A) (A) (A) (A) (A) (A) (A) (A) (A) (A) (A) (A)
                 (A) (A) (A) (A) (A) (A) (A) (A) (A) (A) (A) (A)
                 (A) (A) (A) (A)
 Beta  Orbitals:
       Occupied  (A) (A) (A) (A) (A) (A) (A) (A) (A) (A) (A) (A)
                 (A) (A) (A) (A)
       Virtual   (A) (A) (A) (A) (A) (A) (A) (A) (A) (A) (A) (A)
                 (A) (A) (A) (A) (A) (A) (A) (A) (A) (A) (A) (A)
                 (A) (A) (A) (A) (A) (A) (A) (A) (A) (A) (A) (A)
                 (A) (A) (A) (A) (A) (A) (A) (A) (A) (A) (A) (A)
                 (A) (A) (A) (A) (A) (A) (A) (A) (A) (A) (A) (A)
                 (A) (A) (A) (A) (A) (A) (A) (A) (A) (A) (A) (A)
                 (A) (A) (A) (A) (A) (A) (A) (A) (A) (A) (A) (A)
                 (A) (A) (A) (A) (A) (A) (A) (A) (A) (A) (A) (A)
                 (A) (A) (A) (A) (A) (A) (A) (A) (A) (A) (A) (A)
                 (A) (A) (A) (A) (A) (A) (A) (A) (A) (A) (A) (A)
                 (A) (A) (A) (A) (A) (A) (A) (A) (A) (A) (A) (A)
                 (A) (A) (A) (A) (A) (A)
 Initial guess <Sx>= 0.0000 <Sy>= 0.0000 <Sz>= 1.0000 <S**2>= 2.0193 S= 1.0064
 Harris functional with IExCor= 1009 diagonalized for initial guess.
 ExpMin= 8.45D-02 ExpMax= 8.59D+03 ExpMxC= 1.30D+03 IAcc=2 IRadAn=         0 AccDes= 0.00D+00
 HarFok:  IExCor= 1009 AccDes= 0.00D+00 IRadAn=         0 IDoV= 1
 ScaDFX=  1.000000  1.000000  1.000000  1.000000
 FoFCou: FMM=F IPFlag=           0 FMFlag=      100000 FMFlg1=           0
         NFxFlg=           0 DoJE=T BraDBF=F KetDBF=T FulRan=T
         Omega=  0.000000  0.000000  1.000000  0.000000  0.000000 ICntrl=     500 IOpCl=  0
         NMat0=    1 NMatS0=    1 NMatT0=    0 NMatD0=    1 NMtDS0=    0 NMtDT0=    0
         I1Cent=           4 NGrid=           0.
 Petite list used in FoFCou.
 Requested convergence on RMS density matrix=1.00D-08 within 128 cycles.
 Requested convergence on MAX density matrix=1.00D-06.
 Requested convergence on             energy=1.00D-06.
 No special actions if energy rises.
 Keep R1 and R2 ints in memory in canonical form, NReq=234660103.
 Integral accuracy reduced to 1.0D-05 until final iterations.
 Initial convergence to 1.0D-05 achieved.  Increase integral accuracy.
 SCF Done:  E(UM062X) =  -301.805571490     A.U. after   27 cycles
             Convg  =    0.5212D-08             -V/T =  2.0024
 <Sx>= 0.0000 <Sy>= 0.0000 <Sz>= 1.0000 <S**2>= 2.0172 S= 1.0057
 <L.S>= 0.000000000000E+00
 Annihilation of the first spin contaminant:
 S**2 before annihilation     2.0172,   after     2.0002
 Calling FoFJK, ICntrl=      2127 FMM=F ISym2X=0 I1Cent= 0 IOpClX= 1 NMat=1 NMatS=1 NMatT=0.
 ***** Axes restored to original set *****
 -------------------------------------------------------------------
 Center     Atomic                   Forces (Hartrees/Bohr)
 Number     Number              X              Y              Z
 -------------------------------------------------------------------
      1        8           0.007558853    0.006908529   -0.002010304
      2        8          -0.001690605   -0.005312175    0.001271871
      3        1          -0.005087161   -0.000707913    0.001183792
      4        8          -0.001923890   -0.002887965   -0.002193363
      5        8           0.000879121    0.001626860    0.000813320
      6        1           0.000263682    0.000372664    0.000934683
 -------------------------------------------------------------------
 Cartesian Forces:  Max     0.007558853 RMS     0.003260859

 GradGradGradGradGradGradGradGradGradGradGradGradGradGradGradGradGradGrad
 Berny optimization.
 Internal  Forces:  Max     0.005327760 RMS     0.002963181
 Search for a saddle point.
 Step number   3 out of a maximum of   22
 All quantities printed in internal units (Hartrees-Bohrs-Radians)
 Swaping is turned off.
 Update second derivatives using D2CorX and points    2    3
 The second derivative matrix:
                          R1        R2        R3        R4        R5
           R1           0.74770
           R2           0.09643   0.12069
           R3          -0.08268   0.14844   0.06255
           R4           0.06467  -0.04872   0.04525   0.37300
           R5          -0.00748   0.00553  -0.00553   0.00813   0.52181
           A1           0.07735   0.02489   0.02879  -0.03001   0.00392
           A2           0.01065   0.04530   0.05242  -0.02112   0.00250
           A3          -0.00237  -0.00239  -0.00010   0.07452  -0.00562
           A4           0.00088   0.01599   0.03504   0.05749   0.00154
           D1          -0.00253  -0.00963   0.00241  -0.00593  -0.00024
           D2           0.01900   0.00452   0.00906  -0.00101   0.00202
           D3           0.02837   0.01125   0.01948  -0.00650   0.00419
                          A1        A2        A3        A4        D1
           A1           0.20012
           A2           0.05534   0.13587
           A3          -0.00033  -0.00052   0.23212
           A4           0.02148   0.06965   0.01043   0.28522
           D1           0.00086  -0.00379   0.00008  -0.00469   0.02150
           D2          -0.01033  -0.00158  -0.00411   0.00266   0.01488
           D3           0.00089   0.01182   0.00402   0.02435  -0.00201
                          D2        D3
           D2           0.01519
           D3           0.00130   0.02448
 ITU=  0  0  0
     Eigenvalues ---   -0.09642   0.00147   0.02059   0.03411   0.07856
     Eigenvalues ---    0.16962   0.19947   0.22418   0.36579   0.43421
     Eigenvalues ---    0.52248   0.78620
 Eigenvectors required to have negative eigenvalues:
                          R3        R2        R4        R1        D3
   1                    0.74425  -0.59823  -0.17296   0.16723  -0.10966
                          A1        D1        D2        A2        A3
   1                   -0.07522  -0.06417  -0.06314  -0.05335   0.03695
 RFO step:  Lambda0=3.078367678D-05 Lambda=-8.79880231D-04.
 Linear search not attempted -- option 19 set.
 Iteration  1 RMS(Cart)=  0.04152211 RMS(Int)=  0.03537683
 Iteration  2 RMS(Cart)=  0.05367959 RMS(Int)=  0.00267490
 Iteration  3 RMS(Cart)=  0.00362029 RMS(Int)=  0.00000501
 Iteration  4 RMS(Cart)=  0.00000814 RMS(Int)=  0.00000000
 Iteration  5 RMS(Cart)=  0.00000000 RMS(Int)=  0.00000000
 Variable       Old X    -DE/DX   Delta X   Delta X   Delta X     New X
                                 (Linear)    (Quad)   (Total)
    R1        2.38224   0.00533   0.00000   0.02185   0.02185   2.40409
    R2        2.00059   0.00529   0.00000   0.03540   0.03540   2.03599
    R3        2.59714   0.00083   0.00000   0.02338   0.02338   2.62052
    R4        2.49654   0.00282   0.00000   0.00148   0.00148   2.49802
    R5        1.83539   0.00068   0.00000   0.00343   0.00343   1.83882
    A1        1.87950  -0.00484   0.00000  -0.06142  -0.06142   1.81809
    A2        2.77727   0.00130   0.00000   0.00787   0.00787   2.78514
    A3        1.85710  -0.00140   0.00000  -0.01164  -0.01164   1.84546
    A4        1.75374   0.00315   0.00000   0.01893   0.01893   1.77267
    D1        0.15122  -0.00127   0.00000   0.17660   0.17660   0.32781
    D2       -0.44763  -0.00110   0.00000  -0.32246  -0.32246  -0.77009
    D3        1.48792  -0.00008   0.00000  -0.04868  -0.04868   1.43924
         Item               Value     Threshold  Converged?
 Maximum Force            0.005328     0.000450     NO 
 RMS     Force            0.002963     0.000300     NO 
 Maximum Displacement     0.143067     0.001800     NO 
 RMS     Displacement     0.083436     0.001200     NO 
 Predicted change in Energy=-4.878222D-04
 GradGradGradGradGradGradGradGradGradGradGradGradGradGradGradGradGradGrad

                          Input orientation:                          
 ---------------------------------------------------------------------
 Center     Atomic      Atomic             Coordinates (Angstroms)
 Number     Number       Type             X           Y           Z
 ---------------------------------------------------------------------
      1          8           0        1.207776    0.608519   -0.072350
      2          8           0        1.246341   -0.633446    0.200600
      3          1           0        0.155911    0.840186   -0.098812
      4          8           0       -1.404906   -0.562211   -0.149978
      5          8           0       -1.207875    0.716750    0.119914
      6          1           0       -1.162800   -1.043306    0.660445
 ---------------------------------------------------------------------
                    Distance matrix (angstroms):
                    1          2          3          4          5
     1  O    0.000000
     2  O    1.272190   0.000000
     3  H    1.077399   1.857491   0.000000
     4  O    2.864043   2.675274   2.098925   0.000000
     5  O    2.425706   2.802269   1.386720   1.321894   0.000000
     6  H    2.980796   2.486645   2.421365   0.973064   1.841738
                    6
     6  H    0.000000
 Stoichiometry    H2O4(3)
 Framework group  C1[X(H2O4)]
 Deg. of freedom    12
 Full point group                 C1      NOp   1
 Largest Abelian subgroup         C1      NOp   1
 Largest concise Abelian subgroup C1      NOp   1
                         Standard orientation:                         
 ---------------------------------------------------------------------
 Center     Atomic      Atomic             Coordinates (Angstroms)
 Number     Number       Type             X           Y           Z
 ---------------------------------------------------------------------
      1          8           0       -1.277108   -0.580063   -0.105028
      2          8           0       -1.310600    0.676355    0.091844
      3          1           0       -0.227011   -0.820823   -0.094081
      4          8           0        1.346919    0.564136   -0.194678
      5          8           0        1.132728   -0.694704    0.147152
      6          1           0        1.091493    1.095030    0.579765
 ---------------------------------------------------------------------
 Rotational constants (GHZ):     17.4422039      4.7696959      3.8355222
 Standard basis: 6-311+G(2df,2p) (5D, 7F)
 There are   154 symmetry adapted basis functions of A   symmetry.
 Integral buffers will be    131072 words long.
 Raffenetti 2 integral format.
 Two-electron integral symmetry is turned on.
   154 basis functions,   230 primitive gaussians,   174 cartesian basis functions
    18 alpha electrons       16 beta electrons
       nuclear repulsion energy       124.0421766330 Hartrees.
 NAtoms=    6 NActive=    6 NUniq=    6 SFac= 1.00D+00 NAtFMM=   50 NAOKFM=F Big=F
 One-electron integrals computed using PRISM.
 NBasis=   154 RedAO= T  NBF=   154
 NBsUse=   154 1.00D-06 NBFU=   154
 Initial guess read from the read-write file.
 B after Tr=     0.000000    0.000000    0.000000
         Rot=    1.000000    0.000000    0.000000    0.000000 Ang=   0.00 deg.
 Initial guess orbital symmetries:
 Alpha Orbitals:
       Occupied  (A) (A) (A) (A) (A) (A) (A) (A) (A) (A) (A) (A)
                 (A) (A) (A) (A) (A) (A)
       Virtual   (A) (A) (A) (A) (A) (A) (A) (A) (A) (A) (A) (A)
                 (A) (A) (A) (A) (A) (A) (A) (A) (A) (A) (A) (A)
                 (A) (A) (A) (A) (A) (A) (A) (A) (A) (A) (A) (A)
                 (A) (A) (A) (A) (A) (A) (A) (A) (A) (A) (A) (A)
                 (A) (A) (A) (A) (A) (A) (A) (A) (A) (A) (A) (A)
                 (A) (A) (A) (A) (A) (A) (A) (A) (A) (A) (A) (A)
                 (A) (A) (A) (A) (A) (A) (A) (A) (A) (A) (A) (A)
                 (A) (A) (A) (A) (A) (A) (A) (A) (A) (A) (A) (A)
                 (A) (A) (A) (A) (A) (A) (A) (A) (A) (A) (A) (A)
                 (A) (A) (A) (A) (A) (A) (A) (A) (A) (A) (A) (A)
                 (A) (A) (A) (A) (A) (A) (A) (A) (A) (A) (A) (A)
                 (A) (A) (A) (A)
 Beta  Orbitals:
       Occupied  (A) (A) (A) (A) (A) (A) (A) (A) (A) (A) (A) (A)
                 (A) (A) (A) (A)
       Virtual   (A) (A) (A) (A) (A) (A) (A) (A) (A) (A) (A) (A)
                 (A) (A) (A) (A) (A) (A) (A) (A) (A) (A) (A) (A)
                 (A) (A) (A) (A) (A) (A) (A) (A) (A) (A) (A) (A)
                 (A) (A) (A) (A) (A) (A) (A) (A) (A) (A) (A) (A)
                 (A) (A) (A) (A) (A) (A) (A) (A) (A) (A) (A) (A)
                 (A) (A) (A) (A) (A) (A) (A) (A) (A) (A) (A) (A)
                 (A) (A) (A) (A) (A) (A) (A) (A) (A) (A) (A) (A)
                 (A) (A) (A) (A) (A) (A) (A) (A) (A) (A) (A) (A)
                 (A) (A) (A) (A) (A) (A) (A) (A) (A) (A) (A) (A)
                 (A) (A) (A) (A) (A) (A) (A) (A) (A) (A) (A) (A)
                 (A) (A) (A) (A) (A) (A) (A) (A) (A) (A) (A) (A)
                 (A) (A) (A) (A) (A) (A)
 Initial guess <Sx>= 0.0000 <Sy>= 0.0000 <Sz>= 1.0000 <S**2>= 2.0176 S= 1.0059
 Harris functional with IExCor= 1009 diagonalized for initial guess.
 ExpMin= 8.45D-02 ExpMax= 8.59D+03 ExpMxC= 1.30D+03 IAcc=2 IRadAn=         0 AccDes= 0.00D+00
 HarFok:  IExCor= 1009 AccDes= 0.00D+00 IRadAn=         0 IDoV= 1
 ScaDFX=  1.000000  1.000000  1.000000  1.000000
 FoFCou: FMM=F IPFlag=           0 FMFlag=      100000 FMFlg1=           0
         NFxFlg=           0 DoJE=T BraDBF=F KetDBF=T FulRan=T
         Omega=  0.000000  0.000000  1.000000  0.000000  0.000000 ICntrl=     500 IOpCl=  0
         NMat0=    1 NMatS0=    1 NMatT0=    0 NMatD0=    1 NMtDS0=    0 NMtDT0=    0
         I1Cent=           4 NGrid=           0.
 Petite list used in FoFCou.
 Requested convergence on RMS density matrix=1.00D-08 within 128 cycles.
 Requested convergence on MAX density matrix=1.00D-06.
 Requested convergence on             energy=1.00D-06.
 No special actions if energy rises.
 Keep R1 and R2 ints in memory in canonical form, NReq=234660103.
 Integral accuracy reduced to 1.0D-05 until final iterations.
 Initial convergence to 1.0D-05 achieved.  Increase integral accuracy.
 SCF Done:  E(UM062X) =  -301.805383222     A.U. after   27 cycles
             Convg  =    0.4804D-08             -V/T =  2.0026
 <Sx>= 0.0000 <Sy>= 0.0000 <Sz>= 1.0000 <S**2>= 2.0173 S= 1.0058
 <L.S>= 0.000000000000E+00
 Annihilation of the first spin contaminant:
 S**2 before annihilation     2.0173,   after     2.0002
 Calling FoFJK, ICntrl=      2127 FMM=F ISym2X=0 I1Cent= 0 IOpClX= 1 NMat=1 NMatS=1 NMatT=0.
 ***** Axes restored to original set *****
 -------------------------------------------------------------------
 Center     Atomic                   Forces (Hartrees/Bohr)
 Number     Number              X              Y              Z
 -------------------------------------------------------------------
      1        8          -0.013248977   -0.003122153   -0.001002100
      2        8           0.002586158    0.000642055   -0.000035317
      3        1           0.008939504    0.003006003    0.002675292
      4        8           0.000246235    0.001062670    0.000965180
      5        8           0.001176389   -0.001660824   -0.002296760
      6        1           0.000300691    0.000072249   -0.000306294
 -------------------------------------------------------------------
 Cartesian Forces:  Max     0.013248977 RMS     0.004090812

 GradGradGradGradGradGradGradGradGradGradGradGradGradGradGradGradGradGrad
 Berny optimization.
 Internal  Forces:  Max     0.009917668 RMS     0.003514174
 Search for a saddle point.
 Step number   4 out of a maximum of   22
 All quantities printed in internal units (Hartrees-Bohrs-Radians)
 Swaping is turned off.
 Update second derivatives using D2CorX and points    3    4
 The second derivative matrix:
                          R1        R2        R3        R4        R5
           R1           0.74786
           R2           0.09828   0.13121
           R3          -0.08228   0.15149   0.06332
           R4           0.06490  -0.04756   0.04560   0.37313
           R5          -0.00743   0.00590  -0.00544   0.00817   0.52182
           A1           0.07607   0.01581   0.02642  -0.03106   0.00365
           A2           0.01090   0.04690   0.05287  -0.02094   0.00255
           A3          -0.00240  -0.00313  -0.00023   0.07442  -0.00563
           A4           0.00111   0.01799   0.03552   0.05773   0.00160
           D1          -0.00198   0.00168   0.00449  -0.00446  -0.00004
           D2           0.01793  -0.01638   0.00519  -0.00373   0.00165
           D3           0.02836   0.00882   0.01913  -0.00684   0.00417
                          A1        A2        A3        A4        D1
           A1           0.20734
           A2           0.05401   0.13611
           A3           0.00012  -0.00062   0.23212
           A4           0.02000   0.06993   0.01036   0.28550
           D1          -0.00608  -0.00230   0.00012  -0.00366   0.02098
           D2           0.00258  -0.00434  -0.00418   0.00071   0.01550
           D3           0.00216   0.01152   0.00395   0.02421  -0.00091
                          D2        D3
           D2           0.01468
           D3          -0.00063   0.02395
 ITU=  0  0  0  0
     Eigenvalues ---   -0.09746   0.00206   0.02114   0.03480   0.07863
     Eigenvalues ---    0.17766   0.20600   0.22483   0.36702   0.43444
     Eigenvalues ---    0.52250   0.78638
 Eigenvectors required to have negative eigenvalues:
                          R3        R2        R4        R1        D2
   1                    0.73954  -0.58856  -0.17170   0.16918  -0.15145
                          D3        A1        A2        A3        R5
   1                   -0.12016  -0.08272  -0.05198   0.03454   0.01862
 RFO step:  Lambda0=1.643761843D-04 Lambda=-9.02508402D-04.
 Linear search not attempted -- option 19 set.
 Iteration  1 RMS(Cart)=  0.03056211 RMS(Int)=  0.01100934
 Iteration  2 RMS(Cart)=  0.01673115 RMS(Int)=  0.00028307
 Iteration  3 RMS(Cart)=  0.00038817 RMS(Int)=  0.00000007
 Iteration  4 RMS(Cart)=  0.00000009 RMS(Int)=  0.00000000
 Variable       Old X    -DE/DX   Delta X   Delta X   Delta X     New X
                                 (Linear)    (Quad)   (Total)
    R1        2.40409  -0.00059   0.00000  -0.00977  -0.00977   2.39432
    R2        2.03599  -0.00992   0.00000  -0.01856  -0.01856   2.01743
    R3        2.62052  -0.00192   0.00000  -0.01746  -0.01746   2.60306
    R4        2.49802  -0.00128   0.00000   0.00110   0.00110   2.49912
    R5        1.83882  -0.00019   0.00000  -0.00145  -0.00145   1.83738
    A1        1.81809   0.00629   0.00000   0.03021   0.03021   1.84830
    A2        2.78514  -0.00133   0.00000  -0.00050  -0.00050   2.78464
    A3        1.84546   0.00002   0.00000   0.00378   0.00378   1.84924
    A4        1.77267  -0.00099   0.00000  -0.00571  -0.00571   1.76696
    D1        0.32781  -0.00042   0.00000  -0.17452  -0.17452   0.15330
    D2       -0.77009   0.00106   0.00000   0.23631   0.23631  -0.53378
    D3        1.43924  -0.00071   0.00000   0.00568   0.00568   1.44491
         Item               Value     Threshold  Converged?
 Maximum Force            0.009918     0.000450     NO 
 RMS     Force            0.003514     0.000300     NO 
 Maximum Displacement     0.064677     0.001800     NO 
 RMS     Displacement     0.042314     0.001200     NO 
 Predicted change in Energy=-4.078926D-04
 GradGradGradGradGradGradGradGradGradGradGradGradGradGradGradGradGradGrad

                          Input orientation:                          
 ---------------------------------------------------------------------
 Center     Atomic      Atomic             Coordinates (Angstroms)
 Number     Number       Type             X           Y           Z
 ---------------------------------------------------------------------
      1          8           0        1.188957    0.600015   -0.061415
      2          8           0        1.241635   -0.644889    0.168321
      3          1           0        0.151762    0.852851   -0.066534
      4          8           0       -1.370681   -0.572409   -0.151971
      5          8           0       -1.210315    0.718093    0.088503
      6          1           0       -1.166912   -1.027170    0.682915
 ---------------------------------------------------------------------
                    Distance matrix (angstroms):
                    1          2          3          4          5
     1  O    0.000000
     2  O    1.267020   0.000000
     3  H    1.067579   1.867139   0.000000
     4  O    2.816829   2.632876   2.087222   0.000000
     5  O    2.406848   2.806448   1.377479   1.322475   0.000000
     6  H    2.958357   2.492398   2.415586   0.972299   1.844222
                    6
     6  H    0.000000
 Stoichiometry    H2O4(3)
 Framework group  C1[X(H2O4)]
 Deg. of freedom    12
 Full point group                 C1      NOp   1
 Largest Abelian subgroup         C1      NOp   1
 Largest concise Abelian subgroup C1      NOp   1
                         Standard orientation:                         
 ---------------------------------------------------------------------
 Center     Atomic      Atomic             Coordinates (Angstroms)
 Number     Number       Type             X           Y           Z
 ---------------------------------------------------------------------
      1          8           0       -1.251487   -0.587626   -0.087244
      2          8           0       -1.310126    0.667603    0.074934
      3          1           0       -0.214292   -0.838504   -0.055431
      4          8           0        1.308842    0.582978   -0.181737
      5          8           0        1.143825   -0.693261    0.123097
      6          1           0        1.085863    1.080959    0.623036
 ---------------------------------------------------------------------
 Rotational constants (GHZ):     17.4247268      4.8861026      3.8952771
 Standard basis: 6-311+G(2df,2p) (5D, 7F)
 There are   154 symmetry adapted basis functions of A   symmetry.
 Integral buffers will be    131072 words long.
 Raffenetti 2 integral format.
 Two-electron integral symmetry is turned on.
   154 basis functions,   230 primitive gaussians,   174 cartesian basis functions
    18 alpha electrons       16 beta electrons
       nuclear repulsion energy       124.6968301418 Hartrees.
 NAtoms=    6 NActive=    6 NUniq=    6 SFac= 1.00D+00 NAtFMM=   50 NAOKFM=F Big=F
 One-electron integrals computed using PRISM.
 NBasis=   154 RedAO= T  NBF=   154
 NBsUse=   154 1.00D-06 NBFU=   154
 Initial guess read from the read-write file.
 B after Tr=     0.000000    0.000000    0.000000
         Rot=    1.000000    0.000000    0.000000    0.000000 Ang=   0.00 deg.
 Initial guess orbital symmetries:
 Alpha Orbitals:
       Occupied  (A) (A) (A) (A) (A) (A) (A) (A) (A) (A) (A) (A)
                 (A) (A) (A) (A) (A) (A)
       Virtual   (A) (A) (A) (A) (A) (A) (A) (A) (A) (A) (A) (A)
                 (A) (A) (A) (A) (A) (A) (A) (A) (A) (A) (A) (A)
                 (A) (A) (A) (A) (A) (A) (A) (A) (A) (A) (A) (A)
                 (A) (A) (A) (A) (A) (A) (A) (A) (A) (A) (A) (A)
                 (A) (A) (A) (A) (A) (A) (A) (A) (A) (A) (A) (A)
                 (A) (A) (A) (A) (A) (A) (A) (A) (A) (A) (A) (A)
                 (A) (A) (A) (A) (A) (A) (A) (A) (A) (A) (A) (A)
                 (A) (A) (A) (A) (A) (A) (A) (A) (A) (A) (A) (A)
                 (A) (A) (A) (A) (A) (A) (A) (A) (A) (A) (A) (A)
                 (A) (A) (A) (A) (A) (A) (A) (A) (A) (A) (A) (A)
                 (A) (A) (A) (A) (A) (A) (A) (A) (A) (A) (A) (A)
                 (A) (A) (A) (A)
 Beta  Orbitals:
       Occupied  (A) (A) (A) (A) (A) (A) (A) (A) (A) (A) (A) (A)
                 (A) (A) (A) (A)
       Virtual   (A) (A) (A) (A) (A) (A) (A) (A) (A) (A) (A) (A)
                 (A) (A) (A) (A) (A) (A) (A) (A) (A) (A) (A) (A)
                 (A) (A) (A) (A) (A) (A) (A) (A) (A) (A) (A) (A)
                 (A) (A) (A) (A) (A) (A) (A) (A) (A) (A) (A) (A)
                 (A) (A) (A) (A) (A) (A) (A) (A) (A) (A) (A) (A)
                 (A) (A) (A) (A) (A) (A) (A) (A) (A) (A) (A) (A)
                 (A) (A) (A) (A) (A) (A) (A) (A) (A) (A) (A) (A)
                 (A) (A) (A) (A) (A) (A) (A) (A) (A) (A) (A) (A)
                 (A) (A) (A) (A) (A) (A) (A) (A) (A) (A) (A) (A)
                 (A) (A) (A) (A) (A) (A) (A) (A) (A) (A) (A) (A)
                 (A) (A) (A) (A) (A) (A) (A) (A) (A) (A) (A) (A)
                 (A) (A) (A) (A) (A) (A)
 Initial guess <Sx>= 0.0000 <Sy>= 0.0000 <Sz>= 1.0000 <S**2>= 2.0171 S= 1.0057
 Harris functional with IExCor= 1009 diagonalized for initial guess.
 ExpMin= 8.45D-02 ExpMax= 8.59D+03 ExpMxC= 1.30D+03 IAcc=2 IRadAn=         0 AccDes= 0.00D+00
 HarFok:  IExCor= 1009 AccDes= 0.00D+00 IRadAn=         0 IDoV= 1
 ScaDFX=  1.000000  1.000000  1.000000  1.000000
 FoFCou: FMM=F IPFlag=           0 FMFlag=      100000 FMFlg1=           0
         NFxFlg=           0 DoJE=T BraDBF=F KetDBF=T FulRan=T
         Omega=  0.000000  0.000000  1.000000  0.000000  0.000000 ICntrl=     500 IOpCl=  0
         NMat0=    1 NMatS0=    1 NMatT0=    0 NMatD0=    1 NMtDS0=    0 NMtDT0=    0
         I1Cent=           4 NGrid=           0.
 Petite list used in FoFCou.
 Requested convergence on RMS density matrix=1.00D-08 within 128 cycles.
 Requested convergence on MAX density matrix=1.00D-06.
 Requested convergence on             energy=1.00D-06.
 No special actions if energy rises.
 Keep R1 and R2 ints in memory in canonical form, NReq=234660103.
 Integral accuracy reduced to 1.0D-05 until final iterations.
 Initial convergence to 1.0D-05 achieved.  Increase integral accuracy.
 SCF Done:  E(UM062X) =  -301.805797527     A.U. after   23 cycles
             Convg  =    0.4429D-08             -V/T =  2.0025
 <Sx>= 0.0000 <Sy>= 0.0000 <Sz>= 1.0000 <S**2>= 2.0172 S= 1.0057
 <L.S>= 0.000000000000E+00
 Annihilation of the first spin contaminant:
 S**2 before annihilation     2.0172,   after     2.0002
 Calling FoFJK, ICntrl=      2127 FMM=F ISym2X=0 I1Cent= 0 IOpClX= 1 NMat=1 NMatS=1 NMatT=0.
 ***** Axes restored to original set *****
 -------------------------------------------------------------------
 Center     Atomic                   Forces (Hartrees/Bohr)
 Number     Number              X              Y              Z
 -------------------------------------------------------------------
      1        8          -0.002170779    0.001047068   -0.000969923
      2        8           0.000517634   -0.001290653    0.000436247
      3        1           0.001562491    0.000669801    0.001185510
      4        8          -0.000628507    0.000169158   -0.000073900
      5        8           0.000619497   -0.000671479   -0.000632099
      6        1           0.000099664    0.000076105    0.000054165
 -------------------------------------------------------------------
 Cartesian Forces:  Max     0.002170779 RMS     0.000908321

 GradGradGradGradGradGradGradGradGradGradGradGradGradGradGradGradGradGrad
 Berny optimization.
 Internal  Forces:  Max     0.001560770 RMS     0.000788199
 Search for a saddle point.
 Step number   5 out of a maximum of   22
 All quantities printed in internal units (Hartrees-Bohrs-Radians)
 Swaping is turned off.
 Update second derivatives using D2CorX and points    2    3    4    5
 The second derivative matrix:
                          R1        R2        R3        R4        R5
           R1           0.74514
           R2           0.09985   0.14010
           R3          -0.08310   0.15025   0.06206
           R4           0.06526  -0.04528   0.04576   0.37354
           R5          -0.00768   0.00619  -0.00551   0.00823   0.52180
           A1           0.07642   0.00831   0.02672  -0.03260   0.00350
           A2           0.00947   0.04838   0.05228  -0.02056   0.00246
           A3          -0.00174  -0.00474  -0.00051   0.07426  -0.00560
           A4          -0.00144   0.02086   0.03494   0.05826   0.00139
           D1           0.00580  -0.00832   0.00360  -0.00549   0.00026
           D2           0.01765  -0.01554   0.00488  -0.00347   0.00167
           D3           0.03411   0.00532   0.01868  -0.00694   0.00443
                          A1        A2        A3        A4        D1
           A1           0.21350
           A2           0.05325   0.13551
           A3           0.00089  -0.00050   0.23190
           A4           0.01943   0.06875   0.01097   0.28320
           D1           0.00058  -0.00049  -0.00116   0.00336   0.01774
           D2           0.00148  -0.00432  -0.00442   0.00065   0.01348
           D3           0.00478   0.01317   0.00295   0.02967  -0.00311
                          D2        D3
           D2           0.01469
           D3          -0.00183   0.02336
 ITU=  0  0  0  0  0
     Eigenvalues ---   -0.09601   0.00254   0.02029   0.03164   0.07849
     Eigenvalues ---    0.18099   0.21343   0.22251   0.36663   0.43470
     Eigenvalues ---    0.52250   0.78481
 Eigenvectors required to have negative eigenvalues:
                          R3        R2        R1        R4        D3
   1                    0.74081  -0.57479   0.17416  -0.17216  -0.15041
                          D2        A1        D1        A2        A3
   1                   -0.14002  -0.09999  -0.07006  -0.04554   0.03199
 RFO step:  Lambda0=1.091775872D-05 Lambda=-6.62673906D-05.
 Linear search not attempted -- option 19 set.
 Iteration  1 RMS(Cart)=  0.00871913 RMS(Int)=  0.00033430
 Iteration  2 RMS(Cart)=  0.00087683 RMS(Int)=  0.00000035
 Iteration  3 RMS(Cart)=  0.00000034 RMS(Int)=  0.00000000
 Variable       Old X    -DE/DX   Delta X   Delta X   Delta X     New X
[...]
    R4        2.50017   0.00003   0.00000   0.00015   0.00015   2.50031
    R5        1.83724   0.00000   0.00000   0.00001   0.00001   1.83725
    A1        1.85108  -0.00002   0.00000  -0.00010  -0.00010   1.85098
    A2        2.79158  -0.00002   0.00000   0.00003   0.00003   2.79161
    A3        1.84824   0.00000   0.00000  -0.00002  -0.00002   1.84822
    A4        1.77967  -0.00007   0.00000  -0.00026  -0.00026   1.77942
    D1        0.02998  -0.00001   0.00000  -0.00082  -0.00082   0.02915
    D2       -0.41831  -0.00001   0.00000   0.00031   0.00031  -0.41800
    D3        1.41878   0.00000   0.00000  -0.00092  -0.00092   1.41785
         Item               Value     Threshold  Converged?
 Maximum Force            0.000067     0.000450     YES
 RMS     Force            0.000024     0.000300     YES
 Maximum Displacement     0.001671     0.001800     YES
 RMS     Displacement     0.000662     0.001200     YES
 Predicted change in Energy=-1.617350D-08
 Optimization completed.
    -- Stationary point found.
                           ----------------------------
                           !   Optimized Parameters   !
                           ! (Angstroms and Degrees)  !
 --------------------------                            --------------------------
 ! Name  Definition              Value          Derivative Info.                !
 --------------------------------------------------------------------------------
 ! R1    R(1,2)                  1.2668         -DE/DX =    0.0                 !
 ! R2    R(1,3)                  1.0696         -DE/DX =    0.0                 !
 ! R3    R(3,5)                  1.3652         -DE/DX =    0.0                 !
 ! R4    R(4,5)                  1.323          -DE/DX =    0.0                 !
 ! R5    R(4,6)                  0.9722         -DE/DX =    0.0                 !
 ! A1    A(2,1,3)              106.0589         -DE/DX =    0.0                 !
 ! A2    A(1,3,5)              159.9456         -DE/DX =    0.0                 !
 ! A3    A(5,4,6)              105.8961         -DE/DX =    0.0                 !
 ! A4    A(3,5,4)              101.9678         -DE/DX =   -0.0001              !
 ! D1    D(2,1,3,5)              1.7175         -DE/DX =    0.0                 !
 ! D2    D(1,3,5,4)            -23.9676         -DE/DX =    0.0                 !
 ! D3    D(6,4,5,3)             81.2899         -DE/DX =    0.0                 !
 --------------------------------------------------------------------------------
 GradGradGradGradGradGradGradGradGradGradGradGradGradGradGradGradGradGrad

                          Input orientation:                          
 ---------------------------------------------------------------------
 Center     Atomic      Atomic             Coordinates (Angstroms)
 Number     Number       Type             X           Y           Z
 ---------------------------------------------------------------------
      1          8           0        1.185616    0.597808   -0.070444
      2          8           0        1.244982   -0.644775    0.169023
      3          1           0        0.147269    0.853787   -0.050079
      4          8           0       -1.375146   -0.572712   -0.152623
      5          8           0       -1.204630    0.718011    0.082682
      6          1           0       -1.163646   -1.025626    0.681260
 ---------------------------------------------------------------------
                    Distance matrix (angstroms):
                    1          2          3          4          5
     1  O    0.000000
     2  O    1.266839   0.000000
     3  H    1.069628   1.870473   0.000000
     4  O    2.816801   2.640780   2.088818   0.000000
     5  O    2.398160   2.804504   1.365171   1.323031   0.000000
     6  H    2.952902   2.491771   2.405317   0.972227   1.843976
                    6
     6  H    0.000000
 Stoichiometry    H2O4(3)
 Framework group  C1[X(H2O4)]
 Deg. of freedom    12
 Full point group                 C1      NOp   1
 Largest Abelian subgroup         C1      NOp   1
 Largest concise Abelian subgroup C1      NOp   1
                         Standard orientation:                         
 ---------------------------------------------------------------------
 Center     Atomic      Atomic             Coordinates (Angstroms)
 Number     Number       Type             X           Y           Z
 ---------------------------------------------------------------------
      1          8           0       -1.247642   -0.586872   -0.090795
      2          8           0       -1.313438    0.667233    0.075860
      3          1           0       -0.209824   -0.839089   -0.032293
      4          8           0        1.313389    0.582417   -0.181642
      5          8           0        1.138594   -0.693114    0.123115
      6          1           0        1.082602    1.081775    0.619984
 ---------------------------------------------------------------------
 Rotational constants (GHZ):     17.4409686      4.8869249      3.8970288

 **********************************************************************

            Population analysis using the SCF density.

 **********************************************************************

 Orbital symmetries:
 Alpha Orbitals:
       Occupied  (A) (A) (A) (A) (A) (A) (A) (A) (A) (A) (A) (A)
                 (A) (A) (A) (A) (A) (A)
       Virtual   (A) (A) (A) (A) (A) (A) (A) (A) (A) (A) (A) (A)
                 (A) (A) (A) (A) (A) (A) (A) (A) (A) (A) (A) (A)
                 (A) (A) (A) (A) (A) (A) (A) (A) (A) (A) (A) (A)
                 (A) (A) (A) (A) (A) (A) (A) (A) (A) (A) (A) (A)
                 (A) (A) (A) (A) (A) (A) (A) (A) (A) (A) (A) (A)
                 (A) (A) (A) (A) (A) (A) (A) (A) (A) (A) (A) (A)
                 (A) (A) (A) (A) (A) (A) (A) (A) (A) (A) (A) (A)
                 (A) (A) (A) (A) (A) (A) (A) (A) (A) (A) (A) (A)
                 (A) (A) (A) (A) (A) (A) (A) (A) (A) (A) (A) (A)
                 (A) (A) (A) (A) (A) (A) (A) (A) (A) (A) (A) (A)
                 (A) (A) (A) (A) (A) (A) (A) (A) (A) (A) (A) (A)
                 (A) (A) (A) (A)
 Beta  Orbitals:
       Occupied  (A) (A) (A) (A) (A) (A) (A) (A) (A) (A) (A) (A)
                 (A) (A) (A) (A)
       Virtual   (A) (A) (A) (A) (A) (A) (A) (A) (A) (A) (A) (A)
                 (A) (A) (A) (A) (A) (A) (A) (A) (A) (A) (A) (A)
                 (A) (A) (A) (A) (A) (A) (A) (A) (A) (A) (A) (A)
                 (A) (A) (A) (A) (A) (A) (A) (A) (A) (A) (A) (A)
                 (A) (A) (A) (A) (A) (A) (A) (A) (A) (A) (A) (A)
                 (A) (A) (A) (A) (A) (A) (A) (A) (A) (A) (A) (A)
                 (A) (A) (A) (A) (A) (A) (A) (A) (A) (A) (A) (A)
                 (A) (A) (A) (A) (A) (A) (A) (A) (A) (A) (A) (A)
                 (A) (A) (A) (A) (A) (A) (A) (A) (A) (A) (A) (A)
                 (A) (A) (A) (A) (A) (A) (A) (A) (A) (A) (A) (A)
                 (A) (A) (A) (A) (A) (A) (A) (A) (A) (A) (A) (A)
                 (A) (A) (A) (A) (A) (A)
 The electronic state is 3-A.
 Alpha  occ. eigenvalues --  -19.77111 -19.77079 -19.74082 -19.73017  -1.39313
 Alpha  occ. eigenvalues --   -1.35780  -1.03113  -0.98175  -0.72053  -0.66891
 Alpha  occ. eigenvalues --   -0.63243  -0.61240  -0.59360  -0.58951  -0.45044
 Alpha  occ. eigenvalues --   -0.41664  -0.39618  -0.37380
 Alpha virt. eigenvalues --    0.03224   0.06442   0.10914   0.11807   0.13215
 Alpha virt. eigenvalues --    0.15985   0.16324   0.17107   0.19342   0.20545
 Alpha virt. eigenvalues --    0.22187   0.23844   0.24817   0.25227   0.26101
 Alpha virt. eigenvalues --    0.30363   0.31345   0.33367   0.36343   0.38129
 Alpha virt. eigenvalues --    0.48633   0.57145   0.65637   0.71332   0.74046
 Alpha virt. eigenvalues --    0.78740   0.87343   0.92429   0.94753   0.97908
 Alpha virt. eigenvalues --    0.99467   1.01821   1.04323   1.06883   1.08956
 Alpha virt. eigenvalues --    1.10113   1.11867   1.16032   1.29487   1.31127
 Alpha virt. eigenvalues --    1.32583   1.37127   1.38755   1.45304   1.46625
 Alpha virt. eigenvalues --    1.53051   1.55434   1.58552   1.61030   1.67153
 Alpha virt. eigenvalues --    1.70917   1.78180   2.01868   2.03508   2.13124
 Alpha virt. eigenvalues --    2.18326   2.20946   2.23383   2.27438   2.29616
 Alpha virt. eigenvalues --    2.44581   2.46858   2.56818   2.63579   2.64696
 Alpha virt. eigenvalues --    2.83845   3.60877   3.62847   3.71812   3.83597
 Alpha virt. eigenvalues --    3.90258   4.07426   4.43568   4.47744   4.55881
 Alpha virt. eigenvalues --    4.58067   4.63092   4.65430   4.67544   4.68633
 Alpha virt. eigenvalues --    4.77553   4.80620   4.92743   4.95371   4.96045
 Alpha virt. eigenvalues --    4.98959   5.02689   5.04490   5.04801   5.08095
 Alpha virt. eigenvalues --    5.08255   5.08871   5.12717   5.13564   5.16876
 Alpha virt. eigenvalues --    5.19583   5.27099   5.27947   5.34366   5.37278
 Alpha virt. eigenvalues --    5.51351   5.55846   5.60585   5.64601   6.27032
 Alpha virt. eigenvalues --    6.28001   6.45163   6.47853   6.60494   6.67507
 Alpha virt. eigenvalues --    6.71708   6.72750   6.78515   6.80223   6.83324
 Alpha virt. eigenvalues --    6.85751   6.91088   6.94084   6.95934   6.98265
 Alpha virt. eigenvalues --    6.99578   7.19527   7.21033   7.23784   7.26585
 Alpha virt. eigenvalues --    7.35688   7.47166   7.65417   7.80215   7.84205
 Alpha virt. eigenvalues --    7.88373   7.95200  49.91972  49.95490  49.96192
 Alpha virt. eigenvalues --   50.01500
  Beta  occ. eigenvalues --  -19.76326 -19.75749 -19.72254 -19.71967  -1.35028
  Beta  occ. eigenvalues --   -1.32618  -0.99185  -0.91979  -0.68640  -0.63779
  Beta  occ. eigenvalues --   -0.57565  -0.57141  -0.51930  -0.50477  -0.39552
  Beta  occ. eigenvalues --   -0.34957
  Beta virt. eigenvalues --   -0.12881  -0.07478   0.03934   0.07007   0.11569
  Beta virt. eigenvalues --    0.12159   0.13699   0.16506   0.16747   0.17652
  Beta virt. eigenvalues --    0.20011   0.21706   0.22557   0.24144   0.25115
  Beta virt. eigenvalues --    0.26518   0.27228   0.31838   0.32092   0.33492
  Beta virt. eigenvalues --    0.36610   0.38432   0.49035   0.57863   0.66254
  Beta virt. eigenvalues --    0.71929   0.74296   0.78821   0.87607   0.93312
  Beta virt. eigenvalues --    0.95546   0.98427   1.02480   1.04690   1.05080
  Beta virt. eigenvalues --    1.09139   1.09748   1.11355   1.14147   1.17617
  Beta virt. eigenvalues --    1.31130   1.31924   1.35372   1.38746   1.40374
  Beta virt. eigenvalues --    1.46286   1.47875   1.53571   1.56469   1.60522
  Beta virt. eigenvalues --    1.63547   1.68646   1.72275   1.79184   2.02757
  Beta virt. eigenvalues --    2.04778   2.14005   2.19290   2.21651   2.24835
  Beta virt. eigenvalues --    2.28054   2.30618   2.44956   2.47481   2.57136
  Beta virt. eigenvalues --    2.64286   2.64738   2.81939   3.61418   3.63395
  Beta virt. eigenvalues --    3.72107   3.83669   3.89955   4.07276   4.46961
  Beta virt. eigenvalues --    4.49958   4.56281   4.59519   4.64000   4.66438
  Beta virt. eigenvalues --    4.67530   4.69932   4.78152   4.81079   4.95329
  Beta virt. eigenvalues --    4.98422   5.00363   5.01618   5.05253   5.06060
  Beta virt. eigenvalues --    5.08736   5.09178   5.09793   5.11331   5.14323
  Beta virt. eigenvalues --    5.15497   5.18868   5.20682   5.28619   5.29304
  Beta virt. eigenvalues --    5.35768   5.40050   5.52230   5.57160   5.61180
  Beta virt. eigenvalues --    5.65198   6.28359   6.28771   6.46883   6.51119
  Beta virt. eigenvalues --    6.68224   6.68506   6.80673   6.80925   6.82445
  Beta virt. eigenvalues --    6.84225   6.86444   6.87605   6.92986   6.97556
  Beta virt. eigenvalues --    6.98456   7.01158   7.03598   7.22358   7.24544
  Beta virt. eigenvalues --    7.27744   7.28965   7.38238   7.47221   7.66686
  Beta virt. eigenvalues --    7.80499   7.85107   7.89382   7.97409  49.91373
  Beta virt. eigenvalues --   49.94647  49.95466  50.00684
          Condensed to atoms (all electrons):
              1          2          3          4          5          6
     1  O    7.699870   0.228659   0.231414   0.011884  -0.016920  -0.002535
     2  O    0.228659   7.960644  -0.073488   0.005063   0.025342   0.008942
     3  H    0.231414  -0.073488   0.382636  -0.009444   0.069822   0.000317
     4  O    0.011884   0.005063  -0.009444   7.608831   0.168934   0.255949
     5  O   -0.016920   0.025342   0.069822   0.168934   8.120169  -0.051781
     6  H   -0.002535   0.008942   0.000317   0.255949  -0.051781   0.523533
 Mulliken atomic charges:
              1
     1  O   -0.152371
     2  O   -0.155162
     3  H    0.398742
     4  O   -0.041218
     5  O   -0.315566
     6  H    0.265575
 Sum of Mulliken atomic charges =   0.00000
 Mulliken charges with hydrogens summed into heavy atoms:
              1
     1  O    0.246371
     2  O   -0.155162
     4  O    0.224357
     5  O   -0.315566
 Sum of Mulliken charges with hydrogens summed into heavy atoms =   0.00000
          Atomic-Atomic Spin Densities.
              1          2          3          4          5          6
     1  O    0.726032  -0.239917   0.022453   0.017749  -0.028175   0.000144
     2  O   -0.239917   1.035490   0.012284  -0.039480   0.027444  -0.001053
     3  H    0.022453   0.012284  -0.094041   0.006506   0.007779   0.000877
     4  O    0.017749  -0.039480   0.006506   0.405483  -0.110803   0.001665
     5  O   -0.028175   0.027444   0.007779  -0.110803   0.586646   0.001173
     6  H    0.000144  -0.001053   0.000877   0.001665   0.001173  -0.016904
 Mulliken atomic spin densities:
              1
     1  O    0.498286
     2  O    0.794768
     3  H   -0.044142
     4  O    0.281121
     5  O    0.484066
     6  H   -0.014098
 Sum of Mulliken atomic spin densities =   2.00000
 Electronic spatial extent (au):  <R**2>=            291.2220
 Charge=              0.0000 electrons
 Dipole moment (field-independent basis, Debye):
    X=              0.8353    Y=              0.7547    Z=              1.1461  Tot=              1.6066
 Quadrupole moment (field-independent basis, Debye-Ang):
   XX=            -25.6654   YY=            -21.0658   ZZ=            -21.8520
   XY=              2.5466   XZ=              1.4755   YZ=              1.6381
 Traceless Quadrupole moment (field-independent basis, Debye-Ang):
   XX=             -2.8043   YY=              1.7953   ZZ=              1.0091
   XY=              2.5466   XZ=              1.4755   YZ=              1.6381
 Octapole moment (field-independent basis, Debye-Ang**2):
  XXX=              2.3559  YYY=              2.0630  ZZZ=              0.7031  XYY=              2.0400
  XXY=              2.0775  XXZ=              1.8634  XZZ=              0.2431  YZZ=              1.4123
  YYZ=              1.9325  XYZ=              2.1041
 Hexadecapole moment (field-independent basis, Debye-Ang**3):
 XXXX=           -230.7681 YYYY=            -68.1907 ZZZZ=            -19.7808 XXXY=              3.4482
 XXXZ=              2.6451 YYYX=              4.7613 YYYZ=              2.1655 ZZZX=              0.8764
 ZZZY=              1.6033 XXYY=            -51.2933 XXZZ=            -39.7434 YYZZ=            -15.1549
 XXYZ=              1.9676 YYXZ=              2.2926 ZZXY=              1.4762
 N-N= 1.247300110203D+02 E-N=-1.427425370971D+03  KE= 4.479807107681D+02
                          Isotropic Fermi Contact Couplings
        Atom                 a.u.       MegaHertz       Gauss      10(-4) cm-1
     1  O(17)              0.07097     -21.51028      -7.67540      -7.17506
     2  O(17)              0.13268     -40.21538     -14.34985     -13.41441
     3  H(1)              -0.03192     -71.33457     -25.45395     -23.79465
     4  O(17)              0.06325     -19.17110      -6.84072      -6.39479
     5  O(17)              0.07763     -23.53072      -8.39634      -7.84900
     6  H(1)              -0.00598     -13.35460      -4.76525      -4.45462
 --------------------------------------------------------
       Center         ----  Spin Dipole Couplings  ----
                      3XX-RR        3YY-RR        3ZZ-RR
 --------------------------------------------------------
     1   Atom       -0.042311     -1.380396      1.422707
     2   Atom       -0.640151     -1.828768      2.468919
     3   Atom        0.203588     -0.092212     -0.111376
     4   Atom        1.402514     -0.786431     -0.616083
     5   Atom        2.005278     -1.139560     -0.865717
     6   Atom       -0.011183     -0.010346      0.021529
 --------------------------------------------------------
                        XY            XZ            YZ
 --------------------------------------------------------
     1   Atom        0.055547     -0.057164     -0.382522
     2   Atom        0.078656     -0.280419     -0.605886
     3   Atom       -0.046008      0.016552     -0.003378
     4   Atom       -0.188460      0.568474     -0.014235
     5   Atom       -0.310530      0.889355     -0.079458
     6   Atom       -0.006004     -0.004710      0.052702
 --------------------------------------------------------


 ---------------------------------------------------------------------------------
              Anisotropic Spin Dipole Couplings in Principal Axis System
 ---------------------------------------------------------------------------------

       Atom             a.u.   MegaHertz   Gauss  10(-4) cm-1        Axes

              Baa    -1.4333   103.711    37.007    34.594 -0.0341  0.9907  0.1320
     1 O(17)  Bbb    -0.0434     3.140     1.120     1.047  0.9985  0.0282  0.0463
              Bcc     1.4767  -106.851   -38.127   -35.642 -0.0421 -0.1334  0.9902
 
              Baa    -1.9138   138.481    49.413    46.192 -0.0315  0.9904  0.1349
     2 O(17)  Bbb    -0.6648    48.103    17.164    16.045  0.9955  0.0190  0.0928
              Bcc     2.5786  -186.584   -66.578   -62.238 -0.0893 -0.1372  0.9865
 
              Baa    -0.1123   -59.925   -21.383   -19.989 -0.0417  0.0719  0.9965
     3 H(1)   Bbb    -0.0991   -52.900   -18.876   -17.646  0.1534  0.9860 -0.0647
              Bcc     0.2115   112.825    40.259    37.634  0.9873 -0.1502  0.0522
 
              Baa    -0.8215    59.446    21.212    19.829  0.1955  0.8542 -0.4818
     4 O(17)  Bbb    -0.7447    53.889    19.229    17.976 -0.1771  0.5140  0.8393
              Bcc     1.5663  -113.336   -40.441   -37.805  0.9646 -0.0788  0.2518
 
              Baa    -1.1709    84.727    30.233    28.262  0.1327  0.9825 -0.1310
     5 O(17)  Bbb    -1.1175    80.860    28.853    26.972 -0.2554  0.1616  0.9532
              Bcc     2.2884  -165.587   -59.086   -55.234  0.9577 -0.0931  0.2724
 
              Baa    -0.0496   -26.451    -9.438    -8.823  0.0530  0.8039 -0.5924
     6 H(1)   Bbb    -0.0118    -6.308    -2.251    -2.104  0.9935  0.0175  0.1127
              Bcc     0.0614    32.759    11.689    10.927 -0.1009  0.5945  0.7978
 

 ---------------------------------------------------------------------------------

 1\1\GINC-COMPUTE-3-041\FTS\UM062X\6-311+G(2df,2p)\H2O4(3)\ROOT\11-May-
 2017\0\\# m062x/6-311+g(2df,2p) opt=(ts,calcfc,noeigentest)\\[O]O+[O]O
 _OO+[O][O]\\0,3\O,1.1856157833,0.5978078923,-0.0704442526\O,1.24498232
 07,-0.6447753264,0.1690230647\H,0.147269252,0.8537867461,-0.0500790594
 \O,-1.3751457598,-0.572711985,-0.1526229531\O,-1.2046298056,0.71801113
 12,0.0826821127\H,-1.1636457905,-1.0256264582,0.6812600877\\Version=EM
 64L-G09RevB.01\State=3-A\HF=-301.8058345\S2=2.017346\S2-1=0.\S2A=2.000
 164\RMSD=6.432e-09\RMSF=2.074e-05\Dipole=-0.3394063,-0.2704163,0.45955
 19\Quadrupole=-2.0256755,1.19093,0.8347454,1.8579813,-1.2708063,-1.200
 3166\PG=C01 [X(H2O4)]\\@


 HONESTY IN A LAWYER IS LIKE A HEN'S HIND LEGS.
  -- MAGNUS OLESON, LAKE WOBEGON PATRIARCH, C.1875
 Job cpu time:  0 days  6 hours 10 minutes 21.6 seconds.
 File lengths (MBytes):  RWF=     92 Int=      0 D2E=      0 Chk=      3 Scr=      1
 Normal termination of Gaussian 09 at Thu May 11 17:32:00 2017.
