 Entering Gaussian System, Link 0=/shared/apps/gaussian/G09_LINUX_LINDA/g09/g09
 Input=/gss_gpfs_scratch/harms.n/QMscratch/[O]O+[O]OCCCCO_OO+[O]OC[CH]CCOIRC.gjf
 Output=/gss_gpfs_scratch/harms.n/QMscratch/[O]O+[O]OCCCCO_OO+[O]OC[CH]CCOIRC.log
 Initial command:
 /shared/apps/gaussian/G09_LINUX_LINDA/g09/l1.exe /gss_gpfs_scratch/harms.n/comparerTST/Gau-25675.inp -scrdir=/gss_gpfs_scratch/harms.n/comparerTST/
 Entering Link 1 = /shared/apps/gaussian/G09_LINUX_LINDA/g09/l1.exe PID=     25676.
  
 Copyright (c) 1988,1990,1992,1993,1995,1998,2003,2009,2010,
            Gaussian, Inc.  All Rights Reserved.
  
 This is part of the Gaussian(R) 09 program.  It is based on
 the Gaussian(R) 03 system (copyright 2003, Gaussian, Inc.),
 the Gaussian(R) 98 system (copyright 1998, Gaussian, Inc.),
 the Gaussian(R) 94 system (copyright 1995, Gaussian, Inc.),
 the Gaussian 92(TM) system (copyright 1992, Gaussian, Inc.),
 the Gaussian 90(TM) system (copyright 1990, Gaussian, Inc.),
 the Gaussian 88(TM) system (copyright 1988, Gaussian, Inc.),
 the Gaussian 86(TM) system (copyright 1986, Carnegie Mellon
 University), and the Gaussian 82(TM) system (copyright 1983,
 Carnegie Mellon University). Gaussian is a federally registered
 trademark of Gaussian, Inc.
  
 This software contains proprietary and confidential information,
 including trade secrets, belonging to Gaussian, Inc.
  
 This software is provided under written license and may be
 used, copied, transmitted, or stored only in accord with that
 written license.
  
 The following legend is applicable only to US Government
 contracts under FAR:
  
                    RESTRICTED RIGHTS LEGEND
  
 Use, reproduction and disclosure by the US Government is
 subject to restrictions as set forth in subparagraphs (a)
 and (c) of the Commercial Computer Software - Restricted
 Rights clause in FAR 52.227-19.
  
 Gaussian, Inc.
 340 Quinnipiac St., Bldg. 40, Wallingford CT 06492
  
  
 ---------------------------------------------------------------
 Warning -- This program may not be used in any manner that
 competes with the business of Gaussian, Inc. or will provide
 assistance to any competitor of Gaussian, Inc.  The licensee
 of this program is prohibited from giving any competitor of
 Gaussian, Inc. access to this program.  By using this program,
 the user acknowledges that Gaussian, Inc. is engaged in the
 business of creating and licensing software in the field of
 computational chemistry and represents and warrants to the
 licensee that it is not a competitor of Gaussian, Inc. and that
 it will not use this program in any manner prohibited above.
 ---------------------------------------------------------------
  

 Cite this work as:
 Gaussian 09, Revision B.01,
 M. J. Frisch, G. W. Trucks, H. B. Schlegel, G. E. Scuseria, 
 M. A. Robb, J. R. Cheeseman, G. Scalmani, V. Barone, B. Mennucci, 
 G. A. Petersson, H. Nakatsuji, M. Caricato, X. Li, H. P. Hratchian, 
 A. F. Izmaylov, J. Bloino, G. Zheng, J. L. Sonnenberg, M. Hada, 
 M. Ehara, K. Toyota, R. Fukuda, J. Hasegawa, M. Ishida, T. Nakajima, 
 Y. Honda, O. Kitao, H. Nakai, T. Vreven, J. A. Montgomery, Jr., 
 J. E. Peralta, F. Ogliaro, M. Bearpark, J. J. Heyd, E. Brothers, 
 K. N. Kudin, V. N. Staroverov, T. Keith, R. Kobayashi, J. Normand, 
 K. Raghavachari, A. Rendell, J. C. Burant, S. S. Iyengar, J. Tomasi, 
 M. Cossi, N. Rega, J. M. Millam, M. Klene, J. E. Knox, J. B. Cross, 
 V. Bakken, C. Adamo, J. Jaramillo, R. Gomperts, R. E. Stratmann, 
 O. Yazyev, A. J. Austin, R. Cammi, C. Pomelli, J. W. Ochterski, 
 R. L. Martin, K. Morokuma, V. G. Zakrzewski, G. A. Voth, 
 P. Salvador, J. J. Dannenberg, S. Dapprich, A. D. Daniels, 
 O. Farkas, J. B. Foresman, J. V. Ortiz, J. Cioslowski, 
 and D. J. Fox, Gaussian, Inc., Wallingford CT, 2010.
 
 ******************************************
 Gaussian 09:  EM64L-G09RevB.01 12-Aug-2010
                12-Aug-2017 
 ******************************************
 %nprocshared=20
 Will use up to   20 processors via shared memory.
 %mem=5GB
 %chk=/gss_gpfs_scratch/harms.n/QMscratch/[O]O+[O]OCCCCO_OO+[O]OC[CH]CCO
 ----------------------------------------------------------------------
 # m062x/6-311+g(2df,2p) irc=(calcall,report=read) geom=allcheck guess=
 check nosymm
 ----------------------------------------------------------------------
 1/10=4,14=-1,18=10,26=3,29=7,38=1,44=3,71=1,129=1/1,23;
 2/12=2,15=1,29=1,40=1/2;
 3/5=4,6=6,7=214,11=2,14=-4,16=1,25=1,30=1,71=2,74=-55,116=-2/1,2,3;
 4/5=1/1;
 5/5=2,38=6/2;
 8/6=4,10=90,11=11/1;
 11/6=1,8=1,9=11,15=111,16=1,31=1/1,2,10;
 10/6=1,31=1/2;
 6/7=2,8=2,9=2,10=2,18=1,28=1/1;
 7/10=1,25=1,30=1/1,2,3,16;
 1/10=4,14=-1,18=10,44=3,71=1,129=1/23(3);
 2/15=1,29=1/2;
 7/8=1,9=1,25=1,30=1,44=-1/16;
 99/5=20/99;
 2/15=1,29=1/2;
 3/5=4,6=6,7=214,11=2,14=-2,16=1,25=1,30=1,71=2,74=-55/1,2,3;
 4/5=5,16=3/1;
 5/5=2,38=5/2;
 8/6=4,10=90,11=11/1;
 11/6=1,8=1,9=11,15=111,16=1,31=1/1,2,10;
 10/6=1,31=1/2;
 7/10=1,25=1,30=1/1,2,3,16;
 1/10=4,14=-1,18=10,44=3,71=1,129=1/23(-8);
 2/15=1,29=1/2;
 6/7=2,8=2,9=2,10=2,18=1,19=2,28=1/1;
 7/8=1,9=1,25=1,30=1,44=-1/16;
 99/5=20/99;
 ------------------------------
 [O]O+[O]OCCCCO_OO+[O]OC[CH]CCO
 ------------------------------
 Redundant internal coordinates taken from checkpoint file:
 /gss_gpfs_scratch/harms.n/QMscratch/[O]O+[O]OCCCCO_OO+[O]OC[CH]CCO.chk
 Charge =  0 Multiplicity = 3
 C,0,0.177024,-0.810679,0.620147
 C,0,-0.117153,0.651511,0.824288
 C,0,1.17857,-1.23485,-0.413875
 C,0,-0.370977,1.434658,-0.458331
 O,0,2.538566,-0.926396,0.003903
 O,0,-0.771955,2.760872,-0.180033
 H,0,-0.952885,-1.298114,0.099154
 H,0,0.258911,-1.382773,1.542864
 H,0,-0.995255,0.75488,1.466046
 H,0,0.720711,1.109942,1.364923
 H,0,1.187893,-2.315593,-0.54009
 H,0,1.022037,-0.752819,-1.376843
 H,0,-1.191413,0.977625,-1.012441
 H,0,0.520504,1.427379,-1.091068
 O,0,2.778936,0.344105,-0.05205
 H,0,-0.023706,3.242956,0.177438
 O,0,-2.874506,-0.661349,0.001524
 O,0,-1.976867,-1.638444,-0.378657
 H,0,-3.304976,-1.037617,0.779146
 Recover connectivity data from disk.
 IRC-IRC-IRC-IRC-IRC-IRC-IRC-IRC-IRC-IRC-IRC-IRC-IRC-IRC-IRC-IRC-IRC-IRC
 Reading IRC summary table definitions from input file.
 ------------------------------------------------------------------------
 INPUT DATA FOR L123
 ------------------------------------------------------------------------
 GENERAL PARAMETERS:
 Follow reaction path in both directions.
 Maximum points per path      =  10
 Step size                    =   0.100 bohr
 Integration scheme           = HPC                                 
    Redo corrector integration= Yes                                 
    Max correction cycles     =  20
 Initial Hessian              = CalcFC
 Hessian evaluation           = Full Hessian always
 ------------------------------------------------------------------------
 IRC-IRC-IRC-IRC-IRC-IRC-IRC-IRC-IRC-IRC-IRC-IRC-IRC-IRC-IRC-IRC-IRC-IRC
                          Input orientation:                          
 ---------------------------------------------------------------------
 Center     Atomic      Atomic             Coordinates (Angstroms)
 Number     Number       Type             X           Y           Z
 ---------------------------------------------------------------------
      1          6           0        0.177024   -0.810679    0.620147
      2          6           0       -0.117153    0.651511    0.824288
      3          6           0        1.178570   -1.234850   -0.413875
      4          6           0       -0.370977    1.434658   -0.458331
      5          8           0        2.538566   -0.926396    0.003903
      6          8           0       -0.771955    2.760872   -0.180033
      7          1           0       -0.952885   -1.298114    0.099154
      8          1           0        0.258911   -1.382773    1.542864
      9          1           0       -0.995255    0.754880    1.466046
     10          1           0        0.720711    1.109942    1.364923
     11          1           0        1.187893   -2.315593   -0.540090
     12          1           0        1.022037   -0.752819   -1.376843
     13          1           0       -1.191413    0.977625   -1.012441
     14          1           0        0.520504    1.427379   -1.091068
     15          8           0        2.778936    0.344105   -0.052050
     16          1           0       -0.023706    3.242956    0.177438
     17          8           0       -2.874506   -0.661349    0.001524
     18          8           0       -1.976867   -1.638444   -0.378657
     19          1           0       -3.304976   -1.037617    0.779146
 ---------------------------------------------------------------------
                    Distance matrix (angstroms):
                    1          2          3          4          5
     1  C    0.000000
     2  C    1.505395   0.000000
     3  C    1.500739   2.601981   0.000000
     4  C    2.550482   1.524092   3.086964   0.000000
     5  O    2.443364   3.196195   1.455772   3.775404   0.000000
     6  O    3.781114   2.426279   4.452530   1.413180   4.958763
     7  H    1.336309   2.241719   2.193240   2.849114   3.512474
     8  H    1.088762   2.189997   2.167137   3.512756   2.788101
     9  H    2.130905   1.092521   3.495518   2.134256   4.177612
    10  H    2.130510   1.097480   2.978558   2.149762   3.050188
    11  H    2.152388   3.516871   1.088128   4.062160   2.012490
    12  H    2.169185   2.848662   1.088193   2.751219   2.058264
    13  H    2.781366   2.152663   3.296990   1.090428   4.309408
    14  H    2.838158   2.162676   2.824731   1.093228   3.288129
    15  O    2.924948   3.041348   2.277101   3.358024   1.294249
    16  H    4.082676   2.672589   4.673956   1.948010   4.896820
    17  O    3.117183   3.162837   4.114473   3.297328   5.419558
    18  O    2.514369   3.185829   3.181338   3.468312   4.587210
    19  H    3.493008   3.607964   4.643747   4.031357   5.895791
                    6          7          8          9         10
     6  O    0.000000
     7  H    4.072597   0.000000
     8  H    4.604438   1.886774   0.000000
     9  H    2.604504   2.466774   2.479595   0.000000
    10  H    2.709338   3.194030   2.541368   1.755231   0.000000
    11  H    5.453544   2.454960   2.464114   4.268316   3.947357
    12  H    4.122716   2.525120   3.082838   3.797979   3.328356
    13  H    2.012167   2.543920   3.768886   2.496195   3.053782
    14  H    2.068487   3.319008   3.860438   3.047722   2.484500
    15  O    4.297205   4.079980   3.446213   4.088749   2.613543
    16  H    0.959201   4.635819   4.831318   2.965626   2.552259
    17  O    4.020607   2.026729   3.565737   2.771663   4.233428
    18  O    4.565659   1.180113   2.959107   3.177183   4.227366
    19  H    4.665269   2.462231   3.661105   3.003280   4.600141
                   11         12         13         14         15
    11  H    0.000000
    12  H    1.780429   0.000000
    13  H    4.090171   2.833123   0.000000
    14  H    3.841722   2.255319   1.771756   0.000000
    15  O    3.137450   2.458661   4.133687   2.711744   0.000000
    16  H    5.734133   4.413115   2.812664   2.280700   4.038664
    17  O    4.419610   4.134164   2.558742   4.133114   5.742405
    18  O    3.240416   3.282397   2.804004   4.017918   5.162832
    19  H    4.853811   4.842772   3.426096   4.920183   6.293968
                   16         17         18         19
    16  H    0.000000
    17  O    4.837520   0.000000
    18  O    5.286979   1.380220   0.000000
    19  H    5.426978   0.965183   1.861552   0.000000
 Symmetry turned off by external request.
 Stoichiometry    C4H10O5(3)
 Framework group  C1[X(C4H10O5)]
 Deg. of freedom    51
 Full point group                 C1      NOp   1
 Rotational constants (GHZ):      1.6776349      1.0127486      0.6858155
 Standard basis: 6-311+G(2df,2p) (5D, 7F)
 Integral buffers will be    131072 words long.
 Raffenetti 2 integral format.
 Two-electron integral symmetry is turned off.
   396 basis functions,   578 primitive gaussians,   441 cartesian basis functions
    38 alpha electrons       36 beta electrons
       nuclear repulsion energy       490.0051097358 Hartrees.
 NAtoms=   19 NActive=   19 NUniq=   19 SFac= 1.00D+00 NAtFMM=   50 NAOKFM=F Big=F
 One-electron integrals computed using PRISM.
 NBasis=   396 RedAO= T  NBF=   396
 NBsUse=   396 1.00D-06 NBFU=   396
 Initial guess read from the checkpoint file:  /gss_gpfs_scratch/harms.n/QMscratch/[O]O+[O]OCCCCO_OO+[O]OC[CH]CCO.chk
 B after Tr=     0.000000    0.000000    0.000000
         Rot=    1.000000    0.000000    0.000000    0.000000 Ang=   0.00 deg.
 Initial guess <Sx>= 0.0000 <Sy>= 0.0000 <Sz>= 1.0000 <S**2>= 2.0162 S= 1.0054
 Requested convergence on RMS density matrix=1.00D-08 within 128 cycles.
 Requested convergence on MAX density matrix=1.00D-06.
 Requested convergence on             energy=1.00D-06.
 No special actions if energy rises.
 SCF Done:  E(UM062X) =  -534.210069162     A.U. after    1 cycles
             Convg  =    0.1109D-08             -V/T =  2.0031
 <Sx>= 0.0000 <Sy>= 0.0000 <Sz>= 1.0000 <S**2>= 2.0162 S= 1.0054
 <L.S>= 0.000000000000E+00
 Annihilation of the first spin contaminant:
 S**2 before annihilation     2.0162,   after     2.0001
 Range of M.O.s used for correlation:     1   396
 NBasis=   396 NAE=    38 NBE=    36 NFC=     0 NFV=     0
 NROrb=    396 NOA=    38 NOB=    36 NVA=   358 NVB=   360

 **** Warning!!: The largest alpha MO coefficient is  0.61205075D+02


 **** Warning!!: The largest beta MO coefficient is  0.62561695D+02

 Symmetrizing basis deriv contribution to polar:
 IMax=3 JMax=2 DiffMx= 0.00D+00
 G2DrvN: will do    20 centers at a time, making    1 passes doing MaxLOS=3.
 Calling FoFCou, ICntrl=  3107 FMM=F I1Cent=   0 AccDes= 0.00D+00.
 FoFDir/FoFCou used for L=0 through L=3.
 End of G2Drv Frequency-dependent properties file   721 does not exist.
 End of G2Drv Frequency-dependent properties file   722 does not exist.
          IDoAtm=1111111111111111111
          Differentiating once with respect to electric field.
                with respect to dipole field.
          Differentiating once with respect to nuclear coordinates.
          There are    60 degrees of freedom in the 1st order CPHF.  IDoFFX=5.
     57 vectors produced by pass  0 Test12= 4.43D-14 1.67D-09 XBig12= 1.18D+02 4.56D+00.
 AX will form    57 AO Fock derivatives at one time.
     57 vectors produced by pass  1 Test12= 4.43D-14 1.67D-09 XBig12= 1.63D+01 6.57D-01.
     57 vectors produced by pass  2 Test12= 4.43D-14 1.67D-09 XBig12= 9.16D-01 1.55D-01.
     57 vectors produced by pass  3 Test12= 4.43D-14 1.67D-09 XBig12= 1.24D-02 1.12D-02.
     57 vectors produced by pass  4 Test12= 4.43D-14 1.67D-09 XBig12= 1.85D-04 1.50D-03.
     57 vectors produced by pass  5 Test12= 4.43D-14 1.67D-09 XBig12= 2.15D-06 1.37D-04.
     57 vectors produced by pass  6 Test12= 4.43D-14 1.67D-09 XBig12= 2.02D-08 1.90D-05.
     31 vectors produced by pass  7 Test12= 4.43D-14 1.67D-09 XBig12= 1.61D-10 9.79D-07.
      3 vectors produced by pass  8 Test12= 4.43D-14 1.67D-09 XBig12= 1.31D-12 8.41D-08.
      3 vectors produced by pass  9 Test12= 4.43D-14 1.67D-09 XBig12= 3.17D-14 2.25D-08.
      3 vectors produced by pass 10 Test12= 4.43D-14 1.67D-09 XBig12= 1.99D-15 5.82D-09.
      3 vectors produced by pass 11 Test12= 4.43D-14 1.67D-09 XBig12= 5.97D-16 3.26D-09.
      2 vectors produced by pass 12 Test12= 4.43D-14 1.67D-09 XBig12= 8.70D-16 3.60D-09.
      2 vectors produced by pass 13 Test12= 4.43D-14 1.67D-09 XBig12= 3.06D-16 2.00D-09.
      1 vectors produced by pass 14 Test12= 4.43D-14 1.67D-09 XBig12= 4.35D-16 2.54D-09.
 Inverted reduced A of dimension   447 with in-core refinement.
 Isotropic polarizability for W=    0.000000       85.28 Bohr**3.
 End of Minotr Frequency-dependent properties file   721 does not exist.
 End of Minotr Frequency-dependent properties file   722 does not exist.

 **********************************************************************

            Population analysis using the SCF density.

 **********************************************************************

 Alpha  occ. eigenvalues --  -19.76042 -19.71078 -19.70797 -19.70637 -19.62321
 Alpha  occ. eigenvalues --  -10.61977 -10.58377 -10.58091 -10.55040  -1.35579
 Alpha  occ. eigenvalues --   -1.29492  -1.14842  -1.01808  -1.00831  -0.91826
 Alpha  occ. eigenvalues --   -0.82285  -0.75543  -0.69411  -0.65109  -0.63162
 Alpha  occ. eigenvalues --   -0.61932  -0.60457  -0.60008  -0.58827  -0.54627
 Alpha  occ. eigenvalues --   -0.54237  -0.51921  -0.51138  -0.47862  -0.45255
 Alpha  occ. eigenvalues --   -0.44730  -0.42598  -0.40216  -0.39635  -0.38309
 Alpha  occ. eigenvalues --   -0.37498  -0.35237  -0.31180
 Alpha virt. eigenvalues --    0.00655   0.01677   0.01987   0.03082   0.04693
 Alpha virt. eigenvalues --    0.05074   0.05424   0.06598   0.07884   0.09413
 Alpha virt. eigenvalues --    0.09726   0.10148   0.10769   0.11561   0.12582
 Alpha virt. eigenvalues --    0.13844   0.14016   0.15306   0.16196   0.17033
 Alpha virt. eigenvalues --    0.18078   0.19082   0.19986   0.20269   0.21324
 Alpha virt. eigenvalues --    0.22070   0.22310   0.22984   0.23399   0.24346
 Alpha virt. eigenvalues --    0.25013   0.25175   0.25705   0.25895   0.26608
 Alpha virt. eigenvalues --    0.27228   0.27845   0.28834   0.29313   0.29881
 Alpha virt. eigenvalues --    0.30326   0.31493   0.32320   0.33802   0.34480
 Alpha virt. eigenvalues --    0.34807   0.36375   0.36635   0.37042   0.37695
 Alpha virt. eigenvalues --    0.39278   0.40423   0.41136   0.44179   0.47272
 Alpha virt. eigenvalues --    0.48349   0.49953   0.50412   0.51674   0.52384
 Alpha virt. eigenvalues --    0.54657   0.56676   0.57250   0.57592   0.58847
 Alpha virt. eigenvalues --    0.60154   0.60388   0.61442   0.63296   0.63505
 Alpha virt. eigenvalues --    0.64792   0.66182   0.67345   0.68837   0.69342
 Alpha virt. eigenvalues --    0.70758   0.73017   0.74331   0.75672   0.77230
 Alpha virt. eigenvalues --    0.79909   0.81658   0.84031   0.85209   0.86542
 Alpha virt. eigenvalues --    0.88028   0.91867   0.93225   0.94900   0.96121
 Alpha virt. eigenvalues --    0.99175   0.99878   1.02235   1.03166   1.03636
 Alpha virt. eigenvalues --    1.05636   1.06660   1.08701   1.09493   1.10912
 Alpha virt. eigenvalues --    1.11428   1.12055   1.13782   1.14516   1.15285
 Alpha virt. eigenvalues --    1.16511   1.17462   1.18684   1.19906   1.20184
 Alpha virt. eigenvalues --    1.21306   1.21563   1.23042   1.23890   1.24823
 Alpha virt. eigenvalues --    1.25887   1.26807   1.27678   1.28430   1.30131
 Alpha virt. eigenvalues --    1.32364   1.35183   1.37402   1.38217   1.39286
 Alpha virt. eigenvalues --    1.40476   1.41477   1.42146   1.43641   1.45337
 Alpha virt. eigenvalues --    1.46075   1.47614   1.48791   1.50175   1.51749
 Alpha virt. eigenvalues --    1.53255   1.54575   1.56507   1.57353   1.58394
 Alpha virt. eigenvalues --    1.59431   1.60838   1.61278   1.63514   1.64688
 Alpha virt. eigenvalues --    1.66199   1.67937   1.70933   1.72341   1.73527
 Alpha virt. eigenvalues --    1.75801   1.78034   1.79416   1.82382   1.88109
 Alpha virt. eigenvalues --    1.91637   1.95928   1.97939   2.00144   2.03480
 Alpha virt. eigenvalues --    2.09645   2.12969   2.14877   2.21764   2.22913
 Alpha virt. eigenvalues --    2.25998   2.28028   2.29433   2.31860   2.33837
 Alpha virt. eigenvalues --    2.34262   2.44800   2.50150   2.53564   2.56728
 Alpha virt. eigenvalues --    2.58793   2.61314   2.66782   2.69140   2.70690
 Alpha virt. eigenvalues --    2.71919   2.73789   2.75443   2.79025   2.80483
 Alpha virt. eigenvalues --    2.82090   2.86428   2.91126   2.92774   2.95473
 Alpha virt. eigenvalues --    2.98165   3.01915   3.03330   3.03489   3.09580
 Alpha virt. eigenvalues --    3.11319   3.13707   3.18161   3.20570   3.21974
 Alpha virt. eigenvalues --    3.24027   3.26613   3.27421   3.29810   3.32747
 Alpha virt. eigenvalues --    3.34589   3.37015   3.40785   3.44454   3.45626
 Alpha virt. eigenvalues --    3.48681   3.51450   3.54329   3.56204   3.57165
 Alpha virt. eigenvalues --    3.58546   3.61065   3.61998   3.64021   3.66298
 Alpha virt. eigenvalues --    3.68113   3.69827   3.71321   3.72891   3.74510
 Alpha virt. eigenvalues --    3.76029   3.76685   3.79072   3.79873   3.83949
 Alpha virt. eigenvalues --    3.88636   3.90970   3.94173   3.95038   3.98056
 Alpha virt. eigenvalues --    3.99371   4.00460   4.02664   4.05765   4.08568
 Alpha virt. eigenvalues --    4.09913   4.10710   4.13243   4.14927   4.18393
 Alpha virt. eigenvalues --    4.21233   4.22451   4.23339   4.29195   4.30090
 Alpha virt. eigenvalues --    4.32428   4.35164   4.37991   4.38187   4.42038
 Alpha virt. eigenvalues --    4.45424   4.47298   4.50084   4.50693   4.53676
 Alpha virt. eigenvalues --    4.56312   4.58808   4.58968   4.61452   4.63106
 Alpha virt. eigenvalues --    4.64124   4.66502   4.68292   4.70900   4.73142
 Alpha virt. eigenvalues --    4.76044   4.78776   4.82933   4.84283   4.89981
 Alpha virt. eigenvalues --    4.94526   5.01472   5.03144   5.04414   5.06241
 Alpha virt. eigenvalues --    5.12566   5.13973   5.15681   5.16195   5.17159
 Alpha virt. eigenvalues --    5.17658   5.19552   5.21883   5.22347   5.23921
 Alpha virt. eigenvalues --    5.24860   5.27338   5.28741   5.31844   5.34328
 Alpha virt. eigenvalues --    5.36474   5.40778   5.41489   5.42886   5.46423
 Alpha virt. eigenvalues --    5.47936   5.51619   5.53729   5.55247   5.58416
 Alpha virt. eigenvalues --    5.60748   5.61501   5.63898   5.71183   5.74096
 Alpha virt. eigenvalues --    5.75476   5.85379   5.95493   6.08733   6.11490
 Alpha virt. eigenvalues --    6.33027   6.37087   6.40845   6.52281   6.53618
 Alpha virt. eigenvalues --    6.76124   6.80127   6.82303   6.84473   6.86474
 Alpha virt. eigenvalues --    6.88596   6.90542   6.96392   6.98493   6.98857
 Alpha virt. eigenvalues --    7.09016   7.10134   7.13167   7.18800   7.20446
 Alpha virt. eigenvalues --    7.24666   7.25723   7.27518   7.28226   7.31326
 Alpha virt. eigenvalues --    7.46260   7.50653   7.52171   7.64311   7.64887
 Alpha virt. eigenvalues --    7.80687   7.90778   7.93077   7.95923  24.22762
 Alpha virt. eigenvalues --   24.34751  24.44273  24.51261  49.98152  49.99107
 Alpha virt. eigenvalues --   50.04106  50.06933  50.14172
  Beta  occ. eigenvalues --  -19.75081 -19.70866 -19.69849 -19.69242 -19.62322
  Beta  occ. eigenvalues --  -10.62027 -10.58372 -10.57609 -10.55056  -1.32089
  Beta  occ. eigenvalues --   -1.27715  -1.14841  -0.98853  -0.97552  -0.90141
  Beta  occ. eigenvalues --   -0.80996  -0.74692  -0.67914  -0.63125  -0.60697
  Beta  occ. eigenvalues --   -0.60251  -0.58764  -0.57358  -0.54526  -0.53055
  Beta  occ. eigenvalues --   -0.52323  -0.50777  -0.48929  -0.45947  -0.44424
  Beta  occ. eigenvalues --   -0.42767  -0.40283  -0.38695  -0.37652  -0.35418
  Beta  occ. eigenvalues --   -0.34685
  Beta virt. eigenvalues --   -0.10939  -0.06545   0.00732   0.01777   0.01946
  Beta virt. eigenvalues --    0.03157   0.04999   0.05097   0.05558   0.06656
  Beta virt. eigenvalues --    0.07944   0.09509   0.10033   0.10210   0.10942
  Beta virt. eigenvalues --    0.11705   0.12672   0.13943   0.14555   0.15554
  Beta virt. eigenvalues --    0.16454   0.17281   0.18339   0.19378   0.20039
  Beta virt. eigenvalues --    0.20464   0.21740   0.22494   0.22811   0.23425
  Beta virt. eigenvalues --    0.23736   0.24466   0.25339   0.25467   0.25893
  Beta virt. eigenvalues --    0.26223   0.26741   0.27527   0.28203   0.29279
  Beta virt. eigenvalues --    0.29739   0.30222   0.30838   0.31782   0.32571
  Beta virt. eigenvalues --    0.33942   0.34686   0.35052   0.36651   0.36885
  Beta virt. eigenvalues --    0.37870   0.38123   0.39771   0.40716   0.41289
  Beta virt. eigenvalues --    0.44388   0.47466   0.48687   0.50133   0.50403
  Beta virt. eigenvalues --    0.52291   0.52565   0.54709   0.56762   0.57373
  Beta virt. eigenvalues --    0.57769   0.59084   0.60576   0.60763   0.61587
  Beta virt. eigenvalues --    0.63625   0.64486   0.65169   0.66447   0.67553
  Beta virt. eigenvalues --    0.69025   0.69418   0.70925   0.73088   0.74652
  Beta virt. eigenvalues --    0.75772   0.77383   0.80087   0.81787   0.84057
  Beta virt. eigenvalues --    0.85333   0.86750   0.88275   0.92124   0.93849
  Beta virt. eigenvalues --    0.95187   0.96524   0.99396   1.00170   1.02663
  Beta virt. eigenvalues --    1.03417   1.03979   1.06638   1.06896   1.09278
  Beta virt. eigenvalues --    1.10095   1.11230   1.12550   1.13529   1.14533
  Beta virt. eigenvalues --    1.14982   1.16127   1.17027   1.18246   1.18974
  Beta virt. eigenvalues --    1.20493   1.20524   1.21626   1.21932   1.23545
  Beta virt. eigenvalues --    1.24318   1.25107   1.26105   1.27277   1.28084
  Beta virt. eigenvalues --    1.28791   1.30517   1.32759   1.35590   1.37792
  Beta virt. eigenvalues --    1.39172   1.39576   1.41052   1.41869   1.42429
  Beta virt. eigenvalues --    1.44132   1.45779   1.46454   1.47809   1.48907
  Beta virt. eigenvalues --    1.50702   1.52105   1.53982   1.54927   1.57244
  Beta virt. eigenvalues --    1.57699   1.58908   1.59895   1.61336   1.62267
  Beta virt. eigenvalues --    1.64061   1.65587   1.66583   1.68885   1.72182
  Beta virt. eigenvalues --    1.72590   1.73946   1.76887   1.78534   1.80020
  Beta virt. eigenvalues --    1.82740   1.88710   1.93313   1.96167   1.98584
  Beta virt. eigenvalues --    2.01193   2.03888   2.10064   2.13325   2.15717
  Beta virt. eigenvalues --    2.22048   2.23710   2.26699   2.28995   2.29665
  Beta virt. eigenvalues --    2.32014   2.34121   2.34425   2.45912   2.50194
  Beta virt. eigenvalues --    2.53372   2.57027   2.59079   2.61869   2.67284
  Beta virt. eigenvalues --    2.69639   2.71310   2.72166   2.74156   2.76269
  Beta virt. eigenvalues --    2.79731   2.80434   2.83172   2.87729   2.90984
  Beta virt. eigenvalues --    2.91958   2.96360   2.98610   3.03047   3.04263
  Beta virt. eigenvalues --    3.04449   3.10333   3.11614   3.14097   3.18449
  Beta virt. eigenvalues --    3.21082   3.22472   3.24380   3.27075   3.27786
  Beta virt. eigenvalues --    3.30789   3.32967   3.34972   3.37631   3.41721
  Beta virt. eigenvalues --    3.44960   3.46056   3.49148   3.52913   3.55415
  Beta virt. eigenvalues --    3.56727   3.57824   3.60083   3.61372   3.63058
  Beta virt. eigenvalues --    3.65674   3.67662   3.68484   3.71000   3.72540
  Beta virt. eigenvalues --    3.74242   3.75855   3.76296   3.77576   3.79457
  Beta virt. eigenvalues --    3.81189   3.84231   3.88850   3.91456   3.95128
  Beta virt. eigenvalues --    3.95697   3.98697   3.99735   4.00876   4.03498
  Beta virt. eigenvalues --    4.05864   4.08859   4.10771   4.12065   4.13539
  Beta virt. eigenvalues --    4.15150   4.18988   4.21882   4.22864   4.23666
  Beta virt. eigenvalues --    4.30115   4.30959   4.33073   4.35951   4.38222
  Beta virt. eigenvalues --    4.38625   4.42980   4.46285   4.47864   4.50698
  Beta virt. eigenvalues --    4.52375   4.55444   4.57142   4.59086   4.59816
  Beta virt. eigenvalues --    4.62249   4.63167   4.65036   4.67258   4.69006
  Beta virt. eigenvalues --    4.72237   4.73923   4.77081   4.80346   4.84221
  Beta virt. eigenvalues --    4.84760   4.90313   4.95467   5.03292   5.05846
  Beta virt. eigenvalues --    5.06882   5.11398   5.13374   5.14820   5.16799
  Beta virt. eigenvalues --    5.17967   5.18588   5.19159   5.20458   5.22168
  Beta virt. eigenvalues --    5.23103   5.24448   5.25130   5.27977   5.29597
  Beta virt. eigenvalues --    5.32666   5.34918   5.37095   5.42028   5.42213
  Beta virt. eigenvalues --    5.43127   5.46805   5.49643   5.51973   5.54474
  Beta virt. eigenvalues --    5.56597   5.58553   5.61146   5.61719   5.64316
  Beta virt. eigenvalues --    5.71113   5.74280   5.76605   5.85482   5.95501
  Beta virt. eigenvalues --    6.09481   6.11963   6.33141   6.37963   6.43982
  Beta virt. eigenvalues --    6.52819   6.53654   6.82906   6.85274   6.86398
  Beta virt. eigenvalues --    6.88646   6.89167   6.91796   6.92316   6.98848
  Beta virt. eigenvalues --    7.00303   7.01908   7.10470   7.11522   7.16966
  Beta virt. eigenvalues --    7.18936   7.20516   7.24917   7.26183   7.29690
  Beta virt. eigenvalues --    7.30216   7.35334   7.46275   7.52018   7.52639
  Beta virt. eigenvalues --    7.64384   7.64913   7.83086   7.91339   7.93224
  Beta virt. eigenvalues --    7.97061  24.23303  24.34739  24.44513  24.51557
  Beta virt. eigenvalues --   49.97866  49.98549  50.03614  50.06293  50.14170
          Condensed to atoms (all electrons):
              1          2          3          4          5          6
     1  C    7.078386  -0.638047  -0.246323  -0.198028  -0.028516  -0.001965
     2  C   -0.638047   6.518161  -0.031721  -0.274810  -0.011362  -0.031660
     3  C   -0.246323  -0.031721   5.742944  -0.016510   0.159967   0.003647
     4  C   -0.198028  -0.274810  -0.016510   5.709314  -0.015076   0.173844
     5  O   -0.028516  -0.011362   0.159967  -0.015076   7.718628   0.000153
     6  O   -0.001965  -0.031660   0.003647   0.173844   0.000153   8.093611
     7  H    0.205784   0.023082  -0.043880   0.008898   0.004714  -0.000565
     8  H    0.350360  -0.003565  -0.013672   0.020819  -0.004328  -0.000353
     9  H   -0.042087   0.441140   0.009674  -0.035142  -0.001237  -0.006498
    10  H   -0.057676   0.432805  -0.013388   0.004754   0.006825  -0.007783
    11  H   -0.021983   0.000292   0.426096   0.002296  -0.040030   0.000024
    12  H   -0.035966   0.011416   0.404206   0.000479  -0.018904   0.000277
    13  H   -0.023638   0.011329  -0.007208   0.432726   0.000200  -0.048422
    14  H    0.019479  -0.020646   0.007040   0.377487  -0.003620  -0.024499
    15  O   -0.009576  -0.008298  -0.062814   0.036397   0.206569  -0.001930
    16  H    0.017829   0.023362  -0.005253  -0.045199   0.000033   0.225614
    17  O    0.059015  -0.044487   0.004784   0.000711  -0.000011   0.000838
    18  O    0.063905  -0.009985  -0.048272   0.000796  -0.000300  -0.000400
    19  H   -0.001783   0.017403   0.005997  -0.015920  -0.000010  -0.000006
              7          8          9         10         11         12
     1  C    0.205784   0.350360  -0.042087  -0.057676  -0.021983  -0.035966
     2  C    0.023082  -0.003565   0.441140   0.432805   0.000292   0.011416
     3  C   -0.043880  -0.013672   0.009674  -0.013388   0.426096   0.404206
     4  C    0.008898   0.020819  -0.035142   0.004754   0.002296   0.000479
     5  O    0.004714  -0.004328  -0.001237   0.006825  -0.040030  -0.018904
     6  O   -0.000565  -0.000353  -0.006498  -0.007783   0.000024   0.000277
     7  H    0.440306  -0.009796  -0.010117   0.004598  -0.001538  -0.001807
     8  H   -0.009796   0.466548  -0.004339  -0.002280  -0.005557   0.003727
     9  H   -0.010117  -0.004339   0.447501  -0.024970   0.000003  -0.000171
    10  H    0.004598  -0.002280  -0.024970   0.467205  -0.000203  -0.000069
    11  H   -0.001538  -0.005557   0.000003  -0.000203   0.471143  -0.015677
    12  H   -0.001807   0.003727  -0.000171  -0.000069  -0.015677   0.452638
    13  H    0.005501   0.000214  -0.008899   0.003443  -0.000167  -0.000443
    14  H   -0.001381  -0.000740   0.004981  -0.009898   0.000745  -0.004485
    15  O    0.000796   0.000278   0.001440  -0.008440   0.005829  -0.001262
    16  H   -0.000155  -0.000079  -0.001531   0.000408  -0.000001   0.000019
    17  O   -0.057006  -0.001343   0.005874   0.000502  -0.000066  -0.000217
    18  O   -0.006683   0.000971   0.003482  -0.001328   0.001999  -0.000893
    19  H    0.002755   0.000093  -0.001687  -0.000127  -0.000040  -0.000030
             13         14         15         16         17         18
     1  C   -0.023638   0.019479  -0.009576   0.017829   0.059015   0.063905
     2  C    0.011329  -0.020646  -0.008298   0.023362  -0.044487  -0.009985
     3  C   -0.007208   0.007040  -0.062814  -0.005253   0.004784  -0.048272
     4  C    0.432726   0.377487   0.036397  -0.045199   0.000711   0.000796
     5  O    0.000200  -0.003620   0.206569   0.000033  -0.000011  -0.000300
     6  O   -0.048422  -0.024499  -0.001930   0.225614   0.000838  -0.000400
     7  H    0.005501  -0.001381   0.000796  -0.000155  -0.057006  -0.006683
     8  H    0.000214  -0.000740   0.000278  -0.000079  -0.001343   0.000971
     9  H   -0.008899   0.004981   0.001440  -0.001531   0.005874   0.003482
    10  H    0.003443  -0.009898  -0.008440   0.000408   0.000502  -0.001328
    11  H   -0.000167   0.000745   0.005829  -0.000001  -0.000066   0.001999
    12  H   -0.000443  -0.004485  -0.001262   0.000019  -0.000217  -0.000893
    13  H    0.482263  -0.038252  -0.000083   0.008073  -0.012929   0.001259
    14  H   -0.038252   0.535986   0.000402  -0.009763   0.001500  -0.000885
    15  O   -0.000083   0.000402   8.001439  -0.000429   0.000085  -0.000716
    16  H    0.008073  -0.009763  -0.000429   0.537613   0.000082   0.000070
    17  O   -0.012929   0.001500   0.000085   0.000082   7.866776   0.122773
    18  O    0.001259  -0.000885  -0.000716   0.000070   0.122773   8.219660
    19  H    0.000605  -0.000047   0.000001   0.000011   0.214138  -0.036889
             19
     1  C   -0.001783
     2  C    0.017403
     3  C    0.005997
     4  C   -0.015920
     5  O   -0.000010
     6  O   -0.000006
     7  H    0.002755
     8  H    0.000093
     9  H   -0.001687
    10  H   -0.000127
    11  H   -0.000040
    12  H   -0.000030
    13  H    0.000605
    14  H   -0.000047
    15  O    0.000001
    16  H    0.000011
    17  O    0.214138
    18  O   -0.036889
    19  H    0.563985
 Mulliken atomic charges:
              1
     1  C   -0.489169
     2  C   -0.404409
     3  C   -0.275315
     4  C   -0.167836
     5  O    0.026306
     6  O   -0.373927
     7  H    0.436495
     8  H    0.203043
     9  H    0.222586
    10  H    0.205623
    11  H    0.176837
    12  H    0.207161
    13  H    0.194431
    14  H    0.166595
    15  O   -0.159687
    16  H    0.249295
    17  O   -0.161017
    18  O   -0.308563
    19  H    0.251552
 Sum of Mulliken atomic charges =   0.00000
 Mulliken charges with hydrogens summed into heavy atoms:
              1
     1  C   -0.286126
     2  C    0.023800
     3  C    0.108682
     4  C    0.193189
     5  O    0.026306
     6  O   -0.124632
    15  O   -0.159687
    17  O    0.090535
    18  O    0.127932
 Sum of Mulliken charges with hydrogens summed into heavy atoms =   0.00000
          Atomic-Atomic Spin Densities.
              1          2          3          4          5          6
     1  C    0.577969   0.062117  -0.005581   0.000104  -0.026563   0.000642
     2  C    0.062117  -0.025718  -0.071377  -0.005464  -0.011984  -0.000849
     3  C   -0.005581  -0.071377   0.002617   0.008354   0.016053   0.000680
     4  C    0.000104  -0.005464   0.008354  -0.003534   0.001284  -0.000126
     5  O   -0.026563  -0.011984   0.016053   0.001284   0.526025  -0.000023
     6  O    0.000642  -0.000849   0.000680  -0.000126  -0.000023  -0.001026
     7  H    0.100521  -0.029832   0.013473   0.005599   0.000207   0.000018
     8  H   -0.009708   0.004872   0.001411  -0.000141  -0.001017   0.000007
     9  H   -0.019879   0.019496  -0.002114   0.001870  -0.000566  -0.000196
    10  H   -0.003537   0.004856   0.003562  -0.004074   0.004712  -0.000169
    11  H   -0.008544   0.000791   0.005045   0.000302  -0.002864   0.000003
    12  H   -0.019861   0.003383   0.016703  -0.000099  -0.003945   0.000080
    13  H    0.001840  -0.001150  -0.000222  -0.000399  -0.000082   0.000061
    14  H   -0.002164   0.002051  -0.001000   0.001272  -0.000572   0.000365
    15  O    0.003573   0.010378   0.000818   0.001570  -0.178464   0.000207
    16  H   -0.000677  -0.000514   0.000206   0.001056   0.000024   0.000534
    17  O    0.051356  -0.018485  -0.001214  -0.003448   0.000451   0.000104
    18  O   -0.148122   0.036934  -0.003638   0.004152  -0.001722  -0.000064
    19  H   -0.001340  -0.000855   0.000140   0.000785  -0.000006  -0.000006
              7          8          9         10         11         12
     1  C    0.100521  -0.009708  -0.019879  -0.003537  -0.008544  -0.019861
     2  C   -0.029832   0.004872   0.019496   0.004856   0.000791   0.003383
     3  C    0.013473   0.001411  -0.002114   0.003562   0.005045   0.016703
     4  C    0.005599  -0.000141   0.001870  -0.004074   0.000302  -0.000099
     5  O    0.000207  -0.001017  -0.000566   0.004712  -0.002864  -0.003945
     6  O    0.000018   0.000007  -0.000196  -0.000169   0.000003   0.000080
     7  H   -0.080362  -0.000618  -0.001874   0.000921  -0.002146  -0.001823
     8  H   -0.000618  -0.027631   0.001168  -0.001487   0.001096   0.000240
     9  H   -0.001874   0.001168   0.013275  -0.005240   0.000063   0.000019
    10  H    0.000921  -0.001487  -0.005240   0.034786  -0.000142  -0.000166
    11  H   -0.002146   0.001096   0.000063  -0.000142   0.005445   0.001628
    12  H   -0.001823   0.000240   0.000019  -0.000166   0.001628   0.007977
    13  H   -0.001519   0.000034  -0.000034  -0.000174   0.000017   0.000276
    14  H   -0.000374   0.000075   0.000156  -0.000517   0.000028  -0.000105
    15  O   -0.000537   0.000506   0.000673  -0.005528   0.000811   0.002446
    16  H    0.000003   0.000003  -0.000137   0.000146   0.000000   0.000001
    17  O    0.034406  -0.002084  -0.006575   0.001418  -0.000460  -0.000499
    18  O   -0.045115   0.005727   0.006166  -0.002130   0.002825   0.002424
    19  H   -0.000359   0.000038   0.000354  -0.000023   0.000006   0.000006
             13         14         15         16         17         18
     1  C    0.001840  -0.002164   0.003573  -0.000677   0.051356  -0.148122
     2  C   -0.001150   0.002051   0.010378  -0.000514  -0.018485   0.036934
     3  C   -0.000222  -0.001000   0.000818   0.000206  -0.001214  -0.003638
     4  C   -0.000399   0.001272   0.001570   0.001056  -0.003448   0.004152
     5  O   -0.000082  -0.000572  -0.178464   0.000024   0.000451  -0.001722
     6  O    0.000061   0.000365   0.000207   0.000534   0.000104  -0.000064
     7  H   -0.001519  -0.000374  -0.000537   0.000003   0.034406  -0.045115
     8  H    0.000034   0.000075   0.000506   0.000003  -0.002084   0.005727
     9  H   -0.000034   0.000156   0.000673  -0.000137  -0.006575   0.006166
    10  H   -0.000174  -0.000517  -0.005528   0.000146   0.001418  -0.002130
    11  H    0.000017   0.000028   0.000811   0.000000  -0.000460   0.002825
    12  H    0.000276  -0.000105   0.002446   0.000001  -0.000499   0.002424
    13  H    0.000111   0.000056   0.000005   0.000072  -0.000183   0.000977
    14  H    0.000056  -0.001637   0.000449  -0.000062  -0.000230   0.000485
    15  O    0.000005   0.000449   0.863566  -0.000138  -0.000284   0.001007
    16  H    0.000072  -0.000062  -0.000138  -0.000679  -0.000003  -0.000006
    17  O   -0.000183  -0.000230  -0.000284  -0.000003   0.119513  -0.092710
    18  O    0.000977   0.000485   0.001007  -0.000006  -0.092710   0.598374
    19  H    0.000000   0.000003   0.000003  -0.000001  -0.001212   0.003637
             19
     1  C   -0.001340
     2  C   -0.000855
     3  C    0.000140
     4  C    0.000785
     5  O   -0.000006
     6  O   -0.000006
     7  H   -0.000359
     8  H    0.000038
     9  H    0.000354
    10  H   -0.000023
    11  H    0.000006
    12  H    0.000006
    13  H    0.000000
    14  H    0.000003
    15  O    0.000003
    16  H   -0.000001
    17  O   -0.001212
    18  O    0.003637
    19  H   -0.003569
 Mulliken atomic spin densities:
              1
     1  C    0.552146
     2  C   -0.021351
     3  C   -0.016084
     4  C    0.009064
     5  O    0.320949
     6  O    0.000244
     7  H   -0.009410
     8  H   -0.027508
     9  H    0.006624
    10  H    0.027217
    11  H    0.003903
    12  H    0.008684
    13  H   -0.000315
    14  H   -0.001718
    15  O    0.701061
    16  H   -0.000168
    17  O    0.079861
    18  O    0.369200
    19  H   -0.002399
 Sum of Mulliken atomic spin densities =   2.00000
 APT atomic charges:
              1
     1  C    0.426918
     2  C   -0.151673
     3  C    0.292439
     4  C    0.461565
     5  O   -0.296274
     6  O   -0.615270
     7  H   -0.360250
     8  H   -0.057655
     9  H    0.014292
    10  H    0.021732
    11  H    0.009296
    12  H    0.010223
    13  H    0.001906
    14  H   -0.034892
    15  O   -0.096217
    16  H    0.257897
    17  O   -0.378799
    18  O    0.226075
    19  H    0.268686
 Sum of APT charges=   0.00000
 APT Atomic charges with hydrogens summed into heavy atoms:
              1
     1  C    0.369263
     2  C   -0.115649
     3  C    0.311958
     4  C    0.428580
     5  O   -0.296274
     6  O   -0.357373
     7  H    0.000000
     8  H    0.000000
     9  H    0.000000
    10  H    0.000000
    11  H    0.000000
    12  H    0.000000
    13  H    0.000000
    14  H    0.000000
    15  O   -0.096217
    16  H    0.000000
    17  O   -0.110113
    18  O   -0.134175
    19  H    0.000000
 Sum of APT charges=   0.00000
 Electronic spatial extent (au):  <R**2>=           1595.9012
 Charge=              0.0000 electrons
 Dipole moment (field-independent basis, Debye):
    X=             -0.3933    Y=             -1.7385    Z=              1.8925  Tot=              2.5997
 Quadrupole moment (field-independent basis, Debye-Ang):
   XX=            -62.2857   YY=            -55.0226   ZZ=            -51.9105
   XY=              4.0849   XZ=             -6.7498   YZ=              0.1141
 Traceless Quadrupole moment (field-independent basis, Debye-Ang):
   XX=             -5.8794   YY=              1.3837   ZZ=              4.4958
   XY=              4.0849   XZ=             -6.7498   YZ=              0.1141
 Octapole moment (field-independent basis, Debye-Ang**2):
  XXX=            -49.2479  YYY=             -1.7965  ZZZ=              0.0057  XYY=             20.4338
  XXY=            -11.4202  XXZ=             15.4947  XZZ=             -2.2742  YZZ=             -2.7788
  YYZ=              8.6054  XYZ=              7.6822
 Hexadecapole moment (field-independent basis, Debye-Ang**3):
 XXXX=          -1050.0855 YYYY=           -658.1855 ZZZZ=           -148.0565 XXXY=             44.3041
 XXXZ=            -67.1484 YYYX=             47.5169 YYYZ=             24.3347 ZZZX=             -6.5133
 ZZZY=             -2.6449 XXYY=           -302.8682 XXZZ=           -181.8321 YYZZ=           -140.3265
 XXYZ=            -17.3756 YYXZ=            -11.9217 ZZXY=              6.2060
 N-N= 4.900051097358D+02 E-N=-3.331953459974D+03  KE= 7.957954282297D+02
  Exact polarizability: 108.837   9.353  83.184   4.303   3.455  63.816
 Approx polarizability: 112.965   7.711  95.883   6.124   4.984  80.011
                          Isotropic Fermi Contact Couplings
        Atom                 a.u.       MegaHertz       Gauss      10(-4) cm-1
     1  C(13)              0.15661      88.02851      31.41076      29.36315
     2  C(13)             -0.00893      -5.01859      -1.79076      -1.67402
     3  C(13)             -0.02053     -11.54187      -4.11842      -3.84995
     4  C(13)              0.00277       1.55566       0.55510       0.51891
     5  O(17)              0.09834     -29.80539     -10.63530      -9.94201
     6  O(17)             -0.00082       0.24978       0.08913       0.08332
     7  H(1)              -0.03175     -70.96176     -25.32092     -23.67029
     8  H(1)              -0.00636     -14.20652      -5.06924      -4.73879
     9  H(1)               0.00676      15.11056       5.39182       5.04034
    10  H(1)               0.02035      45.47564      16.22684      15.16904
    11  H(1)               0.00164       3.67526       1.31143       1.22594
    12  H(1)               0.00458      10.24483       3.65561       3.41731
    13  H(1)              -0.00014      -0.31080      -0.11090      -0.10367
    14  H(1)              -0.00005      -0.10186      -0.03635      -0.03398
    15  O(17)              0.10551     -31.98036     -11.41139     -10.66750
    16  H(1)              -0.00002      -0.04544      -0.01621      -0.01516
    17  O(17)              0.01342      -4.06652      -1.45103      -1.35644
    18  O(17)              0.08926     -27.05394      -9.65352      -9.02422
    19  H(1)              -0.00153      -3.41221      -1.21756      -1.13819
 --------------------------------------------------------
       Center         ----  Spin Dipole Couplings  ----
                      3XX-RR        3YY-RR        3ZZ-RR
 --------------------------------------------------------
     1   Atom        0.408747     -0.221977     -0.186771
     2   Atom        0.016940      0.002846     -0.019786
     3   Atom        0.008488     -0.006601     -0.001887
     4   Atom       -0.002554      0.005257     -0.002704
     5   Atom       -0.373082     -0.982981      1.356063
     6   Atom        0.003622      0.000388     -0.004010
     7   Atom        0.158635     -0.087968     -0.070667
     8   Atom       -0.010215     -0.015752      0.025967
     9   Atom        0.001103      0.001779     -0.002882
    10   Atom        0.004362      0.001759     -0.006121
    11   Atom        0.004912      0.003135     -0.008047
    12   Atom        0.008507     -0.013904      0.005397
    13   Atom       -0.000004      0.003568     -0.003564
    14   Atom        0.002892      0.000708     -0.003600
    15   Atom       -1.018324     -1.494798      2.513121
    16   Atom       -0.000959      0.004239     -0.003280
    17   Atom        0.243865     -0.207614     -0.036251
    18   Atom        0.632793     -0.414217     -0.218576
    19   Atom        0.007302     -0.015495      0.008193
 --------------------------------------------------------
                        XY            XZ            YZ
 --------------------------------------------------------
     1   Atom        0.290147      0.311593      0.134294
     2   Atom        0.015664      0.005461      0.009169
     3   Atom        0.004471     -0.005117      0.009090
     4   Atom       -0.002651      0.000805     -0.008987
     5   Atom       -0.091991     -0.757819      0.262552
     6   Atom        0.001133     -0.002849      0.000152
     7   Atom        0.095929      0.119646      0.042784
     8   Atom        0.011788      0.009021     -0.037590
     9   Atom       -0.006263     -0.005806      0.008842
    10   Atom       -0.001566     -0.003304      0.009580
    11   Atom        0.005018     -0.001122      0.011436
    12   Atom        0.007230      0.005234      0.004412
    13   Atom       -0.001565      0.003217     -0.006337
    14   Atom       -0.004143      0.004016     -0.007256
    15   Atom       -0.144494     -1.297275      0.448104
    16   Atom       -0.002702      0.000257     -0.000515
    17   Atom        0.194561      0.286715      0.078485
    18   Atom        0.965513      1.123798      0.663633
    19   Atom        0.001691     -0.015089     -0.003172
 --------------------------------------------------------


 ---------------------------------------------------------------------------------
              Anisotropic Spin Dipole Couplings in Principal Axis System
 ---------------------------------------------------------------------------------

       Atom             a.u.   MegaHertz   Gauss  10(-4) cm-1        Axes

              Baa    -0.3416   -45.846   -16.359   -15.293 -0.1407  0.8705 -0.4717
     1 C(13)  Bbb    -0.3164   -42.457   -15.150   -14.162 -0.4853  0.3546  0.7992
              Bcc     0.6580    88.303    31.509    29.455  0.8629  0.3414  0.3725
 
              Baa    -0.0230    -3.091    -1.103    -1.031  0.0027 -0.3354  0.9421
     2 C(13)  Bbb    -0.0059    -0.796    -0.284    -0.266 -0.5871  0.7621  0.2730
              Bcc     0.0290     3.887     1.387     1.297  0.8095  0.5538  0.1948
 
              Baa    -0.0155    -2.079    -0.742    -0.694 -0.2687  0.7512 -0.6029
     3 C(13)  Bbb     0.0049     0.652     0.233     0.218  0.2119  0.6566  0.7238
              Bcc     0.0106     1.427     0.509     0.476  0.9396  0.0668 -0.3356
 
              Baa    -0.0087    -1.162    -0.414    -0.387  0.1331  0.5555  0.8208
     4 C(13)  Bbb    -0.0030    -0.396    -0.141    -0.132  0.9737  0.0813 -0.2130
              Bcc     0.0116     1.557     0.556     0.520 -0.1851  0.8275 -0.5301
 
              Baa    -1.0122    73.246    26.136    24.432  0.0200  0.9944 -0.1038
     5 O(17)  Bbb    -0.6581    47.618    16.991    15.884  0.9366  0.0177  0.3501
              Bcc     1.6703  -120.864   -43.127   -40.316 -0.3499  0.1043  0.9310
 
              Baa    -0.0050     0.362     0.129     0.121  0.3234 -0.0945  0.9415
     6 O(17)  Bbb     0.0002    -0.014    -0.005    -0.005 -0.1864  0.9691  0.1613
              Bcc     0.0048    -0.348    -0.124    -0.116  0.9277  0.2277 -0.2958
 
              Baa    -0.1231   -65.703   -23.444   -21.916 -0.1132 -0.6278  0.7701
     7 H(1)   Bbb    -0.1199   -63.961   -22.823   -21.335 -0.4686  0.7172  0.5158
              Bcc     0.2430   129.664    46.267    43.251  0.8761  0.3025  0.3754
 
              Baa    -0.0443   -23.618    -8.428    -7.878 -0.3975  0.7868  0.4722
     8 H(1)   Bbb    -0.0039    -2.075    -0.740    -0.692  0.9170  0.3586  0.1744
              Bcc     0.0482    25.693     9.168     8.570  0.0321 -0.5023  0.8641
 
              Baa    -0.0098    -5.219    -1.862    -1.741  0.1108 -0.5652  0.8175
     9 H(1)   Bbb    -0.0044    -2.330    -0.831    -0.777  0.8299  0.5052  0.2368
              Bcc     0.0141     7.549     2.694     2.518 -0.5468  0.6522  0.5250
 
              Baa    -0.0127    -6.803    -2.427    -2.269  0.1119 -0.5391  0.8348
    10 H(1)   Bbb     0.0028     1.477     0.527     0.493  0.8601  0.4733  0.1904
              Bcc     0.0100     5.326     1.900     1.776 -0.4978  0.6967  0.5166
 
              Baa    -0.0158    -8.446    -3.014    -2.817  0.1756 -0.5420  0.8218
    11 H(1)   Bbb     0.0036     1.919     0.685     0.640  0.8646 -0.3143 -0.3920
              Bcc     0.0122     6.527     2.329     2.177  0.4708  0.7794  0.4134
 
              Baa    -0.0164    -8.754    -3.124    -2.920 -0.2501  0.9589 -0.1340
    12 H(1)   Bbb     0.0015     0.811     0.289     0.271 -0.5752 -0.0358  0.8173
              Bcc     0.0149     7.942     2.834     2.649  0.7789  0.2815  0.5605
 
              Baa    -0.0078    -4.170    -1.488    -1.391 -0.2648  0.4410  0.8576
    13 H(1)   Bbb    -0.0005    -0.293    -0.104    -0.098  0.9009  0.4302  0.0569
              Bcc     0.0084     4.463     1.592     1.489 -0.3438  0.7877 -0.5112
 
              Baa    -0.0091    -4.840    -1.727    -1.614 -0.0753  0.5734  0.8158
    14 H(1)   Bbb    -0.0014    -0.743    -0.265    -0.248  0.7933  0.5301 -0.2994
              Bcc     0.0105     5.583     1.992     1.862 -0.6042  0.6246 -0.4948
 
              Baa    -1.5443   111.744    39.873    37.274  0.0109  0.9943 -0.1063
    15 O(17)  Bbb    -1.4436   104.458    37.273    34.843  0.9507  0.0226  0.3092
              Bcc     2.9879  -216.202   -77.146   -72.117 -0.3098  0.1045  0.9451
 
              Baa    -0.0033    -1.771    -0.632    -0.591 -0.0523  0.0493  0.9974
    16 H(1)   Bbb    -0.0021    -1.125    -0.401    -0.375  0.9189  0.3935  0.0287
              Bcc     0.0054     2.895     1.033     0.966 -0.3910  0.9180 -0.0659
 
              Baa    -0.2865    20.729     7.397     6.915 -0.4466  0.8615  0.2416
    17 O(17)  Bbb    -0.1982    14.345     5.119     4.785 -0.3569 -0.4191  0.8348
              Bcc     0.4847   -35.074   -12.515   -11.699  0.8204  0.2866  0.4947
 
              Baa    -0.9953    72.016    25.697    24.022 -0.6446  0.2433  0.7248
    18 O(17)  Bbb    -0.9865    71.380    25.470    23.810 -0.1942  0.8648 -0.4631
              Bcc     1.9817  -143.396   -51.167   -47.832  0.7394  0.4393  0.5102
 
              Baa    -0.0159    -8.493    -3.031    -2.833  0.0211  0.9894  0.1434
    19 H(1)   Bbb    -0.0072    -3.859    -1.377    -1.287  0.7218 -0.1143  0.6826
              Bcc     0.0232    12.353     4.408     4.120 -0.6917 -0.0891  0.7166
 

 ---------------------------------------------------------------------------------

 Calling FoFJK, ICntrl=    100127 FMM=F ISym2X=0 I1Cent= 0 IOpClX= 1 NMat=1 NMatS=1 NMatT=0.
 -------------------------------------------------------------------
 Center     Atomic                   Forces (Hartrees/Bohr)
 Number     Number              X              Y              Z
 -------------------------------------------------------------------
      1        6           0.000002872    0.000012361    0.000004677
      2        6           0.000000164    0.000006647   -0.000004725
      3        6          -0.000000886   -0.000002838    0.000011471
      4        6          -0.000004857   -0.000005123   -0.000013026
      5        8           0.000005118    0.000006333    0.000007764
      6        8          -0.000006322   -0.000004275   -0.000024245
      7        1           0.000005463   -0.000007872    0.000018803
      8        1           0.000002600    0.000013644    0.000014094
      9        1          -0.000000148    0.000011490   -0.000006109
     10        1          -0.000003699    0.000011179   -0.000010574
     11        1           0.000005706   -0.000003811    0.000021429
     12        1           0.000001316   -0.000012129    0.000006963
     13        1          -0.000001359   -0.000009901   -0.000008227
     14        1          -0.000002838   -0.000012644   -0.000013395
     15        8          -0.000000434    0.000005308   -0.000006656
     16        1          -0.000004284    0.000002515   -0.000030148
     17        8          -0.000001231   -0.000009071    0.000002130
     18        8           0.000001477   -0.000002645    0.000016335
     19        1           0.000001342    0.000000831    0.000013439
 -------------------------------------------------------------------
 Cartesian Forces:  Max     0.000030148 RMS     0.000009743
 IRC-IRC-IRC-IRC-IRC-IRC-IRC-IRC-IRC-IRC-IRC-IRC-IRC-IRC-IRC-IRC-IRC-IRC
          ******** Start new reaction path calculation ********
 Supplied step size of   0.1000 bohr.
    Integration on MW PES will use step size of   0.1055 sqrt(amu)*bohr.
 Point Number:   0          Path Number:   1
 Calculating another point on the path.
 IRC-IRC-IRC-IRC-IRC-IRC-IRC-IRC-IRC-IRC-IRC-IRC-IRC-IRC-IRC-IRC-IRC-IRC
                          Input orientation:                          
 ---------------------------------------------------------------------
 Center     Atomic      Atomic             Coordinates (Angstroms)
 Number     Number       Type             X           Y           Z
 ---------------------------------------------------------------------
      1          6           0        0.160166   -0.803958    0.631476
      2          6           0       -0.137526    0.656326    0.834135
      3          6           0        1.158032   -1.229834   -0.403959
      4          6           0       -0.390848    1.439962   -0.448339
      5          8           0        2.518861   -0.921102    0.014030
      6          8           0       -0.791755    2.766038   -0.169904
      7          1           0       -1.018629   -1.307763    0.089187
      8          1           0        0.233467   -1.380576    1.551770
      9          1           0       -1.015057    0.760213    1.476352
     10          1           0        0.701406    1.113997    1.375128
     11          1           0        1.168032   -2.310523   -0.530061
     12          1           0        1.002113   -0.747604   -1.366792
     13          1           0       -1.211412    0.982863   -1.002091
     14          1           0        0.500744    1.432606   -1.080940
     15          8           0        2.759109    0.349269   -0.041913
     16          1           0       -0.043579    3.248372    0.187433
     17          8           0       -2.895124   -0.655009    0.012129
     18          8           0       -1.994096   -1.633881   -0.368246
     19          1           0       -3.325407   -1.033006    0.788266
 ---------------------------------------------------------------------
                    Distance matrix (angstroms):
                    1          2          3          4          5
     1  C    0.000000
     2  C    1.504035   0.000000
     3  C    1.499744   2.601720   0.000000
     4  C    2.550450   1.524138   3.086877   0.000000
     5  O    2.440984   3.196443   1.456669   3.775555   0.000000
     6  O    3.780639   2.426312   4.452352   1.413056   4.958731
     7  H    1.391925   2.277924   2.233186   2.869327   3.559353
     8  H    1.088486   2.191257   2.168506   3.513636   2.792631
     9  H    2.131102   1.092381   3.495450   2.134509   4.177773
    10  H    2.127090   1.098155   2.977785   2.150420   3.049158
    11  H    2.152835   3.516775   1.088068   4.062379   2.012775
    12  H    2.169130   2.848487   1.088074   2.751244   2.058469
    13  H    2.782534   2.152111   3.296673   1.090370   4.309585
    14  H    2.837355   2.162755   2.824698   1.093240   3.288115
    15  O    2.921967   3.041749   2.277738   3.358128   1.294099
    16  H    4.081674   2.673153   4.674177   1.948114   4.897007
    17  O    3.120990   3.162221   4.114806   3.297322   5.420521
    18  O    2.515762   3.183963   3.178119   3.467756   4.584863
    19  H    3.496608   3.608120   4.643422   4.031922   5.896392
                    6          7          8          9         10
     6  O    0.000000
     7  H    4.088331   0.000000
     8  H    4.605393   1.926706   0.000000
     9  H    2.604487   2.490133   2.479411   0.000000
    10  H    2.710330   3.236833   2.544222   1.755465   0.000000
    11  H    5.453617   2.484046   2.464190   4.268605   3.946495
    12  H    4.122643   2.552852   3.083743   3.798152   3.327779
    13  H    2.012053   2.544606   3.767721   2.496158   3.054053
    14  H    2.068473   3.344744   3.862200   3.047869   2.484764
    15  O    4.297183   4.127257   3.451239   4.088806   2.612844
    16  H    0.959220   4.660337   4.833769   2.965807   2.553659
    17  O    4.020057   1.988281   3.561605   2.771543   4.233460
    18  O    4.565550   1.125670   2.951722   3.176908   4.225627
    19  H    4.665856   2.425990   3.656409   3.004465   4.601006
                   11         12         13         14         15
    11  H    0.000000
    12  H    1.780551   0.000000
    13  H    4.090350   2.833235   0.000000
    14  H    3.841843   2.255305   1.771994   0.000000
    15  O    3.137564   2.458754   4.133814   2.711717   0.000000
    16  H    5.734467   4.413265   2.812709   2.280803   4.038867
    17  O    4.420853   4.135028   2.558545   4.133383   5.742982
    18  O    3.237759   3.280221   2.803873   4.016902   5.160652
    19  H    4.853971   4.842846   3.426088   4.920631   6.294538
                   16         17         18         19
    16  H    0.000000
    17  O    4.837191   0.000000
    18  O    5.286746   1.383738   0.000000
    19  H    5.427853   0.964580   1.863052   0.000000
 Symmetry turned off by external request.
 Stoichiometry    C4H10O5(3)
 Framework group  C1[X(C4H10O5)]
 Deg. of freedom    51
 Full point group                 C1      NOp   1
 Rotational constants (GHZ):      1.6774723      1.0127307      0.6857880
 Standard basis: 6-311+G(2df,2p) (5D, 7F)
 Integral buffers will be    131072 words long.
 Raffenetti 2 integral format.
 Two-electron integral symmetry is turned off.
   396 basis functions,   578 primitive gaussians,   441 cartesian basis functions
    38 alpha electrons       36 beta electrons
       nuclear repulsion energy       489.9963002782 Hartrees.
 NAtoms=   19 NActive=   19 NUniq=   19 SFac= 1.00D+00 NAtFMM=   50 NAOKFM=F Big=F
 One-electron integrals computed using PRISM.
 NBasis=   396 RedAO= T  NBF=   396
 NBsUse=   396 1.00D-06 NBFU=   396
 Initial guess read from the read-write file.
 B after Tr=     0.000000    0.000000    0.000000
         Rot=    1.000000    0.000000    0.000000    0.000000 Ang=   0.00 deg.
 Initial guess <Sx>= 0.0000 <Sy>= 0.0000 <Sz>= 1.0000 <S**2>= 2.0163 S= 1.0054
 Harris functional with IExCor= 1009 diagonalized for initial guess.
 ExpMin= 4.38D-02 ExpMax= 8.59D+03 ExpMxC= 1.30D+03 IAcc=2 IRadAn=         0 AccDes= 0.00D+00
 HarFok:  IExCor= 1009 AccDes= 0.00D+00 IRadAn=         0 IDoV= 1
 ScaDFX=  1.000000  1.000000  1.000000  1.000000
 FoFCou: FMM=F IPFlag=           0 FMFlag=      100000 FMFlg1=           0
         NFxFlg=           0 DoJE=T BraDBF=F KetDBF=T FulRan=T
         Omega=  0.000000  0.000000  1.000000  0.000000  0.000000 ICntrl=     500 IOpCl=  0
         NMat0=    1 NMatS0=    1 NMatT0=    0 NMatD0=    1 NMtDS0=    0 NMtDT0=    0
         I1Cent=           4 NGrid=           0.
 Symmetry not used in FoFCou.
 Requested convergence on RMS density matrix=1.00D-08 within 128 cycles.
 Requested convergence on MAX density matrix=1.00D-06.
 Requested convergence on             energy=1.00D-06.
 No special actions if energy rises.
 SCF Done:  E(UM062X) =  -534.210787087     A.U. after   18 cycles
             Convg  =    0.6054D-08             -V/T =  2.0031
 <Sx>= 0.0000 <Sy>= 0.0000 <Sz>= 1.0000 <S**2>= 2.0155 S= 1.0052
 <L.S>= 0.000000000000E+00
 Annihilation of the first spin contaminant:
 S**2 before annihilation     2.0155,   after     2.0001
 Range of M.O.s used for correlation:     1   396
 NBasis=   396 NAE=    38 NBE=    36 NFC=     0 NFV=     0
 NROrb=    396 NOA=    38 NOB=    36 NVA=   358 NVB=   360

 **** Warning!!: The largest alpha MO coefficient is  0.61257533D+02


 **** Warning!!: The largest beta MO coefficient is  0.62465487D+02

 Symmetrizing basis deriv contribution to polar:
 IMax=3 JMax=2 DiffMx= 0.00D+00
 G2DrvN: will do    20 centers at a time, making    1 passes doing MaxLOS=3.
 Calling FoFCou, ICntrl=  3107 FMM=F I1Cent=   0 AccDes= 0.00D+00.
 FoFDir/FoFCou used for L=0 through L=3.
 End of G2Drv Frequency-dependent properties file   721 does not exist.
 End of G2Drv Frequency-dependent properties file   722 does not exist.
          IDoAtm=1111111111111111111
          Differentiating once with respect to electric field.
                with respect to dipole field.
          Differentiating once with respect to nuclear coordinates.
          There are    60 degrees of freedom in the 1st order CPHF.  IDoFFX=5.
     57 vectors produced by pass  0 Test12= 4.43D-14 1.67D-09 XBig12= 1.09D+02 3.88D+00.
 AX will form    57 AO Fock derivatives at one time.
     57 vectors produced by pass  1 Test12= 4.43D-14 1.67D-09 XBig12= 1.59D+01 6.60D-01.
     57 vectors produced by pass  2 Test12= 4.43D-14 1.67D-09 XBig12= 9.09D-01 1.49D-01.
     57 vectors produced by pass  3 Test12= 4.43D-14 1.67D-09 XBig12= 1.24D-02 1.16D-02.
     57 vectors produced by pass  4 Test12= 4.43D-14 1.67D-09 XBig12= 1.65D-04 1.31D-03.
     57 vectors produced by pass  5 Test12= 4.43D-14 1.67D-09 XBig12= 2.05D-06 1.20D-04.
     57 vectors produced by pass  6 Test12= 4.43D-14 1.67D-09 XBig12= 1.94D-08 1.65D-05.
     33 vectors produced by pass  7 Test12= 4.43D-14 1.67D-09 XBig12= 1.54D-10 9.53D-07.
      3 vectors produced by pass  8 Test12= 4.43D-14 1.67D-09 XBig12= 1.26D-12 7.94D-08.
      3 vectors produced by pass  9 Test12= 4.43D-14 1.67D-09 XBig12= 2.71D-14 1.81D-08.
      3 vectors produced by pass 10 Test12= 4.43D-14 1.67D-09 XBig12= 2.28D-15 5.21D-09.
 Inverted reduced A of dimension   441 with in-core refinement.
 Isotropic polarizability for W=    0.000000       83.88 Bohr**3.
 End of Minotr Frequency-dependent properties file   721 does not exist.
 End of Minotr Frequency-dependent properties file   722 does not exist.
 Calling FoFJK, ICntrl=    100127 FMM=F ISym2X=0 I1Cent= 0 IOpClX= 1 NMat=1 NMatS=1 NMatT=0.
 -------------------------------------------------------------------
 Center     Atomic                   Forces (Hartrees/Bohr)
 Number     Number              X              Y              Z
 -------------------------------------------------------------------
      1        6           0.009744383    0.004686337    0.003993567
      2        6          -0.001476550   -0.001053878   -0.000682588
      3        6          -0.002006731   -0.000531688   -0.000458875
      4        6          -0.000104436    0.000250820   -0.000318741
      5        8           0.000515473    0.000286510    0.000082253
      6        8           0.000123461   -0.000176084    0.000068474
      7        1          -0.010699885   -0.003421575   -0.004569045
      8        1          -0.001386338   -0.000692804   -0.000318191
      9        1           0.000028591    0.000042322    0.000036081
     10        1           0.000095453   -0.000259863   -0.000017172
     11        1          -0.000003963   -0.000044702   -0.000001582
     12        1          -0.000024213   -0.000009458   -0.000015015
     13        1          -0.000051247    0.000008447    0.000033598
     14        1           0.000012420   -0.000011010   -0.000006175
     15        8           0.000021756   -0.000170974    0.000114221
     16        1          -0.000012800    0.000046368   -0.000054806
     17        8          -0.002765607    0.004259704    0.001870243
     18        8           0.008174836   -0.003031097    0.000444541
     19        1          -0.000184602   -0.000177376   -0.000200789
 -------------------------------------------------------------------
 Cartesian Forces:  Max     0.010699885 RMS     0.002639251
 IRC-IRC-IRC-IRC-IRC-IRC-IRC-IRC-IRC-IRC-IRC-IRC-IRC-IRC-IRC-IRC-IRC-IRC
 Pt  1 Step number   1 out of a maximum of  20
 CORRECTOR INTEGRATION CONVERGENCE:
   Recorrection delta-x convergence threshold:    0.010000
   Delta-x Convergence Met
 Point Number:   1          Path Number:   1
   CHANGE IN THE REACTION COORDINATE =    0.10546
   NET REACTION COORDINATE UP TO THIS POINT =    0.10546
  # OF POINTS ALONG THE PATH =   1
  # OF STEPS =   1

 Calculating another point on the path.
 IRC-IRC-IRC-IRC-IRC-IRC-IRC-IRC-IRC-IRC-IRC-IRC-IRC-IRC-IRC-IRC-IRC-IRC
                          Input orientation:                          
 ---------------------------------------------------------------------
 Center     Atomic      Atomic             Coordinates (Angstroms)
 Number     Number       Type             X           Y           Z
 ---------------------------------------------------------------------
      1          6           0        0.163987   -0.802145    0.633038
      2          6           0       -0.138059    0.655950    0.833884
      3          6           0        1.157297   -1.230027   -0.404111
      4          6           0       -0.390892    1.440049   -0.448463
      5          8           0        2.519019   -0.921024    0.014047
      6          8           0       -0.791724    2.765986   -0.169888
      7          1           0       -1.064301   -1.322315    0.069835
      8          1           0        0.227371   -1.383718    1.550480
      9          1           0       -1.014957    0.760394    1.476550
     10          1           0        0.701856    1.112999    1.375064
     11          1           0        1.167992   -2.310703   -0.530039
     12          1           0        1.001990   -0.747645   -1.366860
     13          1           0       -1.211616    0.982940   -1.001938
     14          1           0        0.500790    1.432559   -1.080963
     15          8           0        2.759114    0.349222   -0.041881
     16          1           0       -0.043594    3.248596    0.187186
     17          8           0       -2.895882   -0.653831    0.012659
     18          8           0       -1.992113   -1.634826   -0.368250
     19          1           0       -3.326251   -1.033746    0.787223
 ---------------------------------------------------------------------
                    Distance matrix (angstroms):
                    1          2          3          4          5
     1  C    0.000000
     2  C    1.502536   0.000000
     3  C    1.498474   2.601440   0.000000
     4  C    2.550484   1.524187   3.086772   0.000000
     5  O    2.437921   3.196724   1.457610   3.775733   0.000000
     6  O    3.780164   2.426332   4.452153   1.412933   4.958719
     7  H    1.447918   2.314137   2.273464   2.890115   3.606152
     8  H    1.088093   2.192555   2.169979   3.514496   2.797564
     9  H    2.131420   1.092190   3.495333   2.134728   4.177926
    10  H    2.123131   1.098739   2.977022   2.150886   3.048228
    11  H    2.153258   3.516686   1.088040   4.062623   2.013085
    12  H    2.169057   2.848344   1.087979   2.751286   2.058723
    13  H    2.784234   2.151671   3.296418   1.090354   4.309866
    14  H    2.836395   2.162842   2.824623   1.093256   3.288107
    15  O    2.918192   3.042146   2.278389   3.358236   1.293946
    16  H    4.080488   2.673753   4.674381   1.948207   4.897213
    17  O    3.125646   3.161570   4.115089   3.297262   5.421490
    18  O    2.518869   3.182813   3.175521   3.467736   4.583228
    19  H    3.501311   3.608576   4.643276   4.032730   5.897262
                    6          7          8          9         10
     6  O    0.000000
     7  H    4.104385   0.000000
     8  H    4.606329   1.965832   0.000000
     9  H    2.604418   2.513754   2.479125   0.000000
    10  H    2.711093   3.279282   2.547450   1.755585   0.000000
    11  H    5.453711   2.513939   2.464270   4.268876   3.945685
    12  H    4.122591   2.581452   3.084720   3.798320   3.327194
    13  H    2.011932   2.546488   3.766509   2.496219   3.054248
    14  H    2.068497   3.370931   3.864022   3.047978   2.484877
    15  O    4.297160   4.174328   3.456648   4.088803   2.612163
    16  H    0.959225   4.684959   4.836355   2.966000   2.554902
    17  O    4.019447   1.950597   3.557012   2.771442   4.233386
    18  O    4.565899   1.072574   2.944603   3.177294   4.224589
    19  H    4.666675   2.390468   3.651475   3.006026   4.602143
                   11         12         13         14         15
    11  H    0.000000
    12  H    1.780723   0.000000
    13  H    4.090636   2.833398   0.000000
    14  H    3.841963   2.255266   1.772212   0.000000
    15  O    3.137701   2.458896   4.134006   2.711704   0.000000
    16  H    5.734820   4.413417   2.812737   2.280910   4.039061
    17  O    4.422083   4.135853   2.558355   4.133571   5.743524
    18  O    3.235622   3.278562   2.804182   4.016388   5.159178
    19  H    4.854278   4.843098   3.426340   4.921283   6.295370
                   16         17         18         19
    16  H    0.000000
    17  O    4.836832   0.000000
    18  O    5.287064   1.387170   0.000000
    19  H    5.429027   0.964107   1.864494   0.000000
 Symmetry turned off by external request.
 Stoichiometry    C4H10O5(3)
 Framework group  C1[X(C4H10O5)]
 Deg. of freedom    51
 Full point group                 C1      NOp   1
 Rotational constants (GHZ):      1.6772083      1.0125984      0.6857073
 Standard basis: 6-311+G(2df,2p) (5D, 7F)
 Integral buffers will be    131072 words long.
 Raffenetti 2 integral format.
 Two-electron integral symmetry is turned off.
   396 basis functions,   578 primitive gaussians,   441 cartesian basis functions
    38 alpha electrons       36 beta electrons
       nuclear repulsion energy       490.0019862552 Hartrees.
 NAtoms=   19 NActive=   19 NUniq=   19 SFac= 1.00D+00 NAtFMM=   50 NAOKFM=F Big=F
 One-electron integrals computed using PRISM.
 NBasis=   396 RedAO= T  NBF=   396
 NBsUse=   396 1.00D-06 NBFU=   396
 Initial guess read from the read-write file.
 B after Tr=     0.000000    0.000000    0.000000
         Rot=    1.000000    0.000000    0.000000    0.000000 Ang=   0.00 deg.
 Initial guess <Sx>= 0.0000 <Sy>= 0.0000 <Sz>= 1.0000 <S**2>= 2.0155 S= 1.0052
 Harris functional with IExCor= 1009 diagonalized for initial guess.
 ExpMin= 4.38D-02 ExpMax= 8.59D+03 ExpMxC= 1.30D+03 IAcc=2 IRadAn=         0 AccDes= 0.00D+00
 HarFok:  IExCor= 1009 AccDes= 0.00D+00 IRadAn=         0 IDoV= 1
 ScaDFX=  1.000000  1.000000  1.000000  1.000000
 FoFCou: FMM=F IPFlag=           0 FMFlag=      100000 FMFlg1=           0
         NFxFlg=           0 DoJE=T BraDBF=F KetDBF=T FulRan=T
         Omega=  0.000000  0.000000  1.000000  0.000000  0.000000 ICntrl=     500 IOpCl=  0
         NMat0=    1 NMatS0=    1 NMatT0=    0 NMatD0=    1 NMtDS0=    0 NMtDT0=    0
         I1Cent=           4 NGrid=           0.
 Symmetry not used in FoFCou.
 Requested convergence on RMS density matrix=1.00D-08 within 128 cycles.
 Requested convergence on MAX density matrix=1.00D-06.
 Requested convergence on             energy=1.00D-06.
 No special actions if energy rises.
 SCF Done:  E(UM062X) =  -534.212507344     A.U. after   17 cycles
             Convg  =    0.6891D-08             -V/T =  2.0031
 <Sx>= 0.0000 <Sy>= 0.0000 <Sz>= 1.0000 <S**2>= 2.0143 S= 1.0047
 <L.S>= 0.000000000000E+00
 Annihilation of the first spin contaminant:
 S**2 before annihilation     2.0143,   after     2.0001
 Range of M.O.s used for correlation:     1   396
 NBasis=   396 NAE=    38 NBE=    36 NFC=     0 NFV=     0
 NROrb=    396 NOA=    38 NOB=    36 NVA=   358 NVB=   360

 **** Warning!!: The largest alpha MO coefficient is  0.62504182D+02


 **** Warning!!: The largest beta MO coefficient is  0.61167789D+02

 Symmetrizing basis deriv contribution to polar:
 IMax=3 JMax=2 DiffMx= 0.00D+00
 G2DrvN: will do    20 centers at a time, making    1 passes doing MaxLOS=3.
 Calling FoFCou, ICntrl=  3107 FMM=F I1Cent=   0 AccDes= 0.00D+00.
 FoFDir/FoFCou used for L=0 through L=3.
 End of G2Drv Frequency-dependent properties file   721 does not exist.
 End of G2Drv Frequency-dependent properties file   722 does not exist.
          IDoAtm=1111111111111111111
          Differentiating once with respect to electric field.
                with respect to dipole field.
          Differentiating once with respect to nuclear coordinates.
          There are    60 degrees of freedom in the 1st order CPHF.  IDoFFX=5.
     57 vectors produced by pass  0 Test12= 4.43D-14 1.67D-09 XBig12= 9.74D+01 2.90D+00.
 AX will form    57 AO Fock derivatives at one time.
     57 vectors produced by pass  1 Test12= 4.43D-14 1.67D-09 XBig12= 1.55D+01 6.56D-01.
     57 vectors produced by pass  2 Test12= 4.43D-14 1.67D-09 XBig12= 9.04D-01 1.37D-01.
     57 vectors produced by pass  3 Test12= 4.43D-14 1.67D-09 XBig12= 1.24D-02 1.21D-02.
     57 vectors produced by pass  4 Test12= 4.43D-14 1.67D-09 XBig12= 1.65D-04 1.19D-03.
     57 vectors produced by pass  5 Test12= 4.43D-14 1.67D-09 XBig12= 2.06D-06 1.23D-04.
     57 vectors produced by pass  6 Test12= 4.43D-14 1.67D-09 XBig12= 2.00D-08 1.25D-05.
     34 vectors produced by pass  7 Test12= 4.43D-14 1.67D-09 XBig12= 1.52D-10 8.54D-07.
      4 vectors produced by pass  8 Test12= 4.43D-14 1.67D-09 XBig12= 1.20D-12 7.93D-08.
      3 vectors produced by pass  9 Test12= 4.43D-14 1.67D-09 XBig12= 3.01D-14 2.44D-08.
      3 vectors produced by pass 10 Test12= 4.43D-14 1.67D-09 XBig12= 1.54D-15 4.13D-09.
      1 vectors produced by pass 11 Test12= 4.43D-14 1.67D-09 XBig12= 3.02D-16 2.12D-09.
 Inverted reduced A of dimension   444 with in-core refinement.
 Isotropic polarizability for W=    0.000000       81.58 Bohr**3.
 End of Minotr Frequency-dependent properties file   721 does not exist.
 End of Minotr Frequency-dependent properties file   722 does not exist.
 Calling FoFJK, ICntrl=    100127 FMM=F ISym2X=0 I1Cent= 0 IOpClX= 1 NMat=1 NMatS=1 NMatT=0.
 -------------------------------------------------------------------
 Center     Atomic                   Forces (Hartrees/Bohr)
 Number     Number              X              Y              Z
 -------------------------------------------------------------------
      1        6           0.018266802    0.008474914    0.007445071
      2        6          -0.002461695   -0.001737551   -0.001118838
      3        6          -0.003479465   -0.000841295   -0.000610976
      4        6          -0.000199477    0.000395407   -0.000546336
      5        8           0.001063384    0.000434843    0.000026684
      6        8           0.000201355   -0.000294091    0.000126974
      7        1          -0.014213812   -0.004355650   -0.005846885
      8        1          -0.002417445   -0.001235662   -0.000575847
      9        1           0.000009725    0.000032132    0.000067339
     10        1           0.000108308   -0.000364458   -0.000048796
     11        1          -0.000033371   -0.000074307   -0.000007793
     12        1          -0.000053070    0.000004029   -0.000038789
     13        1          -0.000080426    0.000054467    0.000046515
     14        1           0.000017963   -0.000009130    0.000003319
     15        8           0.000025926   -0.000292195    0.000203778
     16        1          -0.000007160    0.000071786   -0.000064505
     17        8          -0.004674706    0.007231089    0.003177134
     18        8           0.008323993   -0.007147482   -0.001851490
     19        1          -0.000396830   -0.000346847   -0.000386560
 -------------------------------------------------------------------
 Cartesian Forces:  Max     0.018266802 RMS     0.004099803
 IRC-IRC-IRC-IRC-IRC-IRC-IRC-IRC-IRC-IRC-IRC-IRC-IRC-IRC-IRC-IRC-IRC-IRC
 Pt  2 Step number   1 out of a maximum of  20
 CORRECTOR INTEGRATION CONVERGENCE:
   Recorrection delta-x convergence threshold:    0.010000
   Delta-x Convergence Met
 Point Number:   2          Path Number:   1
   CHANGE IN THE REACTION COORDINATE =    0.10535
   NET REACTION COORDINATE UP TO THIS POINT =    0.21081
  # OF POINTS ALONG THE PATH =   2
  # OF STEPS =   1

 Calculating another point on the path.
 IRC-IRC-IRC-IRC-IRC-IRC-IRC-IRC-IRC-IRC-IRC-IRC-IRC-IRC-IRC-IRC-IRC-IRC
                          Input orientation:                          
 ---------------------------------------------------------------------
 Center     Atomic      Atomic             Coordinates (Angstroms)
 Number     Number       Type             X           Y           Z
 ---------------------------------------------------------------------
      1          6           0        0.169814   -0.799486    0.635406
      2          6           0       -0.138782    0.655449    0.833570
      3          6           0        1.156251   -1.230265   -0.404257
      4          6           0       -0.390958    1.440162   -0.448634
      5          8           0        2.519296   -0.920941    0.014024
      6          8           0       -0.791674    2.765920   -0.169854
      7          1           0       -1.106709   -1.335000    0.052795
      8          1           0        0.218591   -1.388293    1.548472
      9          1           0       -1.015003    0.760348    1.476750
     10          1           0        0.702046    1.112034    1.374844
     11          1           0        1.167741   -2.310954   -0.530006
     12          1           0        1.001709   -0.747606   -1.366950
     13          1           0       -1.211906    0.983195   -1.001838
     14          1           0        0.500852    1.432519   -1.080950
     15          8           0        2.759118    0.349152   -0.041834
     16          1           0       -0.043603    3.248830    0.186970
     17          8           0       -2.896951   -0.652189    0.013383
     18          8           0       -1.991000   -1.636719   -0.369027
     19          1           0       -3.327912   -1.035083    0.785690
 ---------------------------------------------------------------------
                    Distance matrix (angstroms):
                    1          2          3          4          5
     1  C    0.000000
     2  C    1.500445   0.000000
     3  C    1.496505   2.601008   0.000000
     4  C    2.550614   1.524276   3.086584   0.000000
     5  O    2.433297   3.197192   1.458949   3.776035   0.000000
[...]
    15  O   -0.172244
    17  O    0.202119
    18  O   -0.196678
 Sum of Mulliken charges with hydrogens summed into heavy atoms =   0.00000
          Atomic-Atomic Spin Densities.
              1          2          3          4          5          6
     1  C   -0.016778   0.132749   0.007627   0.018974  -0.030194   0.000107
     2  C    0.132749  -0.039526  -0.074270  -0.021925  -0.007522  -0.000599
     3  C    0.007627  -0.074270   0.012460   0.005971   0.026303   0.000215
     4  C    0.018974  -0.021925   0.005971  -0.006388   0.002377  -0.000364
     5  O   -0.030194  -0.007522   0.026303   0.002377   0.484434  -0.000015
     6  O    0.000107  -0.000599   0.000215  -0.000364  -0.000015   0.000396
     7  H   -0.005563  -0.004832   0.026207  -0.000644   0.000070  -0.000146
     8  H    0.011889  -0.005398  -0.005180  -0.000865   0.001306   0.000006
     9  H   -0.002263   0.005373  -0.004015   0.001870  -0.000310   0.000026
    10  H   -0.003647   0.001174   0.005790  -0.001402   0.002286  -0.000324
    11  H   -0.000303  -0.000823  -0.000336   0.000345  -0.001086   0.000008
    12  H   -0.013065   0.000426   0.014288   0.000385  -0.002156   0.000083
    13  H    0.004371  -0.005791  -0.000631   0.001605  -0.000057  -0.000036
    14  H   -0.000504   0.002258  -0.002032   0.000270  -0.000350   0.000341
    15  O    0.006161   0.006587  -0.004291   0.002172  -0.171930   0.000204
    16  H   -0.000822  -0.000539   0.000321   0.001287   0.000024   0.000012
    17  O    0.008466   0.001002   0.004796  -0.002243   0.000175  -0.000558
    18  O   -0.021833   0.002539  -0.015736   0.007974  -0.000557   0.000266
    19  H    0.000033  -0.002062   0.000201   0.001345  -0.000002  -0.000009
              7          8          9         10         11         12
     1  C   -0.005563   0.011889  -0.002263  -0.003647  -0.000303  -0.013065
     2  C   -0.004832  -0.005398   0.005373   0.001174  -0.000823   0.000426
     3  C    0.026207  -0.005180  -0.004015   0.005790  -0.000336   0.014288
     4  C   -0.000644  -0.000865   0.001870  -0.001402   0.000345   0.000385
     5  O    0.000070   0.001306  -0.000310   0.002286  -0.001086  -0.002156
     6  O   -0.000146   0.000006   0.000026  -0.000324   0.000008   0.000083
     7  H    0.019842   0.000291  -0.002231   0.000587  -0.002047  -0.001006
     8  H    0.000291  -0.006239   0.000225  -0.000351   0.000357   0.000134
     9  H   -0.002231   0.000225   0.007731  -0.002176   0.000032  -0.000051
    10  H    0.000587  -0.000351  -0.002176   0.006372  -0.000022   0.000105
    11  H   -0.002047   0.000357   0.000032  -0.000022   0.002735   0.000982
    12  H   -0.001006   0.000134  -0.000051   0.000105   0.000982   0.006336
    13  H   -0.001164  -0.000022   0.000187  -0.000031   0.000025   0.000212
    14  H   -0.000303   0.000052   0.000047  -0.000172   0.000010  -0.000098
    15  O   -0.000837   0.000183   0.000587  -0.003705   0.000436   0.001322
    16  H    0.000002   0.000005  -0.000098   0.000201   0.000000  -0.000002
    17  O    0.030102  -0.000802  -0.005384   0.000575  -0.000372  -0.000304
    18  O   -0.060629   0.001650   0.004130  -0.000725   0.001963   0.000999
    19  H    0.000441  -0.000020   0.000192   0.000003   0.000000   0.000001
             13         14         15         16         17         18
     1  C    0.004371  -0.000504   0.006161  -0.000822   0.008466  -0.021833
     2  C   -0.005791   0.002258   0.006587  -0.000539   0.001002   0.002539
     3  C   -0.000631  -0.002032  -0.004291   0.000321   0.004796  -0.015736
     4  C    0.001605   0.000270   0.002172   0.001287  -0.002243   0.007974
     5  O   -0.000057  -0.000350  -0.171930   0.000024   0.000175  -0.000557
     6  O   -0.000036   0.000341   0.000204   0.000012  -0.000558   0.000266
     7  H   -0.001164  -0.000303  -0.000837   0.000002   0.030102  -0.060629
     8  H   -0.000022   0.000052   0.000183   0.000005  -0.000802   0.001650
     9  H    0.000187   0.000047   0.000587  -0.000098  -0.005384   0.004130
    10  H   -0.000031  -0.000172  -0.003705   0.000201   0.000575  -0.000725
    11  H    0.000025   0.000010   0.000436   0.000000  -0.000372   0.001963
    12  H    0.000212  -0.000098   0.001322  -0.000002  -0.000304   0.000999
    13  H    0.001766   0.000167  -0.000018   0.000071  -0.001259   0.001506
    14  H    0.000167  -0.000436   0.000005  -0.000113  -0.000258   0.000349
    15  O   -0.000018   0.000005   0.849773  -0.000168  -0.000166   0.000560
    16  H    0.000071  -0.000113  -0.000168  -0.000140   0.000007  -0.000017
    17  O   -0.001259  -0.000258  -0.000166   0.000007   0.354067  -0.157400
    18  O    0.001506   0.000349   0.000560  -0.000017  -0.157400   0.909930
    19  H   -0.000021   0.000001   0.000000  -0.000001   0.004374   0.002143
             19
     1  C    0.000033
     2  C   -0.002062
     3  C    0.000201
     4  C    0.001345
     5  O   -0.000002
     6  O   -0.000009
     7  H    0.000441
     8  H   -0.000020
     9  H    0.000192
    10  H    0.000003
    11  H    0.000000
    12  H    0.000001
    13  H   -0.000021
    14  H    0.000001
    15  O    0.000000
    16  H   -0.000001
    17  O    0.004374
    18  O    0.002143
    19  H   -0.014915
 Mulliken atomic spin densities:
              1
     1  C    0.095406
     2  C   -0.011179
     3  C   -0.002312
     4  C    0.010747
     5  O    0.302796
     6  O   -0.000387
     7  H   -0.001859
     8  H   -0.002779
     9  H    0.003874
    10  H    0.004538
    11  H    0.001903
    12  H    0.008593
    13  H    0.000882
    14  H   -0.000765
    15  O    0.686875
    16  H    0.000031
    17  O    0.234819
    18  O    0.677112
    19  H   -0.008295
 Sum of Mulliken atomic spin densities =   2.00000
 APT atomic charges:
              1
     1  C    0.117186
     2  C   -0.036163
     3  C    0.369317
     4  C    0.461701
     5  O   -0.314998
     6  O   -0.626297
     7  H   -0.108266
     8  H   -0.044601
     9  H   -0.017298
    10  H   -0.008636
    11  H   -0.003783
    12  H    0.000979
    13  H   -0.011183
    14  H   -0.037379
    15  O   -0.108010
    16  H    0.256126
    17  O   -0.330836
    18  O    0.140976
    19  H    0.301165
 Sum of APT charges=   0.00000
 APT Atomic charges with hydrogens summed into heavy atoms:
              1
     1  C   -0.035681
     2  C   -0.062097
     3  C    0.366513
     4  C    0.413139
     5  O   -0.314998
     6  O   -0.370171
     7  H    0.000000
     8  H    0.000000
     9  H    0.000000
    10  H    0.000000
    11  H    0.000000
    12  H    0.000000
    13  H    0.000000
    14  H    0.000000
    15  O   -0.108010
    16  H    0.000000
    17  O   -0.029672
    18  O    0.140976
    19  H    0.000000
 Sum of APT charges=   0.00000
 Electronic spatial extent (au):  <R**2>=           1600.9200
 Charge=              0.0000 electrons
 Dipole moment (field-independent basis, Debye):
    X=             -2.3716    Y=             -2.2057    Z=              1.5756  Tot=              3.6017
 Quadrupole moment (field-independent basis, Debye-Ang):
   XX=            -57.5867   YY=            -55.2079   ZZ=            -52.2006
   XY=              6.1659   XZ=             -6.5354   YZ=              0.5830
 Traceless Quadrupole moment (field-independent basis, Debye-Ang):
   XX=             -2.5883   YY=             -0.2095   ZZ=              2.7978
   XY=              6.1659   XZ=             -6.5354   YZ=              0.5830
 Octapole moment (field-independent basis, Debye-Ang**2):
  XXX=            -66.5296  YYY=             -5.9464  ZZZ=             -2.7085  XYY=             18.1830
  XXY=            -17.4540  XXZ=             14.5714  XZZ=             -3.1532  YZZ=             -3.6885
  YYZ=              6.8298  XYZ=              6.6777
 Hexadecapole moment (field-independent basis, Debye-Ang**3):
 XXXX=          -1002.2139 YYYY=           -660.7385 ZZZZ=           -152.2393 XXXY=             60.1607
 XXXZ=            -69.6266 YYYX=             55.8120 YYYZ=             27.0579 ZZZX=             -7.5584
 ZZZY=             -2.1810 XXYY=           -299.0418 XXZZ=           -179.9467 YYZZ=           -141.3767
 XXYZ=            -16.1378 YYXZ=            -10.3884 ZZXY=              8.0899
 N-N= 4.900208617018D+02 E-N=-3.332193873586D+03  KE= 7.957525400863D+02
  Exact polarizability:  88.733   2.654  80.586   0.080   2.181  63.373
 Approx polarizability:  93.959   1.888  93.420   0.450   3.558  78.523
                          Isotropic Fermi Contact Couplings
        Atom                 a.u.       MegaHertz       Gauss      10(-4) cm-1
     1  C(13)              0.05201      29.23235      10.43083       9.75086
     2  C(13)              0.00205       1.15509       0.41216       0.38529
     3  C(13)             -0.01533      -8.61668      -3.07465      -2.87422
     4  C(13)             -0.00038      -0.21269      -0.07589      -0.07095
     5  O(17)              0.07756     -23.50741      -8.38803      -7.84123
     6  O(17)             -0.00022       0.06646       0.02372       0.02217
     7  H(1)              -0.00379      -8.47041      -3.02245      -2.82542
     8  H(1)              -0.00093      -2.08942      -0.74556      -0.69695
     9  H(1)               0.00324       7.23171       2.58046       2.41224
    10  H(1)               0.00480      10.72667       3.82754       3.57803
    11  H(1)               0.00020       0.45801       0.16343       0.15278
    12  H(1)               0.00392       8.77091       3.12968       2.92566
    13  H(1)              -0.00002      -0.03561      -0.01271      -0.01188
    14  H(1)               0.00007       0.16742       0.05974       0.05584
    15  O(17)              0.10495     -31.80991     -11.35057     -10.61064
    16  H(1)              -0.00001      -0.02260      -0.00806      -0.00754
    17  O(17)              0.04880     -14.79082      -5.27773      -4.93369
    18  O(17)              0.11723     -35.53279     -12.67898     -11.85246
    19  H(1)              -0.00536     -11.98694      -4.27724      -3.99841
 --------------------------------------------------------
       Center         ----  Spin Dipole Couplings  ----
                      3XX-RR        3YY-RR        3ZZ-RR
 --------------------------------------------------------
     1   Atom        0.117017     -0.055222     -0.061795
     2   Atom        0.017187     -0.003880     -0.013307
     3   Atom        0.020625     -0.008575     -0.012050
     4   Atom        0.002924      0.002884     -0.005808
     5   Atom       -0.501635     -0.903759      1.405393
     6   Atom        0.001053      0.002429     -0.003482
     7   Atom        0.081903     -0.045544     -0.036359
     8   Atom        0.003822     -0.010218      0.006396
     9   Atom        0.001920     -0.000069     -0.001851
    10   Atom        0.006386     -0.002608     -0.003778
    11   Atom        0.007454      0.001636     -0.009090
    12   Atom        0.011658     -0.010137     -0.001521
    13   Atom        0.000179      0.005433     -0.005612
    14   Atom        0.005214     -0.000517     -0.004697
    15   Atom       -0.921687     -1.454937      2.376624
    16   Atom       -0.000066      0.003075     -0.003009
    17   Atom        0.432903     -0.420048     -0.012855
    18   Atom        0.972904     -0.846901     -0.126003
    19   Atom        0.000034     -0.031874      0.031840
 --------------------------------------------------------
                        XY            XZ            YZ
 --------------------------------------------------------
     1   Atom        0.073840      0.048024      0.032356
     2   Atom        0.006880      0.000110      0.003704
     3   Atom        0.009340      0.003016      0.006094
     4   Atom        0.000513      0.000604     -0.002546
     5   Atom       -0.088706     -0.823652      0.283764
     6   Atom       -0.000464     -0.000234      0.000157
     7   Atom        0.044070      0.060571      0.020083
     8   Atom        0.004721      0.002614     -0.009305
     9   Atom        0.001175     -0.000526      0.006955
    10   Atom       -0.002380     -0.005123      0.006655
    11   Atom        0.008624      0.002051      0.005811
    12   Atom        0.007096      0.009195      0.003323
    13   Atom        0.003820     -0.000635     -0.005493
    14   Atom       -0.003370      0.004088     -0.004443
    15   Atom       -0.185620     -1.426034      0.465112
    16   Atom       -0.001738     -0.000016      0.000148
    17   Atom        0.574568      0.796769      0.385373
    18   Atom        1.376513      1.928795      1.013891
    19   Atom        0.012948     -0.036366     -0.012862
 --------------------------------------------------------


 ---------------------------------------------------------------------------------
              Anisotropic Spin Dipole Couplings in Principal Axis System
 ---------------------------------------------------------------------------------

       Atom             a.u.   MegaHertz   Gauss  10(-4) cm-1        Axes

              Baa    -0.0930   -12.481    -4.454    -4.163 -0.1390  0.7867 -0.6015
     1 C(13)  Bbb    -0.0657    -8.821    -3.147    -2.942 -0.4052  0.5090  0.7594
              Bcc     0.1587    21.302     7.601     7.106  0.9036  0.3493  0.2480
 
              Baa    -0.0148    -1.979    -0.706    -0.660  0.0752 -0.3640  0.9284
     2 C(13)  Bbb    -0.0045    -0.607    -0.217    -0.203 -0.2823  0.8851  0.3699
              Bcc     0.0193     2.587     0.923     0.863  0.9564  0.2899  0.0362
 
              Baa    -0.0170    -2.279    -0.813    -0.760  0.1030 -0.6562  0.7475
     3 C(13)  Bbb    -0.0070    -0.936    -0.334    -0.312 -0.3061  0.6941  0.6515
              Bcc     0.0240     3.215     1.147     1.072  0.9464  0.2959  0.1294
 
              Baa    -0.0066    -0.879    -0.314    -0.293 -0.0755  0.2636  0.9617
     4 C(13)  Bbb     0.0028     0.379     0.135     0.127  0.9094 -0.3773  0.1748
              Bcc     0.0037     0.500     0.178     0.167  0.4090  0.8878 -0.2112
 
              Baa    -0.9389    67.940    24.243    22.662 -0.0733  0.9867 -0.1452
     5 O(17)  Bbb    -0.8062    58.338    20.816    19.460  0.9354  0.1185  0.3332
              Bcc     1.7452  -126.278   -45.059   -42.122 -0.3459  0.1114  0.9316
 
              Baa    -0.0035     0.253     0.090     0.084  0.0490 -0.0227  0.9985
     6 O(17)  Bbb     0.0009    -0.066    -0.024    -0.022  0.9540  0.2970 -0.0401
              Bcc     0.0026    -0.187    -0.067    -0.062 -0.2956  0.9546  0.0362
 
              Baa    -0.0625   -33.345   -11.898   -11.123 -0.2471 -0.4021  0.8816
     7 H(1)   Bbb    -0.0590   -31.458   -11.225   -10.493 -0.3962  0.8722  0.2868
              Bcc     0.1215    64.802    23.123    21.616  0.8843  0.2784  0.3748
 
              Baa    -0.0159    -8.459    -3.019    -2.822 -0.2637  0.8785  0.3984
     8 H(1)   Bbb     0.0053     2.804     1.000     0.935  0.9612  0.2740  0.0321
              Bcc     0.0106     5.656     2.018     1.887  0.0810 -0.3914  0.9167
 
              Baa    -0.0081    -4.327    -1.544    -1.443  0.1162 -0.6595  0.7427
     9 H(1)   Bbb     0.0020     1.060     0.378     0.354  0.9848 -0.0208 -0.1726
              Bcc     0.0061     3.266     1.166     1.090  0.1292  0.7514  0.6470
 
              Baa    -0.0102    -5.441    -1.941    -1.815  0.1468 -0.6258  0.7660
    10 H(1)   Bbb    -0.0003    -0.160    -0.057    -0.054  0.5826  0.6806  0.4443
              Bcc     0.0105     5.601     1.999     1.868  0.7994 -0.3810 -0.4645
 
              Baa    -0.0118    -6.300    -2.248    -2.101  0.1081 -0.4521  0.8854
    11 H(1)   Bbb    -0.0029    -1.569    -0.560    -0.523 -0.6283  0.6591  0.4133
              Bcc     0.0147     7.869     2.808     2.625  0.7704  0.6010  0.2128
 
              Baa    -0.0123    -6.557    -2.340    -2.187 -0.2550  0.9637 -0.0797
    12 H(1)   Bbb    -0.0062    -3.325    -1.186    -1.109 -0.4431 -0.0432  0.8954
              Bcc     0.0185     9.881     3.526     3.296  0.8595  0.2636  0.4380
 
              Baa    -0.0080    -4.259    -1.520    -1.421 -0.1190  0.4050  0.9065
    13 H(1)   Bbb    -0.0013    -0.688    -0.246    -0.230  0.9153 -0.3091  0.2582
              Bcc     0.0093     4.948     1.765     1.650  0.3848  0.8605 -0.3340
 
              Baa    -0.0078    -4.149    -1.480    -1.384 -0.1547  0.4625  0.8730
    14 H(1)   Bbb    -0.0013    -0.710    -0.253    -0.237  0.5781  0.7590 -0.2997
              Bcc     0.0091     4.858     1.733     1.620  0.8012 -0.4583  0.3848
 
              Baa    -1.5138   109.540    39.087    36.539  0.2128  0.9763 -0.0387
    15 O(17)  Bbb    -1.4505   104.961    37.453    35.011  0.9134 -0.1847  0.3628
              Bcc     2.9644  -214.501   -76.539   -71.550 -0.3470  0.1126  0.9311
 
              Baa    -0.0030    -1.607    -0.574    -0.536 -0.0105 -0.0272  0.9996
    16 H(1)   Bbb    -0.0008    -0.447    -0.159    -0.149  0.9140  0.4052  0.0206
              Bcc     0.0038     2.054     0.733     0.685 -0.4056  0.9138  0.0206
 
              Baa    -0.7104    51.403    18.342    17.146 -0.4972  0.8628  0.0913
    17 O(17)  Bbb    -0.6024    43.589    15.554    14.540 -0.4453 -0.3440  0.8267
              Bcc     1.3128   -94.993   -33.896   -31.686  0.7447  0.3704  0.5552
 
              Baa    -1.5980   115.633    41.261    38.571  0.6601 -0.6003 -0.4515
    18 O(17)  Bbb    -1.5605   112.920    40.293    37.666 -0.1546 -0.6968  0.7004
              Bcc     3.1586  -228.553   -81.553   -76.237  0.7351  0.3925  0.5528
 
              Baa    -0.0365   -19.457    -6.943    -6.490 -0.3353  0.9421 -0.0011
    19 H(1)   Bbb    -0.0227   -12.096    -4.316    -4.035  0.7688  0.2743  0.5776
              Bcc     0.0591    31.553    11.259    10.525 -0.5445 -0.1928  0.8163
 

 ---------------------------------------------------------------------------------

 -------------------------------------------------------------------
 Center     Atomic                   Forces (Hartrees/Bohr)
 Number     Number              X              Y              Z
 -------------------------------------------------------------------
      1        6           0.009947248    0.000392121    0.007439159
      2        6           0.003552099    0.002286673    0.000647694
      3        6           0.004250412    0.001370313    0.000433359
      4        6           0.000533475   -0.000154800    0.000498793
      5        8           0.003267703    0.000619449   -0.000307075
      6        8          -0.000496323    0.000274322   -0.000724667
      7        1           0.001024256   -0.001983909    0.003597874
      8        1           0.003904192    0.001881013    0.000840454
      9        1           0.000327822    0.000093450    0.000110353
     10        1           0.000188372    0.000562684   -0.000121121
     11        1           0.000286249    0.000112487    0.000084159
     12        1           0.000212951    0.000074162    0.000046475
     13        1           0.000054326   -0.000123042    0.000124837
     14        1          -0.000008988    0.000023269   -0.000037024
     15        8           0.000754604    0.001000855   -0.000287029
     16        1          -0.000085310   -0.000015151    0.000113732
     17        8          -0.001738316   -0.001211178   -0.000769464
     18        8          -0.025823778   -0.005607136   -0.011868208
     19        1          -0.000150995    0.000404417    0.000177700
 -------------------------------------------------------------------
 Cartesian Forces:  Max     0.025823778 RMS     0.004372235

 This type of calculation cannot be archived.


 ALTHOUGH J.J. COULD DIAGNOSE THE FAULTS OF AN
 APPARATUS WITH UNCANNY ACCURACY, IT WAS JUST AS
 WELL NOT TO LET HIM HANDLE IT.
   -- GEORGE THOMPSON, ABOUT HIS FATHER
 Job cpu time:  9 days  7 hours 55 minutes 21.0 seconds.
 File lengths (MBytes):  RWF=   2544 Int=      0 D2E=      0 Chk=     32 Scr=     32
 Normal termination of Gaussian 09 at Sun Aug 13 03:58:54 2017.
