 Entering Gaussian System, Link 0=/shared/apps/gaussian/G09_LINUX_LINDA/g09/g09
 Input=/gss_gpfs_scratch/harms.n/QMscratch/[O]O+[O]OCCCCO_OO+[O]OC[CH]CCO.gjf
 Output=/gss_gpfs_scratch/harms.n/QMscratch/[O]O+[O]OCCCCO_OO+[O]OC[CH]CCO.log
 Initial command:
 /shared/apps/gaussian/G09_LINUX_LINDA/g09/l1.exe /gss_gpfs_scratch/harms.n/comparerTST/Gau-28147.inp -scrdir=/gss_gpfs_scratch/harms.n/comparerTST/
 Entering Link 1 = /shared/apps/gaussian/G09_LINUX_LINDA/g09/l1.exe PID=     28148.
  
 Copyright (c) 1988,1990,1992,1993,1995,1998,2003,2009,2010,
            Gaussian, Inc.  All Rights Reserved.
  
 This is part of the Gaussian(R) 09 program.  It is based on
 the Gaussian(R) 03 system (copyright 2003, Gaussian, Inc.),
 the Gaussian(R) 98 system (copyright 1998, Gaussian, Inc.),
 the Gaussian(R) 94 system (copyright 1995, Gaussian, Inc.),
 the Gaussian 92(TM) system (copyright 1992, Gaussian, Inc.),
 the Gaussian 90(TM) system (copyright 1990, Gaussian, Inc.),
 the Gaussian 88(TM) system (copyright 1988, Gaussian, Inc.),
 the Gaussian 86(TM) system (copyright 1986, Carnegie Mellon
 University), and the Gaussian 82(TM) system (copyright 1983,
 Carnegie Mellon University). Gaussian is a federally registered
 trademark of Gaussian, Inc.
  
 This software contains proprietary and confidential information,
 including trade secrets, belonging to Gaussian, Inc.
  
 This software is provided under written license and may be
 used, copied, transmitted, or stored only in accord with that
 written license.
  
 The following legend is applicable only to US Government
 contracts under FAR:
  
                    RESTRICTED RIGHTS LEGEND
  
 Use, reproduction and disclosure by the US Government is
 subject to restrictions as set forth in subparagraphs (a)
 and (c) of the Commercial Computer Software - Restricted
 Rights clause in FAR 52.227-19.
  
 Gaussian, Inc.
 340 Quinnipiac St., Bldg. 40, Wallingford CT 06492
  
  
 ---------------------------------------------------------------
 Warning -- This program may not be used in any manner that
 competes with the business of Gaussian, Inc. or will provide
 assistance to any competitor of Gaussian, Inc.  The licensee
 of this program is prohibited from giving any competitor of
 Gaussian, Inc. access to this program.  By using this program,
 the user acknowledges that Gaussian, Inc. is engaged in the
 business of creating and licensing software in the field of
 computational chemistry and represents and warrants to the
 licensee that it is not a competitor of Gaussian, Inc. and that
 it will not use this program in any manner prohibited above.
 ---------------------------------------------------------------
  

 Cite this work as:
 Gaussian 09, Revision B.01,
 M. J. Frisch, G. W. Trucks, H. B. Schlegel, G. E. Scuseria, 
 M. A. Robb, J. R. Cheeseman, G. Scalmani, V. Barone, B. Mennucci, 
 G. A. Petersson, H. Nakatsuji, M. Caricato, X. Li, H. P. Hratchian, 
 A. F. Izmaylov, J. Bloino, G. Zheng, J. L. Sonnenberg, M. Hada, 
 M. Ehara, K. Toyota, R. Fukuda, J. Hasegawa, M. Ishida, T. Nakajima, 
 Y. Honda, O. Kitao, H. Nakai, T. Vreven, J. A. Montgomery, Jr., 
 J. E. Peralta, F. Ogliaro, M. Bearpark, J. J. Heyd, E. Brothers, 
 K. N. Kudin, V. N. Staroverov, T. Keith, R. Kobayashi, J. Normand, 
 K. Raghavachari, A. Rendell, J. C. Burant, S. S. Iyengar, J. Tomasi, 
 M. Cossi, N. Rega, J. M. Millam, M. Klene, J. E. Knox, J. B. Cross, 
 V. Bakken, C. Adamo, J. Jaramillo, R. Gomperts, R. E. Stratmann, 
 O. Yazyev, A. J. Austin, R. Cammi, C. Pomelli, J. W. Ochterski, 
 R. L. Martin, K. Morokuma, V. G. Zakrzewski, G. A. Voth, 
 P. Salvador, J. J. Dannenberg, S. Dapprich, A. D. Daniels, 
 O. Farkas, J. B. Foresman, J. V. Ortiz, J. Cioslowski, 
 and D. J. Fox, Gaussian, Inc., Wallingford CT, 2010.
 
 ******************************************
 Gaussian 09:  EM64L-G09RevB.01 12-Aug-2010
                12-Aug-2017 
 ******************************************
 %nprocshared=20
 Will use up to   20 processors via shared memory.
 %mem=5GB
 %chk=/gss_gpfs_scratch/harms.n/QMscratch/[O]O+[O]OCCCCO_OO+[O]OC[CH]CCO
 --------------------------------------------------------
 # m062x/6-311+g(2df,2p) opt=(ts,calcfc,noeigentest) freq
 --------------------------------------------------------
 1/5=1,10=4,11=1,14=-1,18=20,26=3,38=1/1,3;
 2/9=110,12=2,17=6,18=5,40=1/2;
 3/5=4,6=6,7=214,11=2,16=1,25=1,30=1,71=2,74=-55/1,2,3;
 4//1;
 5/5=2,38=5/2;
 8/6=4,10=90,11=11/1;
 11/6=1,8=1,9=11,15=111,16=1/1,2,10;
 10/6=1,7=6,13=1/2;
 6/7=2,8=2,9=2,10=2,28=1/1;
 7/10=1,18=20,25=1/1,2,3,16;
 1/5=1,10=4,11=1,14=-1,18=20/3(2);
 2/9=110/2;
 99//99;
 2/9=110/2;
 3/5=4,6=6,7=214,11=2,16=1,25=1,30=1,71=1,74=-55/1,2,3;
 4/5=5,16=3/1;
 5/5=2,38=5/2;
 7//1,2,3,16;
 1/5=1,11=1,14=-1,18=20/3(-5);
 2/9=110/2;
 6/7=2,8=2,9=2,10=2,19=2,28=1/1;
 99/9=1/99;
 ------------------------------
 [O]O+[O]OCCCCO_OO+[O]OC[CH]CCO
 ------------------------------
 Symbolic Z-matrix:
 Charge =  0 Multiplicity = 3
 C                     0.17702  -0.81068   0.62015 
 C                    -0.11715   0.65151   0.82429 
 C                     1.17857  -1.23485  -0.41388 
 C                    -0.37098   1.43466  -0.45833 
 O                     2.53857  -0.9264    0.0039 
 O                    -0.77196   2.76087  -0.18003 
 H                    -0.95289  -1.29811   0.09915 
 H                     0.25891  -1.38277   1.54286 
 H                    -0.99526   0.75488   1.46605 
 H                     0.72071   1.10994   1.36492 
 H                     1.18789  -2.31559  -0.54009 
 H                     1.02204  -0.75282  -1.37684 
 H                    -1.19141   0.97763  -1.01244 
 H                     0.5205    1.42738  -1.09107 
 O                     2.77894   0.34411  -0.05205 
 H                    -0.02371   3.24296   0.17744 
 O                    -2.87451  -0.66135   0.00152 
 O                    -1.97687  -1.63844  -0.37866 
 H                    -3.30498  -1.03762   0.77915 
 

 GradGradGradGradGradGradGradGradGradGradGradGradGradGradGradGradGradGrad
 Berny optimization.
 Initialization pass.
                           ----------------------------
                           !    Initial Parameters    !
                           ! (Angstroms and Degrees)  !
 --------------------------                            --------------------------
 ! Name  Definition              Value          Derivative Info.                !
 --------------------------------------------------------------------------------
 ! R1    R(1,2)                  1.5054         calculate D2E/DX2 analytically  !
 ! R2    R(1,3)                  1.5007         calculate D2E/DX2 analytically  !
 ! R3    R(1,7)                  1.3363         calculate D2E/DX2 analytically  !
 ! R4    R(1,8)                  1.0888         calculate D2E/DX2 analytically  !
 ! R5    R(2,4)                  1.5241         calculate D2E/DX2 analytically  !
 ! R6    R(2,9)                  1.0925         calculate D2E/DX2 analytically  !
 ! R7    R(2,10)                 1.0975         calculate D2E/DX2 analytically  !
 ! R8    R(3,5)                  1.4558         calculate D2E/DX2 analytically  !
 ! R9    R(3,11)                 1.0881         calculate D2E/DX2 analytically  !
 ! R10   R(3,12)                 1.0882         calculate D2E/DX2 analytically  !
 ! R11   R(4,6)                  1.4132         calculate D2E/DX2 analytically  !
 ! R12   R(4,13)                 1.0904         calculate D2E/DX2 analytically  !
 ! R13   R(4,14)                 1.0932         calculate D2E/DX2 analytically  !
 ! R14   R(5,15)                 1.2942         calculate D2E/DX2 analytically  !
 ! R15   R(6,16)                 0.9592         calculate D2E/DX2 analytically  !
 ! R16   R(7,18)                 1.1801         calculate D2E/DX2 analytically  !
 ! R17   R(17,18)                1.3802         calculate D2E/DX2 analytically  !
 ! R18   R(17,19)                0.9652         calculate D2E/DX2 analytically  !
 ! A1    A(2,1,3)              119.8927         calculate D2E/DX2 analytically  !
 ! A2    A(2,1,7)              104.0005         calculate D2E/DX2 analytically  !
 ! A3    A(2,1,8)              114.214          calculate D2E/DX2 analytically  !
 ! A4    A(3,1,7)              101.1026         calculate D2E/DX2 analytically  !
 ! A5    A(3,1,8)              112.6574         calculate D2E/DX2 analytically  !
 ! A6    A(7,1,8)              101.6741         calculate D2E/DX2 analytically  !
 ! A7    A(1,2,4)              114.6782         calculate D2E/DX2 analytically  !
 ! A8    A(1,2,9)              109.185          calculate D2E/DX2 analytically  !
 ! A9    A(1,2,10)             108.8649         calculate D2E/DX2 analytically  !
 ! A10   A(4,2,9)              108.1719         calculate D2E/DX2 analytically  !
 ! A11   A(4,2,10)             109.0911         calculate D2E/DX2 analytically  !
 ! A12   A(9,2,10)             106.5422         calculate D2E/DX2 analytically  !
 ! A13   A(1,3,5)              111.4595         calculate D2E/DX2 analytically  !
 ! A14   A(1,3,11)             111.4914         calculate D2E/DX2 analytically  !
 ! A15   A(1,3,12)             112.8625         calculate D2E/DX2 analytically  !
 ! A16   A(5,3,11)             103.6346         calculate D2E/DX2 analytically  !
 ! A17   A(5,3,12)             107.1265         calculate D2E/DX2 analytically  !
 ! A18   A(11,3,12)            109.7883         calculate D2E/DX2 analytically  !
 ! A19   A(2,4,6)              111.3306         calculate D2E/DX2 analytically  !
 ! A20   A(2,4,13)             109.7297         calculate D2E/DX2 analytically  !
 ! A21   A(2,4,14)             110.3559         calculate D2E/DX2 analytically  !
 ! A22   A(6,4,13)             106.2557         calculate D2E/DX2 analytically  !
 ! A23   A(6,4,14)             110.5856         calculate D2E/DX2 analytically  !
 ! A24   A(13,4,14)            108.4603         calculate D2E/DX2 analytically  !
 ! A25   A(3,5,15)             111.6596         calculate D2E/DX2 analytically  !
 ! A26   A(4,6,16)             108.8875         calculate D2E/DX2 analytically  !
 ! A27   A(1,7,18)             175.362          calculate D2E/DX2 analytically  !
 ! A28   A(18,17,19)           103.6507         calculate D2E/DX2 analytically  !
 ! A29   A(7,18,17)            104.3966         calculate D2E/DX2 analytically  !
 ! D1    D(3,1,2,4)             47.5657         calculate D2E/DX2 analytically  !
 ! D2    D(3,1,2,9)            169.1178         calculate D2E/DX2 analytically  !
 ! D3    D(3,1,2,10)           -74.9399         calculate D2E/DX2 analytically  !
 ! D4    D(7,1,2,4)            -64.2887         calculate D2E/DX2 analytically  !
 ! D5    D(7,1,2,9)             57.2634         calculate D2E/DX2 analytically  !
 ! D6    D(7,1,2,10)           173.2056         calculate D2E/DX2 analytically  !
 ! D7    D(8,1,2,4)           -174.2135         calculate D2E/DX2 analytically  !
 ! D8    D(8,1,2,9)            -52.6614         calculate D2E/DX2 analytically  !
 ! D9    D(8,1,2,10)            63.2809         calculate D2E/DX2 analytically  !
 ! D10   D(2,1,3,5)             72.3614         calculate D2E/DX2 analytically  !
 ! D11   D(2,1,3,11)          -172.3619         calculate D2E/DX2 analytically  !
 ! D12   D(2,1,3,12)           -48.2452         calculate D2E/DX2 analytically  !
 ! D13   D(7,1,3,5)           -174.2361         calculate D2E/DX2 analytically  !
 ! D14   D(7,1,3,11)           -58.9594         calculate D2E/DX2 analytically  !
 ! D15   D(7,1,3,12)            65.1573         calculate D2E/DX2 analytically  !
 ! D16   D(8,1,3,5)            -66.4559         calculate D2E/DX2 analytically  !
 ! D17   D(8,1,3,11)            48.8207         calculate D2E/DX2 analytically  !
 ! D18   D(8,1,3,12)           172.9375         calculate D2E/DX2 analytically  !
 ! D19   D(2,1,7,18)            15.2832         calculate D2E/DX2 analytically  !
 ! D20   D(3,1,7,18)          -109.632          calculate D2E/DX2 analytically  !
 ! D21   D(8,1,7,18)           134.1744         calculate D2E/DX2 analytically  !
 ! D22   D(1,2,4,6)            174.0148         calculate D2E/DX2 analytically  !
 ! D23   D(1,2,4,13)            56.6729         calculate D2E/DX2 analytically  !
 ! D24   D(1,2,4,14)           -62.7902         calculate D2E/DX2 analytically  !
 ! D25   D(9,2,4,6)             51.9109         calculate D2E/DX2 analytically  !
 ! D26   D(9,2,4,13)           -65.431          calculate D2E/DX2 analytically  !
 ! D27   D(9,2,4,14)           175.1059         calculate D2E/DX2 analytically  !
 ! D28   D(10,2,4,6)           -63.602          calculate D2E/DX2 analytically  !
 ! D29   D(10,2,4,13)          179.0561         calculate D2E/DX2 analytically  !
 ! D30   D(10,2,4,14)           59.593          calculate D2E/DX2 analytically  !
 ! D31   D(1,3,5,15)           -72.5935         calculate D2E/DX2 analytically  !
 ! D32   D(11,3,5,15)          167.3789         calculate D2E/DX2 analytically  !
 ! D33   D(12,3,5,15)           51.3214         calculate D2E/DX2 analytically  !
 ! D34   D(2,4,6,16)            69.8889         calculate D2E/DX2 analytically  !
 ! D35   D(13,4,6,16)         -170.6808         calculate D2E/DX2 analytically  !
 ! D36   D(14,4,6,16)          -53.1746         calculate D2E/DX2 analytically  !
 ! D37   D(1,7,18,17)          -35.7969         calculate D2E/DX2 analytically  !
 ! D38   D(19,17,18,7)         -96.9893         calculate D2E/DX2 analytically  !
 --------------------------------------------------------------------------------
 Trust Radius=3.00D-01 FncErr=1.00D-07 GrdErr=1.00D-06
 Number of steps in this run=     95 maximum allowed number of steps=    114.
 Search for a saddle point of order  1.
 GradGradGradGradGradGradGradGradGradGradGradGradGradGradGradGradGradGrad

                          Input orientation:                          
 ---------------------------------------------------------------------
 Center     Atomic      Atomic             Coordinates (Angstroms)
 Number     Number       Type             X           Y           Z
 ---------------------------------------------------------------------
      1          6           0        0.177024   -0.810679    0.620147
      2          6           0       -0.117153    0.651511    0.824288
      3          6           0        1.178570   -1.234850   -0.413875
      4          6           0       -0.370977    1.434658   -0.458331
      5          8           0        2.538566   -0.926396    0.003903
      6          8           0       -0.771955    2.760872   -0.180033
      7          1           0       -0.952885   -1.298114    0.099154
      8          1           0        0.258911   -1.382773    1.542864
      9          1           0       -0.995255    0.754880    1.466046
     10          1           0        0.720711    1.109942    1.364923
     11          1           0        1.187893   -2.315593   -0.540090
     12          1           0        1.022037   -0.752819   -1.376843
     13          1           0       -1.191413    0.977625   -1.012441
     14          1           0        0.520504    1.427379   -1.091068
     15          8           0        2.778936    0.344105   -0.052050
     16          1           0       -0.023706    3.242956    0.177438
     17          8           0       -2.874506   -0.661349    0.001524
     18          8           0       -1.976867   -1.638444   -0.378657
     19          1           0       -3.304976   -1.037617    0.779146
 ---------------------------------------------------------------------
                    Distance matrix (angstroms):
                    1          2          3          4          5
     1  C    0.000000
     2  C    1.505395   0.000000
     3  C    1.500739   2.601981   0.000000
     4  C    2.550482   1.524092   3.086964   0.000000
     5  O    2.443364   3.196195   1.455772   3.775404   0.000000
     6  O    3.781114   2.426279   4.452530   1.413180   4.958763
     7  H    1.336309   2.241719   2.193240   2.849114   3.512474
     8  H    1.088762   2.189997   2.167137   3.512756   2.788101
     9  H    2.130905   1.092521   3.495518   2.134256   4.177612
    10  H    2.130510   1.097480   2.978558   2.149762   3.050188
    11  H    2.152388   3.516871   1.088128   4.062160   2.012490
    12  H    2.169185   2.848662   1.088193   2.751219   2.058264
    13  H    2.781366   2.152663   3.296990   1.090428   4.309408
    14  H    2.838158   2.162676   2.824731   1.093228   3.288129
    15  O    2.924948   3.041348   2.277101   3.358024   1.294249
    16  H    4.082676   2.672589   4.673956   1.948010   4.896820
    17  O    3.117183   3.162837   4.114473   3.297328   5.419558
    18  O    2.514369   3.185829   3.181338   3.468312   4.587210
    19  H    3.493008   3.607964   4.643747   4.031357   5.895791
                    6          7          8          9         10
     6  O    0.000000
     7  H    4.072597   0.000000
     8  H    4.604438   1.886774   0.000000
     9  H    2.604504   2.466774   2.479595   0.000000
    10  H    2.709338   3.194030   2.541368   1.755231   0.000000
    11  H    5.453544   2.454960   2.464114   4.268316   3.947357
    12  H    4.122716   2.525120   3.082838   3.797979   3.328356
    13  H    2.012167   2.543920   3.768886   2.496195   3.053782
    14  H    2.068487   3.319008   3.860438   3.047722   2.484500
    15  O    4.297205   4.079980   3.446213   4.088749   2.613543
    16  H    0.959201   4.635819   4.831318   2.965626   2.552259
    17  O    4.020607   2.026729   3.565737   2.771663   4.233428
    18  O    4.565659   1.180113   2.959107   3.177183   4.227366
    19  H    4.665269   2.462231   3.661105   3.003280   4.600141
                   11         12         13         14         15
    11  H    0.000000
    12  H    1.780429   0.000000
    13  H    4.090171   2.833123   0.000000
    14  H    3.841722   2.255319   1.771756   0.000000
    15  O    3.137450   2.458661   4.133687   2.711744   0.000000
    16  H    5.734133   4.413115   2.812664   2.280700   4.038664
    17  O    4.419610   4.134164   2.558742   4.133114   5.742405
    18  O    3.240416   3.282397   2.804004   4.017918   5.162832
    19  H    4.853811   4.842772   3.426096   4.920183   6.293968
                   16         17         18         19
    16  H    0.000000
    17  O    4.837520   0.000000
    18  O    5.286979   1.380220   0.000000
    19  H    5.426978   0.965183   1.861552   0.000000
 Stoichiometry    C4H10O5(3)
 Framework group  C1[X(C4H10O5)]
 Deg. of freedom    51
 Full point group                 C1      NOp   1
 Largest Abelian subgroup         C1      NOp   1
 Largest concise Abelian subgroup C1      NOp   1
                         Standard orientation:                         
 ---------------------------------------------------------------------
 Center     Atomic      Atomic             Coordinates (Angstroms)
 Number     Number       Type             X           Y           Z
 ---------------------------------------------------------------------
      1          6           0        0.177024   -0.810679    0.620147
      2          6           0       -0.117153    0.651511    0.824288
      3          6           0        1.178570   -1.234850   -0.413875
      4          6           0       -0.370977    1.434658   -0.458331
      5          8           0        2.538566   -0.926396    0.003903
      6          8           0       -0.771955    2.760872   -0.180033
      7          1           0       -0.952885   -1.298114    0.099154
      8          1           0        0.258911   -1.382773    1.542864
      9          1           0       -0.995255    0.754880    1.466046
     10          1           0        0.720711    1.109942    1.364923
     11          1           0        1.187893   -2.315593   -0.540090
     12          1           0        1.022037   -0.752819   -1.376843
     13          1           0       -1.191413    0.977625   -1.012441
     14          1           0        0.520504    1.427379   -1.091068
     15          8           0        2.778936    0.344105   -0.052050
     16          1           0       -0.023706    3.242956    0.177438
     17          8           0       -2.874506   -0.661349    0.001524
     18          8           0       -1.976867   -1.638444   -0.378657
     19          1           0       -3.304976   -1.037617    0.779146
 ---------------------------------------------------------------------
 Rotational constants (GHZ):      1.6776349      1.0127486      0.6858155
 Standard basis: 6-311+G(2df,2p) (5D, 7F)
 There are   396 symmetry adapted basis functions of A   symmetry.
 Integral buffers will be    131072 words long.
 Raffenetti 2 integral format.
 Two-electron integral symmetry is turned on.
   396 basis functions,   578 primitive gaussians,   441 cartesian basis functions
    38 alpha electrons       36 beta electrons
       nuclear repulsion energy       490.0051097358 Hartrees.
 NAtoms=   19 NActive=   19 NUniq=   19 SFac= 1.00D+00 NAtFMM=   50 NAOKFM=F Big=F
 One-electron integrals computed using PRISM.
 NBasis=   396 RedAO= T  NBF=   396
 NBsUse=   396 1.00D-06 NBFU=   396
 Harris functional with IExCor= 1009 diagonalized for initial guess.
 ExpMin= 4.38D-02 ExpMax= 8.59D+03 ExpMxC= 1.30D+03 IAcc=2 IRadAn=         0 AccDes= 0.00D+00
 HarFok:  IExCor= 1009 AccDes= 0.00D+00 IRadAn=         0 IDoV= 1
 ScaDFX=  1.000000  1.000000  1.000000  1.000000
 FoFCou: FMM=F IPFlag=           0 FMFlag=      100000 FMFlg1=           0
         NFxFlg=           0 DoJE=T BraDBF=F KetDBF=T FulRan=T
         Omega=  0.000000  0.000000  1.000000  0.000000  0.000000 ICntrl=     500 IOpCl=  0
         NMat0=    1 NMatS0=    1 NMatT0=    0 NMatD0=    1 NMtDS0=    0 NMtDT0=    0
         I1Cent=           4 NGrid=           0.
 Petite list used in FoFCou.
 Initial guess orbital symmetries:
 Alpha Orbitals:
       Occupied  (A) (A) (A) (A) (A) (A) (A) (A) (A) (A) (A) (A)
                 (A) (A) (A) (A) (A) (A) (A) (A) (A) (A) (A) (A)
                 (A) (A) (A) (A) (A) (A) (A) (A) (A) (A) (A) (A)
                 (A) (A)
       Virtual   (A) (A) (A) (A) (A) (A) (A) (A) (A) (A) (A) (A)
                 (A) (A) (A) (A) (A) (A) (A) (A) (A) (A) (A) (A)
                 (A) (A) (A) (A) (A) (A) (A) (A) (A) (A) (A) (A)
                 (A) (A) (A) (A) (A) (A) (A) (A) (A) (A) (A) (A)
                 (A) (A) (A) (A) (A) (A) (A) (A) (A) (A) (A) (A)
                 (A) (A) (A) (A) (A) (A) (A) (A) (A) (A) (A) (A)
                 (A) (A) (A) (A) (A) (A) (A) (A) (A) (A) (A) (A)
                 (A) (A) (A) (A) (A) (A) (A) (A) (A) (A) (A) (A)
                 (A) (A) (A) (A) (A) (A) (A) (A) (A) (A) (A) (A)
                 (A) (A) (A) (A) (A) (A) (A) (A) (A) (A) (A) (A)
                 (A) (A) (A) (A) (A) (A) (A) (A) (A) (A) (A) (A)
                 (A) (A) (A) (A) (A) (A) (A) (A) (A) (A) (A) (A)
                 (A) (A) (A) (A) (A) (A) (A) (A) (A) (A) (A) (A)
                 (A) (A) (A) (A) (A) (A) (A) (A) (A) (A) (A) (A)
                 (A) (A) (A) (A) (A) (A) (A) (A) (A) (A) (A) (A)
                 (A) (A) (A) (A) (A) (A) (A) (A) (A) (A) (A) (A)
                 (A) (A) (A) (A) (A) (A) (A) (A) (A) (A) (A) (A)
                 (A) (A) (A) (A) (A) (A) (A) (A) (A) (A) (A) (A)
                 (A) (A) (A) (A) (A) (A) (A) (A) (A) (A) (A) (A)
                 (A) (A) (A) (A) (A) (A) (A) (A) (A) (A) (A) (A)
                 (A) (A) (A) (A) (A) (A) (A) (A) (A) (A) (A) (A)
                 (A) (A) (A) (A) (A) (A) (A) (A) (A) (A) (A) (A)
                 (A) (A) (A) (A) (A) (A) (A) (A) (A) (A) (A) (A)
                 (A) (A) (A) (A) (A) (A) (A) (A) (A) (A) (A) (A)
                 (A) (A) (A) (A) (A) (A) (A) (A) (A) (A) (A) (A)
                 (A) (A) (A) (A) (A) (A) (A) (A) (A) (A) (A) (A)
                 (A) (A) (A) (A) (A) (A) (A) (A) (A) (A) (A) (A)
                 (A) (A) (A) (A) (A) (A) (A) (A) (A) (A) (A) (A)
                 (A) (A) (A) (A) (A) (A) (A) (A) (A) (A) (A) (A)
                 (A) (A) (A) (A) (A) (A) (A) (A) (A) (A)
 Beta  Orbitals:
       Occupied  (A) (A) (A) (A) (A) (A) (A) (A) (A) (A) (A) (A)
                 (A) (A) (A) (A) (A) (A) (A) (A) (A) (A) (A) (A)
                 (A) (A) (A) (A) (A) (A) (A) (A) (A) (A) (A) (A)
       Virtual   (A) (A) (A) (A) (A) (A) (A) (A) (A) (A) (A) (A)
                 (A) (A) (A) (A) (A) (A) (A) (A) (A) (A) (A) (A)
                 (A) (A) (A) (A) (A) (A) (A) (A) (A) (A) (A) (A)
                 (A) (A) (A) (A) (A) (A) (A) (A) (A) (A) (A) (A)
                 (A) (A) (A) (A) (A) (A) (A) (A) (A) (A) (A) (A)
                 (A) (A) (A) (A) (A) (A) (A) (A) (A) (A) (A) (A)
                 (A) (A) (A) (A) (A) (A) (A) (A) (A) (A) (A) (A)
                 (A) (A) (A) (A) (A) (A) (A) (A) (A) (A) (A) (A)
                 (A) (A) (A) (A) (A) (A) (A) (A) (A) (A) (A) (A)
                 (A) (A) (A) (A) (A) (A) (A) (A) (A) (A) (A) (A)
                 (A) (A) (A) (A) (A) (A) (A) (A) (A) (A) (A) (A)
                 (A) (A) (A) (A) (A) (A) (A) (A) (A) (A) (A) (A)
                 (A) (A) (A) (A) (A) (A) (A) (A) (A) (A) (A) (A)
                 (A) (A) (A) (A) (A) (A) (A) (A) (A) (A) (A) (A)
                 (A) (A) (A) (A) (A) (A) (A) (A) (A) (A) (A) (A)
                 (A) (A) (A) (A) (A) (A) (A) (A) (A) (A) (A) (A)
                 (A) (A) (A) (A) (A) (A) (A) (A) (A) (A) (A) (A)
                 (A) (A) (A) (A) (A) (A) (A) (A) (A) (A) (A) (A)
                 (A) (A) (A) (A) (A) (A) (A) (A) (A) (A) (A) (A)
                 (A) (A) (A) (A) (A) (A) (A) (A) (A) (A) (A) (A)
                 (A) (A) (A) (A) (A) (A) (A) (A) (A) (A) (A) (A)
                 (A) (A) (A) (A) (A) (A) (A) (A) (A) (A) (A) (A)
                 (A) (A) (A) (A) (A) (A) (A) (A) (A) (A) (A) (A)
                 (A) (A) (A) (A) (A) (A) (A) (A) (A) (A) (A) (A)
                 (A) (A) (A) (A) (A) (A) (A) (A) (A) (A) (A) (A)
                 (A) (A) (A) (A) (A) (A) (A) (A) (A) (A) (A) (A)
                 (A) (A) (A) (A) (A) (A) (A) (A) (A) (A) (A) (A)
                 (A) (A) (A) (A) (A) (A) (A) (A) (A) (A) (A) (A)
                 (A) (A) (A) (A) (A) (A) (A) (A) (A) (A) (A) (A)
                 (A) (A) (A) (A) (A) (A) (A) (A) (A) (A) (A) (A)
 The electronic state of the initial guess is 3-A.
 Initial guess <Sx>= 0.0000 <Sy>= 0.0000 <Sz>= 1.0000 <S**2>= 2.0000 S= 1.0000
 Requested convergence on RMS density matrix=1.00D-08 within 128 cycles.
 Requested convergence on MAX density matrix=1.00D-06.
 Requested convergence on             energy=1.00D-06.
 No special actions if energy rises.
 Restarting incremental Fock formation.
 SCF Done:  E(UM062X) =  -534.210069162     A.U. after   21 cycles
             Convg  =    0.5868D-08             -V/T =  2.0031
 <Sx>= 0.0000 <Sy>= 0.0000 <Sz>= 1.0000 <S**2>= 2.0162 S= 1.0054
 <L.S>= 0.000000000000E+00
 Annihilation of the first spin contaminant:
 S**2 before annihilation     2.0162,   after     2.0001
 Range of M.O.s used for correlation:     1   396
 NBasis=   396 NAE=    38 NBE=    36 NFC=     0 NFV=     0
 NROrb=    396 NOA=    38 NOB=    36 NVA=   358 NVB=   360

 **** Warning!!: The largest alpha MO coefficient is  0.61205072D+02


 **** Warning!!: The largest beta MO coefficient is  0.62561702D+02

 Symmetrizing basis deriv contribution to polar:
 IMax=3 JMax=2 DiffMx= 0.00D+00
 G2DrvN: will do    20 centers at a time, making    1 passes doing MaxLOS=3.
 Calling FoFCou, ICntrl=  3107 FMM=F I1Cent=   0 AccDes= 0.00D+00.
 FoFDir/FoFCou used for L=0 through L=3.
 End of G2Drv Frequency-dependent properties file   721 does not exist.
 End of G2Drv Frequency-dependent properties file   722 does not exist.
          IDoAtm=1111111111111111111
          Differentiating once with respect to nuclear coordinates.
          There are    60 degrees of freedom in the 1st order CPHF.  IDoFFX=5.
     54 vectors produced by pass  0 Test12= 4.43D-10 1.67D-07 XBig12= 2.02D-01 2.07D-01.
 AX will form    54 AO Fock derivatives at one time.
     54 vectors produced by pass  1 Test12= 4.43D-10 1.67D-07 XBig12= 2.82D-02 3.11D-02.
     54 vectors produced by pass  2 Test12= 4.43D-10 1.67D-07 XBig12= 1.19D-03 8.46D-03.
     54 vectors produced by pass  3 Test12= 4.43D-10 1.67D-07 XBig12= 1.34D-05 4.42D-04.
     54 vectors produced by pass  4 Test12= 4.43D-10 1.67D-07 XBig12= 1.96D-07 6.30D-05.
     42 vectors produced by pass  5 Test12= 4.43D-10 1.67D-07 XBig12= 2.83D-09 3.95D-06.
      7 vectors produced by pass  6 Test12= 4.43D-10 1.67D-07 XBig12= 3.20D-11 5.69D-07.
 Inverted reduced A of dimension   319 with in-core refinement.
 End of Minotr Frequency-dependent properties file   721 does not exist.
 End of Minotr Frequency-dependent properties file   722 does not exist.

 **********************************************************************

            Population analysis using the SCF density.

 **********************************************************************

 Orbital symmetries:
 Alpha Orbitals:
       Occupied  (A) (A) (A) (A) (A) (A) (A) (A) (A) (A) (A) (A)
                 (A) (A) (A) (A) (A) (A) (A) (A) (A) (A) (A) (A)
                 (A) (A) (A) (A) (A) (A) (A) (A) (A) (A) (A) (A)
                 (A) (A)
       Virtual   (A) (A) (A) (A) (A) (A) (A) (A) (A) (A) (A) (A)
                 (A) (A) (A) (A) (A) (A) (A) (A) (A) (A) (A) (A)
                 (A) (A) (A) (A) (A) (A) (A) (A) (A) (A) (A) (A)
                 (A) (A) (A) (A) (A) (A) (A) (A) (A) (A) (A) (A)
                 (A) (A) (A) (A) (A) (A) (A) (A) (A) (A) (A) (A)
                 (A) (A) (A) (A) (A) (A) (A) (A) (A) (A) (A) (A)
                 (A) (A) (A) (A) (A) (A) (A) (A) (A) (A) (A) (A)
                 (A) (A) (A) (A) (A) (A) (A) (A) (A) (A) (A) (A)
                 (A) (A) (A) (A) (A) (A) (A) (A) (A) (A) (A) (A)
                 (A) (A) (A) (A) (A) (A) (A) (A) (A) (A) (A) (A)
                 (A) (A) (A) (A) (A) (A) (A) (A) (A) (A) (A) (A)
                 (A) (A) (A) (A) (A) (A) (A) (A) (A) (A) (A) (A)
                 (A) (A) (A) (A) (A) (A) (A) (A) (A) (A) (A) (A)
                 (A) (A) (A) (A) (A) (A) (A) (A) (A) (A) (A) (A)
                 (A) (A) (A) (A) (A) (A) (A) (A) (A) (A) (A) (A)
                 (A) (A) (A) (A) (A) (A) (A) (A) (A) (A) (A) (A)
                 (A) (A) (A) (A) (A) (A) (A) (A) (A) (A) (A) (A)
                 (A) (A) (A) (A) (A) (A) (A) (A) (A) (A) (A) (A)
                 (A) (A) (A) (A) (A) (A) (A) (A) (A) (A) (A) (A)
                 (A) (A) (A) (A) (A) (A) (A) (A) (A) (A) (A) (A)
                 (A) (A) (A) (A) (A) (A) (A) (A) (A) (A) (A) (A)
                 (A) (A) (A) (A) (A) (A) (A) (A) (A) (A) (A) (A)
                 (A) (A) (A) (A) (A) (A) (A) (A) (A) (A) (A) (A)
                 (A) (A) (A) (A) (A) (A) (A) (A) (A) (A) (A) (A)
                 (A) (A) (A) (A) (A) (A) (A) (A) (A) (A) (A) (A)
                 (A) (A) (A) (A) (A) (A) (A) (A) (A) (A) (A) (A)
                 (A) (A) (A) (A) (A) (A) (A) (A) (A) (A) (A) (A)
                 (A) (A) (A) (A) (A) (A) (A) (A) (A) (A) (A) (A)
                 (A) (A) (A) (A) (A) (A) (A) (A) (A) (A) (A) (A)
                 (A) (A) (A) (A) (A) (A) (A) (A) (A) (A)
 Beta  Orbitals:
       Occupied  (A) (A) (A) (A) (A) (A) (A) (A) (A) (A) (A) (A)
                 (A) (A) (A) (A) (A) (A) (A) (A) (A) (A) (A) (A)
                 (A) (A) (A) (A) (A) (A) (A) (A) (A) (A) (A) (A)
       Virtual   (A) (A) (A) (A) (A) (A) (A) (A) (A) (A) (A) (A)
                 (A) (A) (A) (A) (A) (A) (A) (A) (A) (A) (A) (A)
                 (A) (A) (A) (A) (A) (A) (A) (A) (A) (A) (A) (A)
                 (A) (A) (A) (A) (A) (A) (A) (A) (A) (A) (A) (A)
                 (A) (A) (A) (A) (A) (A) (A) (A) (A) (A) (A) (A)
                 (A) (A) (A) (A) (A) (A) (A) (A) (A) (A) (A) (A)
                 (A) (A) (A) (A) (A) (A) (A) (A) (A) (A) (A) (A)
                 (A) (A) (A) (A) (A) (A) (A) (A) (A) (A) (A) (A)
                 (A) (A) (A) (A) (A) (A) (A) (A) (A) (A) (A) (A)
                 (A) (A) (A) (A) (A) (A) (A) (A) (A) (A) (A) (A)
                 (A) (A) (A) (A) (A) (A) (A) (A) (A) (A) (A) (A)
                 (A) (A) (A) (A) (A) (A) (A) (A) (A) (A) (A) (A)
                 (A) (A) (A) (A) (A) (A) (A) (A) (A) (A) (A) (A)
                 (A) (A) (A) (A) (A) (A) (A) (A) (A) (A) (A) (A)
                 (A) (A) (A) (A) (A) (A) (A) (A) (A) (A) (A) (A)
                 (A) (A) (A) (A) (A) (A) (A) (A) (A) (A) (A) (A)
                 (A) (A) (A) (A) (A) (A) (A) (A) (A) (A) (A) (A)
                 (A) (A) (A) (A) (A) (A) (A) (A) (A) (A) (A) (A)
                 (A) (A) (A) (A) (A) (A) (A) (A) (A) (A) (A) (A)
                 (A) (A) (A) (A) (A) (A) (A) (A) (A) (A) (A) (A)
                 (A) (A) (A) (A) (A) (A) (A) (A) (A) (A) (A) (A)
                 (A) (A) (A) (A) (A) (A) (A) (A) (A) (A) (A) (A)
                 (A) (A) (A) (A) (A) (A) (A) (A) (A) (A) (A) (A)
                 (A) (A) (A) (A) (A) (A) (A) (A) (A) (A) (A) (A)
                 (A) (A) (A) (A) (A) (A) (A) (A) (A) (A) (A) (A)
                 (A) (A) (A) (A) (A) (A) (A) (A) (A) (A) (A) (A)
                 (A) (A) (A) (A) (A) (A) (A) (A) (A) (A) (A) (A)
                 (A) (A) (A) (A) (A) (A) (A) (A) (A) (A) (A) (A)
                 (A) (A) (A) (A) (A) (A) (A) (A) (A) (A) (A) (A)
                 (A) (A) (A) (A) (A) (A) (A) (A) (A) (A) (A) (A)
 The electronic state is 3-A.
 Alpha  occ. eigenvalues --  -19.76042 -19.71078 -19.70797 -19.70637 -19.62321
 Alpha  occ. eigenvalues --  -10.61977 -10.58377 -10.58091 -10.55040  -1.35579
 Alpha  occ. eigenvalues --   -1.29492  -1.14842  -1.01808  -1.00831  -0.91826
 Alpha  occ. eigenvalues --   -0.82285  -0.75543  -0.69411  -0.65109  -0.63162
 Alpha  occ. eigenvalues --   -0.61932  -0.60457  -0.60008  -0.58827  -0.54627
 Alpha  occ. eigenvalues --   -0.54237  -0.51921  -0.51138  -0.47862  -0.45255
 Alpha  occ. eigenvalues --   -0.44730  -0.42598  -0.40216  -0.39635  -0.38309
 Alpha  occ. eigenvalues --   -0.37498  -0.35237  -0.31180
 Alpha virt. eigenvalues --    0.00655   0.01677   0.01987   0.03082   0.04693
 Alpha virt. eigenvalues --    0.05074   0.05424   0.06598   0.07884   0.09413
 Alpha virt. eigenvalues --    0.09726   0.10148   0.10769   0.11561   0.12582
 Alpha virt. eigenvalues --    0.13844   0.14016   0.15306   0.16196   0.17033
 Alpha virt. eigenvalues --    0.18078   0.19082   0.19986   0.20269   0.21324
 Alpha virt. eigenvalues --    0.22070   0.22310   0.22984   0.23399   0.24346
 Alpha virt. eigenvalues --    0.25013   0.25175   0.25705   0.25895   0.26608
 Alpha virt. eigenvalues --    0.27228   0.27845   0.28834   0.29313   0.29881
 Alpha virt. eigenvalues --    0.30326   0.31493   0.32320   0.33802   0.34480
 Alpha virt. eigenvalues --    0.34807   0.36375   0.36635   0.37042   0.37695
 Alpha virt. eigenvalues --    0.39278   0.40423   0.41136   0.44179   0.47272
 Alpha virt. eigenvalues --    0.48349   0.49953   0.50412   0.51674   0.52384
 Alpha virt. eigenvalues --    0.54657   0.56676   0.57250   0.57592   0.58847
 Alpha virt. eigenvalues --    0.60154   0.60388   0.61442   0.63296   0.63505
 Alpha virt. eigenvalues --    0.64792   0.66182   0.67345   0.68837   0.69342
 Alpha virt. eigenvalues --    0.70758   0.73017   0.74331   0.75672   0.77230
 Alpha virt. eigenvalues --    0.79909   0.81658   0.84031   0.85209   0.86542
 Alpha virt. eigenvalues --    0.88028   0.91867   0.93225   0.94900   0.96121
 Alpha virt. eigenvalues --    0.99175   0.99878   1.02235   1.03166   1.03636
 Alpha virt. eigenvalues --    1.05636   1.06660   1.08701   1.09493   1.10912
 Alpha virt. eigenvalues --    1.11428   1.12055   1.13782   1.14516   1.15285
 Alpha virt. eigenvalues --    1.16511   1.17462   1.18684   1.19906   1.20184
 Alpha virt. eigenvalues --    1.21306   1.21563   1.23042   1.23890   1.24823
 Alpha virt. eigenvalues --    1.25887   1.26807   1.27678   1.28430   1.30131
 Alpha virt. eigenvalues --    1.32364   1.35183   1.37402   1.38217   1.39286
 Alpha virt. eigenvalues --    1.40476   1.41477   1.42146   1.43641   1.45337
 Alpha virt. eigenvalues --    1.46075   1.47614   1.48791   1.50175   1.51749
 Alpha virt. eigenvalues --    1.53255   1.54575   1.56507   1.57353   1.58394
 Alpha virt. eigenvalues --    1.59431   1.60838   1.61278   1.63514   1.64688
 Alpha virt. eigenvalues --    1.66199   1.67937   1.70933   1.72341   1.73527
 Alpha virt. eigenvalues --    1.75801   1.78034   1.79416   1.82382   1.88109
 Alpha virt. eigenvalues --    1.91637   1.95928   1.97939   2.00144   2.03480
 Alpha virt. eigenvalues --    2.09645   2.12969   2.14877   2.21764   2.22913
 Alpha virt. eigenvalues --    2.25998   2.28028   2.29433   2.31860   2.33837
 Alpha virt. eigenvalues --    2.34262   2.44800   2.50150   2.53564   2.56728
 Alpha virt. eigenvalues --    2.58793   2.61314   2.66782   2.69140   2.70690
 Alpha virt. eigenvalues --    2.71919   2.73789   2.75443   2.79025   2.80483
 Alpha virt. eigenvalues --    2.82090   2.86428   2.91126   2.92774   2.95473
 Alpha virt. eigenvalues --    2.98165   3.01915   3.03330   3.03489   3.09580
 Alpha virt. eigenvalues --    3.11319   3.13707   3.18161   3.20570   3.21974
 Alpha virt. eigenvalues --    3.24027   3.26613   3.27421   3.29810   3.32747
 Alpha virt. eigenvalues --    3.34589   3.37015   3.40785   3.44454   3.45626
 Alpha virt. eigenvalues --    3.48681   3.51450   3.54329   3.56204   3.57165
 Alpha virt. eigenvalues --    3.58546   3.61065   3.61998   3.64021   3.66298
 Alpha virt. eigenvalues --    3.68113   3.69827   3.71321   3.72891   3.74510
 Alpha virt. eigenvalues --    3.76029   3.76685   3.79072   3.79873   3.83949
 Alpha virt. eigenvalues --    3.88636   3.90970   3.94173   3.95038   3.98056
 Alpha virt. eigenvalues --    3.99371   4.00460   4.02664   4.05765   4.08568
 Alpha virt. eigenvalues --    4.09913   4.10710   4.13243   4.14927   4.18393
 Alpha virt. eigenvalues --    4.21233   4.22451   4.23339   4.29195   4.30090
 Alpha virt. eigenvalues --    4.32428   4.35164   4.37991   4.38187   4.42038
 Alpha virt. eigenvalues --    4.45424   4.47298   4.50084   4.50693   4.53676
 Alpha virt. eigenvalues --    4.56312   4.58808   4.58968   4.61452   4.63106
 Alpha virt. eigenvalues --    4.64124   4.66502   4.68292   4.70900   4.73142
 Alpha virt. eigenvalues --    4.76044   4.78776   4.82933   4.84283   4.89981
 Alpha virt. eigenvalues --    4.94526   5.01472   5.03144   5.04414   5.06241
 Alpha virt. eigenvalues --    5.12566   5.13973   5.15681   5.16195   5.17159
 Alpha virt. eigenvalues --    5.17658   5.19552   5.21883   5.22347   5.23921
 Alpha virt. eigenvalues --    5.24860   5.27338   5.28741   5.31844   5.34328
 Alpha virt. eigenvalues --    5.36474   5.40778   5.41489   5.42886   5.46423
 Alpha virt. eigenvalues --    5.47936   5.51619   5.53729   5.55247   5.58416
 Alpha virt. eigenvalues --    5.60748   5.61501   5.63898   5.71183   5.74096
 Alpha virt. eigenvalues --    5.75476   5.85379   5.95493   6.08733   6.11490
 Alpha virt. eigenvalues --    6.33027   6.37087   6.40845   6.52281   6.53618
 Alpha virt. eigenvalues --    6.76124   6.80127   6.82303   6.84473   6.86474
 Alpha virt. eigenvalues --    6.88596   6.90542   6.96392   6.98493   6.98857
 Alpha virt. eigenvalues --    7.09016   7.10134   7.13167   7.18800   7.20446
 Alpha virt. eigenvalues --    7.24666   7.25723   7.27518   7.28226   7.31326
 Alpha virt. eigenvalues --    7.46260   7.50653   7.52171   7.64311   7.64887
 Alpha virt. eigenvalues --    7.80687   7.90778   7.93077   7.95923  24.22762
 Alpha virt. eigenvalues --   24.34751  24.44273  24.51261  49.98152  49.99107
 Alpha virt. eigenvalues --   50.04106  50.06933  50.14172
  Beta  occ. eigenvalues --  -19.75081 -19.70866 -19.69849 -19.69242 -19.62322
  Beta  occ. eigenvalues --  -10.62027 -10.58372 -10.57609 -10.55056  -1.32089
  Beta  occ. eigenvalues --   -1.27715  -1.14841  -0.98853  -0.97552  -0.90141
  Beta  occ. eigenvalues --   -0.80996  -0.74692  -0.67914  -0.63125  -0.60697
  Beta  occ. eigenvalues --   -0.60251  -0.58764  -0.57358  -0.54526  -0.53055
  Beta  occ. eigenvalues --   -0.52323  -0.50777  -0.48929  -0.45947  -0.44424
  Beta  occ. eigenvalues --   -0.42767  -0.40283  -0.38695  -0.37652  -0.35418
  Beta  occ. eigenvalues --   -0.34685
  Beta virt. eigenvalues --   -0.10939  -0.06545   0.00732   0.01777   0.01946
  Beta virt. eigenvalues --    0.03157   0.04999   0.05097   0.05558   0.06656
  Beta virt. eigenvalues --    0.07944   0.09509   0.10033   0.10210   0.10942
  Beta virt. eigenvalues --    0.11705   0.12672   0.13943   0.14555   0.15554
  Beta virt. eigenvalues --    0.16454   0.17281   0.18339   0.19378   0.20039
  Beta virt. eigenvalues --    0.20464   0.21740   0.22494   0.22811   0.23425
  Beta virt. eigenvalues --    0.23736   0.24466   0.25339   0.25467   0.25893
  Beta virt. eigenvalues --    0.26223   0.26741   0.27527   0.28203   0.29279
  Beta virt. eigenvalues --    0.29739   0.30222   0.30838   0.31782   0.32571
  Beta virt. eigenvalues --    0.33942   0.34686   0.35052   0.36651   0.36885
  Beta virt. eigenvalues --    0.37870   0.38123   0.39771   0.40716   0.41289
  Beta virt. eigenvalues --    0.44388   0.47466   0.48687   0.50133   0.50403
  Beta virt. eigenvalues --    0.52291   0.52565   0.54709   0.56762   0.57373
  Beta virt. eigenvalues --    0.57769   0.59084   0.60576   0.60763   0.61587
  Beta virt. eigenvalues --    0.63625   0.64486   0.65169   0.66447   0.67553
  Beta virt. eigenvalues --    0.69025   0.69418   0.70925   0.73088   0.74652
  Beta virt. eigenvalues --    0.75772   0.77383   0.80087   0.81787   0.84057
  Beta virt. eigenvalues --    0.85333   0.86750   0.88275   0.92124   0.93849
  Beta virt. eigenvalues --    0.95187   0.96524   0.99396   1.00170   1.02663
  Beta virt. eigenvalues --    1.03417   1.03979   1.06638   1.06896   1.09278
  Beta virt. eigenvalues --    1.10095   1.11230   1.12550   1.13529   1.14533
  Beta virt. eigenvalues --    1.14982   1.16127   1.17027   1.18246   1.18974
  Beta virt. eigenvalues --    1.20493   1.20524   1.21626   1.21932   1.23545
  Beta virt. eigenvalues --    1.24318   1.25107   1.26105   1.27277   1.28084
  Beta virt. eigenvalues --    1.28791   1.30517   1.32759   1.35590   1.37792
  Beta virt. eigenvalues --    1.39172   1.39576   1.41052   1.41869   1.42429
  Beta virt. eigenvalues --    1.44132   1.45779   1.46454   1.47809   1.48907
  Beta virt. eigenvalues --    1.50702   1.52105   1.53982   1.54927   1.57244
  Beta virt. eigenvalues --    1.57699   1.58908   1.59895   1.61336   1.62267
  Beta virt. eigenvalues --    1.64061   1.65587   1.66583   1.68885   1.72182
  Beta virt. eigenvalues --    1.72590   1.73946   1.76887   1.78534   1.80020
  Beta virt. eigenvalues --    1.82740   1.88710   1.93313   1.96167   1.98584
  Beta virt. eigenvalues --    2.01193   2.03888   2.10064   2.13325   2.15717
  Beta virt. eigenvalues --    2.22048   2.23710   2.26699   2.28995   2.29665
  Beta virt. eigenvalues --    2.32014   2.34121   2.34425   2.45912   2.50194
  Beta virt. eigenvalues --    2.53372   2.57027   2.59079   2.61869   2.67284
  Beta virt. eigenvalues --    2.69639   2.71310   2.72166   2.74156   2.76269
  Beta virt. eigenvalues --    2.79731   2.80434   2.83172   2.87729   2.90984
  Beta virt. eigenvalues --    2.91958   2.96360   2.98610   3.03047   3.04263
  Beta virt. eigenvalues --    3.04449   3.10333   3.11614   3.14097   3.18449
  Beta virt. eigenvalues --    3.21082   3.22472   3.24380   3.27075   3.27786
  Beta virt. eigenvalues --    3.30789   3.32967   3.34972   3.37631   3.41721
  Beta virt. eigenvalues --    3.44960   3.46056   3.49148   3.52913   3.55415
  Beta virt. eigenvalues --    3.56727   3.57824   3.60083   3.61372   3.63058
  Beta virt. eigenvalues --    3.65674   3.67662   3.68484   3.71000   3.72540
  Beta virt. eigenvalues --    3.74242   3.75855   3.76296   3.77576   3.79457
  Beta virt. eigenvalues --    3.81189   3.84231   3.88850   3.91456   3.95128
  Beta virt. eigenvalues --    3.95697   3.98697   3.99735   4.00876   4.03498
  Beta virt. eigenvalues --    4.05864   4.08859   4.10771   4.12065   4.13539
  Beta virt. eigenvalues --    4.15150   4.18988   4.21882   4.22864   4.23666
  Beta virt. eigenvalues --    4.30115   4.30959   4.33073   4.35951   4.38222
  Beta virt. eigenvalues --    4.38625   4.42980   4.46285   4.47864   4.50698
  Beta virt. eigenvalues --    4.52375   4.55444   4.57142   4.59086   4.59816
  Beta virt. eigenvalues --    4.62249   4.63167   4.65036   4.67258   4.69006
  Beta virt. eigenvalues --    4.72237   4.73923   4.77081   4.80346   4.84221
  Beta virt. eigenvalues --    4.84760   4.90313   4.95467   5.03292   5.05846
  Beta virt. eigenvalues --    5.06882   5.11398   5.13374   5.14820   5.16799
  Beta virt. eigenvalues --    5.17967   5.18588   5.19159   5.20458   5.22168
  Beta virt. eigenvalues --    5.23103   5.24448   5.25130   5.27977   5.29597
  Beta virt. eigenvalues --    5.32666   5.34918   5.37095   5.42028   5.42213
  Beta virt. eigenvalues --    5.43127   5.46805   5.49643   5.51973   5.54474
  Beta virt. eigenvalues --    5.56597   5.58553   5.61146   5.61719   5.64316
  Beta virt. eigenvalues --    5.71113   5.74280   5.76605   5.85482   5.95501
  Beta virt. eigenvalues --    6.09481   6.11963   6.33141   6.37963   6.43982
  Beta virt. eigenvalues --    6.52819   6.53654   6.82906   6.85274   6.86398
  Beta virt. eigenvalues --    6.88646   6.89167   6.91796   6.92316   6.98848
  Beta virt. eigenvalues --    7.00303   7.01908   7.10470   7.11522   7.16966
  Beta virt. eigenvalues --    7.18936   7.20516   7.24917   7.26183   7.29690
  Beta virt. eigenvalues --    7.30216   7.35334   7.46275   7.52018   7.52639
  Beta virt. eigenvalues --    7.64384   7.64913   7.83086   7.91339   7.93224
  Beta virt. eigenvalues --    7.97061  24.23303  24.34739  24.44513  24.51557
  Beta virt. eigenvalues --   49.97866  49.98549  50.03614  50.06293  50.14170
          Condensed to atoms (all electrons):
              1          2          3          4          5          6
     1  C    7.078386  -0.638047  -0.246323  -0.198028  -0.028516  -0.001965
     2  C   -0.638047   6.518161  -0.031721  -0.274810  -0.011362  -0.031660
     3  C   -0.246323  -0.031721   5.742944  -0.016510   0.159967   0.003647
     4  C   -0.198028  -0.274810  -0.016510   5.709315  -0.015076   0.173844
     5  O   -0.028516  -0.011362   0.159967  -0.015076   7.718628   0.000153
     6  O   -0.001965  -0.031660   0.003647   0.173844   0.000153   8.093611
     7  H    0.205784   0.023082  -0.043880   0.008898   0.004714  -0.000565
     8  H    0.350360  -0.003565  -0.013672   0.020819  -0.004328  -0.000353
     9  H   -0.042087   0.441140   0.009674  -0.035142  -0.001237  -0.006498
    10  H   -0.057676   0.432805  -0.013388   0.004754   0.006825  -0.007783
    11  H   -0.021983   0.000292   0.426096   0.002296  -0.040030   0.000024
    12  H   -0.035966   0.011416   0.404206   0.000479  -0.018904   0.000277
    13  H   -0.023638   0.011329  -0.007208   0.432726   0.000200  -0.048422
    14  H    0.019479  -0.020646   0.007040   0.377487  -0.003620  -0.024499
    15  O   -0.009576  -0.008298  -0.062814   0.036397   0.206569  -0.001930
    16  H    0.017829   0.023362  -0.005253  -0.045199   0.000033   0.225614
    17  O    0.059015  -0.044487   0.004784   0.000711  -0.000011   0.000838
    18  O    0.063905  -0.009985  -0.048272   0.000796  -0.000300  -0.000400
    19  H   -0.001783   0.017403   0.005997  -0.015920  -0.000010  -0.000006
              7          8          9         10         11         12
     1  C    0.205784   0.350360  -0.042087  -0.057676  -0.021983  -0.035966
     2  C    0.023082  -0.003565   0.441140   0.432805   0.000292   0.011416
     3  C   -0.043880  -0.013672   0.009674  -0.013388   0.426096   0.404206
     4  C    0.008898   0.020819  -0.035142   0.004754   0.002296   0.000479
     5  O    0.004714  -0.004328  -0.001237   0.006825  -0.040030  -0.018904
     6  O   -0.000565  -0.000353  -0.006498  -0.007783   0.000024   0.000277
     7  H    0.440305  -0.009796  -0.010117   0.004598  -0.001538  -0.001807
     8  H   -0.009796   0.466548  -0.004339  -0.002280  -0.005557   0.003727
     9  H   -0.010117  -0.004339   0.447501  -0.024970   0.000003  -0.000171
    10  H    0.004598  -0.002280  -0.024970   0.467205  -0.000203  -0.000069
    11  H   -0.001538  -0.005557   0.000003  -0.000203   0.471143  -0.015677
    12  H   -0.001807   0.003727  -0.000171  -0.000069  -0.015677   0.452638
    13  H    0.005501   0.000214  -0.008899   0.003443  -0.000167  -0.000443
    14  H   -0.001381  -0.000740   0.004981  -0.009898   0.000745  -0.004485
    15  O    0.000796   0.000278   0.001440  -0.008440   0.005829  -0.001262
    16  H   -0.000155  -0.000079  -0.001531   0.000408  -0.000001   0.000019
    17  O   -0.057006  -0.001343   0.005874   0.000502  -0.000066  -0.000217
    18  O   -0.006683   0.000971   0.003482  -0.001328   0.001999  -0.000893
    19  H    0.002755   0.000093  -0.001687  -0.000127  -0.000040  -0.000030
             13         14         15         16         17         18
     1  C   -0.023638   0.019479  -0.009576   0.017829   0.059015   0.063905
     2  C    0.011329  -0.020646  -0.008298   0.023362  -0.044487  -0.009985
     3  C   -0.007208   0.007040  -0.062814  -0.005253   0.004784  -0.048272
     4  C    0.432726   0.377487   0.036397  -0.045199   0.000711   0.000796
     5  O    0.000200  -0.003620   0.206569   0.000033  -0.000011  -0.000300
     6  O   -0.048422  -0.024499  -0.001930   0.225614   0.000838  -0.000400
     7  H    0.005501  -0.001381   0.000796  -0.000155  -0.057006  -0.006683
     8  H    0.000214  -0.000740   0.000278  -0.000079  -0.001343   0.000971
     9  H   -0.008899   0.004981   0.001440  -0.001531   0.005874   0.003482
    10  H    0.003443  -0.009898  -0.008440   0.000408   0.000502  -0.001328
    11  H   -0.000167   0.000745   0.005829  -0.000001  -0.000066   0.001999
    12  H   -0.000443  -0.004485  -0.001262   0.000019  -0.000217  -0.000893
    13  H    0.482263  -0.038252  -0.000083   0.008073  -0.012929   0.001259
    14  H   -0.038252   0.535986   0.000402  -0.009763   0.001500  -0.000885
    15  O   -0.000083   0.000402   8.001439  -0.000429   0.000085  -0.000716
    16  H    0.008073  -0.009763  -0.000429   0.537613   0.000082   0.000070
    17  O   -0.012929   0.001500   0.000085   0.000082   7.866776   0.122772
    18  O    0.001259  -0.000885  -0.000716   0.000070   0.122772   8.219660
    19  H    0.000605  -0.000047   0.000001   0.000011   0.214138  -0.036889
             19
     1  C   -0.001783
     2  C    0.017403
     3  C    0.005997
     4  C   -0.015920
     5  O   -0.000010
     6  O   -0.000006
     7  H    0.002755
     8  H    0.000093
     9  H   -0.001687
    10  H   -0.000127
    11  H   -0.000040
    12  H   -0.000030
    13  H    0.000605
    14  H   -0.000047
    15  O    0.000001
    16  H    0.000011
    17  O    0.214138
    18  O   -0.036889
    19  H    0.563985
 Mulliken atomic charges:
              1
     1  C   -0.489169
     2  C   -0.404409
     3  C   -0.275316
     4  C   -0.167836
     5  O    0.026306
     6  O   -0.373927
     7  H    0.436495
     8  H    0.203043
     9  H    0.222586
    10  H    0.205623
    11  H    0.176837
    12  H    0.207161
    13  H    0.194431
    14  H    0.166595
    15  O   -0.159687
    16  H    0.249295
    17  O   -0.161017
    18  O   -0.308563
    19  H    0.251552
 Sum of Mulliken atomic charges =   0.00000
 Mulliken charges with hydrogens summed into heavy atoms:
              1
     1  C   -0.286126
     2  C    0.023800
     3  C    0.108682
     4  C    0.193189
     5  O    0.026306
     6  O   -0.124632
    15  O   -0.159687
    17  O    0.090535
    18  O    0.127932
 Sum of Mulliken charges with hydrogens summed into heavy atoms =   0.00000
          Atomic-Atomic Spin Densities.
              1          2          3          4          5          6
     1  C    0.577969   0.062117  -0.005581   0.000104  -0.026563   0.000642
     2  C    0.062117  -0.025718  -0.071377  -0.005464  -0.011984  -0.000849
     3  C   -0.005581  -0.071377   0.002617   0.008354   0.016053   0.000680
     4  C    0.000104  -0.005464   0.008354  -0.003534   0.001284  -0.000126
     5  O   -0.026563  -0.011984   0.016053   0.001284   0.526025  -0.000023
     6  O    0.000642  -0.000849   0.000680  -0.000126  -0.000023  -0.001026
     7  H    0.100521  -0.029832   0.013473   0.005599   0.000207   0.000018
     8  H   -0.009708   0.004872   0.001411  -0.000141  -0.001017   0.000007
     9  H   -0.019879   0.019496  -0.002114   0.001870  -0.000566  -0.000196
    10  H   -0.003537   0.004856   0.003562  -0.004074   0.004712  -0.000169
    11  H   -0.008544   0.000791   0.005045   0.000302  -0.002864   0.000003
    12  H   -0.019861   0.003383   0.016703  -0.000099  -0.003945   0.000080
    13  H    0.001840  -0.001150  -0.000222  -0.000399  -0.000082   0.000061
    14  H   -0.002164   0.002051  -0.001000   0.001272  -0.000572   0.000365
    15  O    0.003573   0.010378   0.000818   0.001570  -0.178464   0.000207
    16  H   -0.000677  -0.000514   0.000206   0.001056   0.000024   0.000534
    17  O    0.051356  -0.018485  -0.001214  -0.003448   0.000451   0.000104
    18  O   -0.148122   0.036934  -0.003638   0.004152  -0.001722  -0.000064
    19  H   -0.001340  -0.000855   0.000140   0.000785  -0.000006  -0.000006
              7          8          9         10         11         12
     1  C    0.100521  -0.009708  -0.019879  -0.003537  -0.008544  -0.019861
     2  C   -0.029832   0.004872   0.019496   0.004856   0.000791   0.003383
     3  C    0.013473   0.001411  -0.002114   0.003562   0.005045   0.016703
     4  C    0.005599  -0.000141   0.001870  -0.004074   0.000302  -0.000099
     5  O    0.000207  -0.001017  -0.000566   0.004712  -0.002864  -0.003945
     6  O    0.000018   0.000007  -0.000196  -0.000169   0.000003   0.000080
     7  H   -0.080362  -0.000618  -0.001874   0.000921  -0.002146  -0.001823
     8  H   -0.000618  -0.027631   0.001168  -0.001487   0.001096   0.000240
     9  H   -0.001874   0.001168   0.013275  -0.005240   0.000063   0.000019
    10  H    0.000921  -0.001487  -0.005240   0.034786  -0.000142  -0.000166
    11  H   -0.002146   0.001096   0.000063  -0.000142   0.005445   0.001628
    12  H   -0.001823   0.000240   0.000019  -0.000166   0.001628   0.007977
    13  H   -0.001519   0.000034  -0.000034  -0.000174   0.000017   0.000276
    14  H   -0.000374   0.000075   0.000156  -0.000517   0.000028  -0.000105
    15  O   -0.000537   0.000506   0.000673  -0.005528   0.000811   0.002446
    16  H    0.000003   0.000003  -0.000137   0.000146   0.000000   0.000001
    17  O    0.034406  -0.002084  -0.006575   0.001418  -0.000460  -0.000499
    18  O   -0.045115   0.005727   0.006166  -0.002130   0.002825   0.002424
    19  H   -0.000359   0.000038   0.000354  -0.000023   0.000006   0.000006
             13         14         15         16         17         18
     1  C    0.001840  -0.002164   0.003573  -0.000677   0.051356  -0.148122
     2  C   -0.001150   0.002051   0.010378  -0.000514  -0.018485   0.036934
     3  C   -0.000222  -0.001000   0.000818   0.000206  -0.001214  -0.003638
     4  C   -0.000399   0.001272   0.001570   0.001056  -0.003448   0.004152
     5  O   -0.000082  -0.000572  -0.178464   0.000024   0.000451  -0.001722
     6  O    0.000061   0.000365   0.000207   0.000534   0.000104  -0.000064
     7  H   -0.001519  -0.000374  -0.000537   0.000003   0.034406  -0.045115
     8  H    0.000034   0.000075   0.000506   0.000003  -0.002084   0.005727
     9  H   -0.000034   0.000156   0.000673  -0.000137  -0.006575   0.006166
    10  H   -0.000174  -0.000517  -0.005528   0.000146   0.001418  -0.002130
    11  H    0.000017   0.000028   0.000811   0.000000  -0.000460   0.002825
    12  H    0.000276  -0.000105   0.002446   0.000001  -0.000499   0.002424
    13  H    0.000111   0.000056   0.000005   0.000072  -0.000183   0.000977
    14  H    0.000056  -0.001637   0.000449  -0.000062  -0.000230   0.000485
    15  O    0.000005   0.000449   0.863565  -0.000138  -0.000284   0.001007
    16  H    0.000072  -0.000062  -0.000138  -0.000679  -0.000003  -0.000006
    17  O   -0.000183  -0.000230  -0.000284  -0.000003   0.119512  -0.092710
    18  O    0.000977   0.000485   0.001007  -0.000006  -0.092710   0.598374
    19  H    0.000000   0.000003   0.000003  -0.000001  -0.001212   0.003637
             19
     1  C   -0.001340
     2  C   -0.000855
     3  C    0.000140
     4  C    0.000785
     5  O   -0.000006
     6  O   -0.000006
     7  H   -0.000359
     8  H    0.000038
     9  H    0.000354
    10  H   -0.000023
    11  H    0.000006
    12  H    0.000006
    13  H    0.000000
    14  H    0.000003
    15  O    0.000003
    16  H   -0.000001
    17  O   -0.001212
    18  O    0.003637
    19  H   -0.003569
 Mulliken atomic spin densities:
              1
     1  C    0.552146
     2  C   -0.021350
     3  C   -0.016084
     4  C    0.009064
     5  O    0.320949
     6  O    0.000244
     7  H   -0.009410
     8  H   -0.027508
     9  H    0.006624
    10  H    0.027217
    11  H    0.003903
    12  H    0.008684
    13  H   -0.000315
    14  H   -0.001718
    15  O    0.701060
    16  H   -0.000168
    17  O    0.079861
    18  O    0.369201
    19  H   -0.002399
 Sum of Mulliken atomic spin densities =   2.00000
 APT atomic charges:
              1
     1  C   -0.759370
     2  C   -0.974858
     3  C   -0.694685
     4  C   -0.260381
     5  O   -0.120962
     6  O   -0.893520
     7  H    0.432879
     8  H    0.515605
     9  H    0.466547
    10  H    0.442661
    11  H    0.552516
    12  H    0.286036
    13  H    0.333393
    14  H    0.318696
    15  O   -0.121405
    16  H    0.627386
    17  O   -0.582857
    18  O   -0.205693
    19  H    0.638013
 Sum of APT charges=   0.00000
 APT Atomic charges with hydrogens summed into heavy atoms:
              1
     1  C   -0.243765
     2  C   -0.065650
     3  C    0.143867
     4  C    0.391708
     5  O   -0.120962
     6  O   -0.266134
     7  H    0.000000
     8  H    0.000000
     9  H    0.000000
    10  H    0.000000
    11  H    0.000000
    12  H    0.000000
    13  H    0.000000
    14  H    0.000000
    15  O   -0.121405
    16  H    0.000000
    17  O    0.055156
    18  O    0.227186
    19  H    0.000000
 Sum of APT charges=   0.00000
 Electronic spatial extent (au):  <R**2>=           1595.9012
 Charge=              0.0000 electrons
 Dipole moment (field-independent basis, Debye):
    X=             -0.3933    Y=             -1.7385    Z=              1.8925  Tot=              2.5997
 Quadrupole moment (field-independent basis, Debye-Ang):
   XX=            -62.2858   YY=            -55.0226   ZZ=            -51.9105
   XY=              4.0848   XZ=             -6.7498   YZ=              0.1141
 Traceless Quadrupole moment (field-independent basis, Debye-Ang):
   XX=             -5.8795   YY=              1.3837   ZZ=              4.4958
   XY=              4.0848   XZ=             -6.7498   YZ=              0.1141
 Octapole moment (field-independent basis, Debye-Ang**2):
  XXX=            -49.2479  YYY=             -1.7965  ZZZ=              0.0057  XYY=             20.4338
  XXY=            -11.4202  XXZ=             15.4947  XZZ=             -2.2742  YZZ=             -2.7788
  YYZ=              8.6054  XYZ=              7.6822
 Hexadecapole moment (field-independent basis, Debye-Ang**3):
 XXXX=          -1050.0856 YYYY=           -658.1855 ZZZZ=           -148.0565 XXXY=             44.3041
 XXXZ=            -67.1483 YYYX=             47.5169 YYYZ=             24.3347 ZZZX=             -6.5133
 ZZZY=             -2.6449 XXYY=           -302.8682 XXZZ=           -181.8321 YYZZ=           -140.3265
 XXYZ=            -17.3756 YYXZ=            -11.9217 ZZXY=              6.2060
 N-N= 4.900051097358D+02 E-N=-3.331953460815D+03  KE= 7.957954291854D+02
  Exact polarizability:   0.000   0.000   0.000   0.000   0.000   0.000
 Approx polarizability: 112.965   7.711  95.883   6.124   4.984  80.011
                          Isotropic Fermi Contact Couplings
        Atom                 a.u.       MegaHertz       Gauss      10(-4) cm-1
     1  C(13)              0.15661      88.02855      31.41077      29.36316
     2  C(13)             -0.00893      -5.01859      -1.79076      -1.67402
     3  C(13)             -0.02053     -11.54186      -4.11842      -3.84995
     4  C(13)              0.00277       1.55570       0.55511       0.51892
     5  O(17)              0.09834     -29.80550     -10.63534      -9.94205
     6  O(17)             -0.00082       0.24978       0.08913       0.08332
     7  H(1)              -0.03175     -70.96168     -25.32089     -23.67027
     8  H(1)              -0.00636     -14.20651      -5.06924      -4.73878
     9  H(1)               0.00676      15.11057       5.39183       5.04034
    10  H(1)               0.02035      45.47570      16.22686      15.16906
    11  H(1)               0.00164       3.67523       1.31141       1.22592
    12  H(1)               0.00458      10.24482       3.65561       3.41731
    13  H(1)              -0.00014      -0.31081      -0.11091      -0.10368
    14  H(1)              -0.00005      -0.10188      -0.03635      -0.03398
    15  O(17)              0.10551     -31.98035     -11.41139     -10.66750
    16  H(1)              -0.00002      -0.04544      -0.01621      -0.01516
    17  O(17)              0.01342      -4.06639      -1.45099      -1.35640
    18  O(17)              0.08926     -27.05387      -9.65349      -9.02420
    19  H(1)              -0.00153      -3.41205      -1.21750      -1.13814
 --------------------------------------------------------
       Center         ----  Spin Dipole Couplings  ----
                      3XX-RR        3YY-RR        3ZZ-RR
 --------------------------------------------------------
     1   Atom        0.408748     -0.221977     -0.186771
     2   Atom        0.016940      0.002846     -0.019786
     3   Atom        0.008488     -0.006601     -0.001887
     4   Atom       -0.002554      0.005257     -0.002704
     5   Atom       -0.373082     -0.982981      1.356064
     6   Atom        0.003622      0.000388     -0.004010
     7   Atom        0.158635     -0.087968     -0.070667
     8   Atom       -0.010215     -0.015752      0.025967
     9   Atom        0.001103      0.001779     -0.002882
    10   Atom        0.004362      0.001759     -0.006121
    11   Atom        0.004912      0.003135     -0.008047
    12   Atom        0.008507     -0.013904      0.005397
    13   Atom       -0.000004      0.003568     -0.003564
    14   Atom        0.002892      0.000708     -0.003600
    15   Atom       -1.018323     -1.494797      2.513121
    16   Atom       -0.000959      0.004239     -0.003280
    17   Atom        0.243865     -0.207614     -0.036251
    18   Atom        0.632793     -0.414216     -0.218578
    19   Atom        0.007302     -0.015495      0.008193
 --------------------------------------------------------
                        XY            XZ            YZ
 --------------------------------------------------------
     1   Atom        0.290148      0.311594      0.134294
     2   Atom        0.015664      0.005461      0.009169
     3   Atom        0.004471     -0.005117      0.009090
     4   Atom       -0.002651      0.000805     -0.008987
     5   Atom       -0.091991     -0.757819      0.262552
     6   Atom        0.001133     -0.002849      0.000152
     7   Atom        0.095929      0.119646      0.042784
     8   Atom        0.011789      0.009021     -0.037590
     9   Atom       -0.006263     -0.005806      0.008842
    10   Atom       -0.001566     -0.003304      0.009580
    11   Atom        0.005018     -0.001122      0.011436
    12   Atom        0.007230      0.005234      0.004412
    13   Atom       -0.001565      0.003217     -0.006337
    14   Atom       -0.004143      0.004016     -0.007256
    15   Atom       -0.144494     -1.297275      0.448103
    16   Atom       -0.002702      0.000257     -0.000515
    17   Atom        0.194562      0.286715      0.078484
    18   Atom        0.965512      1.123796      0.663634
    19   Atom        0.001691     -0.015088     -0.003172
 --------------------------------------------------------


 ---------------------------------------------------------------------------------
              Anisotropic Spin Dipole Couplings in Principal Axis System
 ---------------------------------------------------------------------------------

       Atom             a.u.   MegaHertz   Gauss  10(-4) cm-1        Axes

              Baa    -0.3417   -45.846   -16.359   -15.293 -0.1407  0.8705 -0.4717
     1 C(13)  Bbb    -0.3164   -42.457   -15.150   -14.162 -0.4853  0.3546  0.7992
              Bcc     0.6580    88.303    31.509    29.455  0.8629  0.3414  0.3725
 
              Baa    -0.0230    -3.091    -1.103    -1.031  0.0027 -0.3354  0.9421
     2 C(13)  Bbb    -0.0059    -0.796    -0.284    -0.266 -0.5871  0.7621  0.2730
              Bcc     0.0290     3.887     1.387     1.297  0.8095  0.5538  0.1948
 
              Baa    -0.0155    -2.079    -0.742    -0.694 -0.2687  0.7512 -0.6029
     3 C(13)  Bbb     0.0049     0.652     0.233     0.218  0.2119  0.6566  0.7238
              Bcc     0.0106     1.427     0.509     0.476  0.9396  0.0667 -0.3356
 
              Baa    -0.0087    -1.162    -0.414    -0.387  0.1331  0.5555  0.8208
     4 C(13)  Bbb    -0.0030    -0.396    -0.141    -0.132  0.9737  0.0813 -0.2130
              Bcc     0.0116     1.557     0.556     0.520 -0.1851  0.8275 -0.5301
 
              Baa    -1.0122    73.246    26.136    24.432  0.0200  0.9944 -0.1038
     5 O(17)  Bbb    -0.6581    47.618    16.991    15.884  0.9366  0.0177  0.3501
              Bcc     1.6703  -120.864   -43.127   -40.316 -0.3499  0.1043  0.9310
 
              Baa    -0.0050     0.362     0.129     0.121  0.3234 -0.0945  0.9415
     6 O(17)  Bbb     0.0002    -0.014    -0.005    -0.005 -0.1864  0.9691  0.1613
              Bcc     0.0048    -0.348    -0.124    -0.116  0.9277  0.2277 -0.2958
 
              Baa    -0.1231   -65.703   -23.444   -21.916 -0.1132 -0.6278  0.7701
     7 H(1)   Bbb    -0.1199   -63.961   -22.823   -21.335 -0.4686  0.7172  0.5158
              Bcc     0.2430   129.664    46.267    43.251  0.8761  0.3025  0.3754
 
              Baa    -0.0443   -23.618    -8.428    -7.878 -0.3975  0.7868  0.4722
     8 H(1)   Bbb    -0.0039    -2.075    -0.740    -0.692  0.9170  0.3586  0.1744
              Bcc     0.0482    25.693     9.168     8.570  0.0321 -0.5023  0.8641
 
              Baa    -0.0098    -5.219    -1.862    -1.741  0.1108 -0.5652  0.8175
     9 H(1)   Bbb    -0.0044    -2.330    -0.831    -0.777  0.8299  0.5052  0.2368
              Bcc     0.0141     7.549     2.694     2.518 -0.5468  0.6522  0.5250
 
              Baa    -0.0127    -6.803    -2.427    -2.269  0.1119 -0.5391  0.8348
    10 H(1)   Bbb     0.0028     1.477     0.527     0.493  0.8601  0.4733  0.1904
              Bcc     0.0100     5.326     1.900     1.776 -0.4978  0.6967  0.5166
 
              Baa    -0.0158    -8.446    -3.014    -2.817  0.1756 -0.5420  0.8218
    11 H(1)   Bbb     0.0036     1.919     0.685     0.640  0.8646 -0.3143 -0.3920
              Bcc     0.0122     6.527     2.329     2.177  0.4708  0.7794  0.4134
 
              Baa    -0.0164    -8.754    -3.124    -2.920 -0.2501  0.9589 -0.1340
    12 H(1)   Bbb     0.0015     0.811     0.289     0.271 -0.5752 -0.0358  0.8173
              Bcc     0.0149     7.942     2.834     2.649  0.7789  0.2815  0.5605
 
              Baa    -0.0078    -4.170    -1.488    -1.391 -0.2648  0.4410  0.8576
    13 H(1)   Bbb    -0.0005    -0.293    -0.104    -0.098  0.9009  0.4302  0.0569
              Bcc     0.0084     4.463     1.592     1.489 -0.3438  0.7877 -0.5112
 
              Baa    -0.0091    -4.840    -1.727    -1.614 -0.0753  0.5734  0.8158
    14 H(1)   Bbb    -0.0014    -0.743    -0.265    -0.248  0.7933  0.5301 -0.2994
              Bcc     0.0105     5.583     1.992     1.862 -0.6042  0.6246 -0.4948
 
              Baa    -1.5443   111.744    39.873    37.274  0.0109  0.9943 -0.1063
    15 O(17)  Bbb    -1.4436   104.458    37.273    34.843  0.9507  0.0226  0.3092
              Bcc     2.9879  -216.202   -77.146   -72.117 -0.3098  0.1045  0.9451
 
              Baa    -0.0033    -1.771    -0.632    -0.591 -0.0523  0.0493  0.9974
    16 H(1)   Bbb    -0.0021    -1.125    -0.401    -0.375  0.9189  0.3935  0.0287
              Bcc     0.0054     2.895     1.033     0.966 -0.3910  0.9180 -0.0659
 
              Baa    -0.2865    20.729     7.397     6.915 -0.4466  0.8615  0.2416
    17 O(17)  Bbb    -0.1982    14.345     5.119     4.785 -0.3569 -0.4191  0.8348
              Bcc     0.4847   -35.074   -12.515   -11.699  0.8204  0.2866  0.4947
 
              Baa    -0.9953    72.016    25.697    24.022 -0.6446  0.2432  0.7248
    18 O(17)  Bbb    -0.9865    71.380    25.470    23.810 -0.1943  0.8648 -0.4630
              Bcc     1.9817  -143.396   -51.167   -47.832  0.7394  0.4393  0.5102
 
              Baa    -0.0159    -8.493    -3.031    -2.833  0.0211  0.9894  0.1434
    19 H(1)   Bbb    -0.0072    -3.859    -1.377    -1.287  0.7218 -0.1143  0.6826
              Bcc     0.0232    12.352     4.408     4.120 -0.6917 -0.0891  0.7166
 

 ---------------------------------------------------------------------------------

 Calling FoFJK, ICntrl=    100147 FMM=F ISym2X=0 I1Cent= 0 IOpClX= 1 NMat=1 NMatS=1 NMatT=0.
 ***** Axes restored to original set *****
 -------------------------------------------------------------------
 Center     Atomic                   Forces (Hartrees/Bohr)
 Number     Number              X              Y              Z
 -------------------------------------------------------------------
      1        6           0.000002934    0.000012407    0.000004702
      2        6           0.000000149    0.000006633   -0.000004722
      3        6          -0.000000888   -0.000002849    0.000011469
      4        6          -0.000004867   -0.000005121   -0.000013024
      5        8           0.000005112    0.000006363    0.000007757
      6        8          -0.000006323   -0.000004276   -0.000024246
      7        1           0.000005360   -0.000007905    0.000018754
      8        1           0.000002590    0.000013641    0.000014089
      9        1          -0.000000141    0.000011490   -0.000006113
     10        1          -0.000003696    0.000011175   -0.000010574
     11        1           0.000005704   -0.000003810    0.000021428
     12        1           0.000001316   -0.000012126    0.000006960
     13        1          -0.000001360   -0.000009901   -0.000008226
     14        1          -0.000002829   -0.000012644   -0.000013400
     15        8          -0.000000436    0.000005277   -0.000006649
     16        1          -0.000004283    0.000002517   -0.000030147
     17        8          -0.000001269   -0.000009034    0.000002152
     18        8           0.000001577   -0.000002671    0.000016354
     19        1           0.000001349    0.000000834    0.000013436
 -------------------------------------------------------------------
 Cartesian Forces:  Max     0.000030147 RMS     0.000009742

 GradGradGradGradGradGradGradGradGradGradGradGradGradGradGradGradGradGrad
 Berny optimization.
 Internal  Forces:  Max     0.000014643 RMS     0.000002658
 Search for a saddle point.
 Step number   1 out of a maximum of   95
 All quantities printed in internal units (Hartrees-Bohrs-Radians)
 Swaping is turned off.
 Second derivative matrix not updated -- analytic derivatives used.
 ITU=  0
     Eigenvalues ---   -0.07075   0.00004   0.00260   0.00326   0.00418
     Eigenvalues ---    0.00571   0.00798   0.02034   0.02171   0.02360
     Eigenvalues ---    0.02959   0.03404   0.03746   0.04526   0.04951
     Eigenvalues ---    0.05047   0.06052   0.06120   0.06807   0.07604
     Eigenvalues ---    0.09122   0.09816   0.10239   0.11002   0.12828
     Eigenvalues ---    0.14403   0.16481   0.17016   0.18303   0.20012
     Eigenvalues ---    0.20788   0.22839   0.24294   0.24848   0.24998
     Eigenvalues ---    0.28631   0.31244   0.32269   0.32995   0.33437
     Eigenvalues ---    0.33918   0.34371   0.34509   0.34843   0.35745
     Eigenvalues ---    0.37717   0.40616   0.42101   0.52054   0.54870
     Eigenvalues ---    0.55779
 Eigenvectors required to have negative eigenvalues:
                          R16       R3        R17       D12       D8
   1                    0.71293  -0.65054  -0.13486  -0.05916  -0.05904
                          D1        D17       D3        D10       D38
   1                    0.05835   0.05460   0.05418  -0.05297   0.05168
 RFO step:  Lambda0=1.314836712D-10 Lambda=-1.64064851D-08.
 Linear search not attempted -- option 19 set.
 Iteration  1 RMS(Cart)=  0.00034911 RMS(Int)=  0.00000116
 Iteration  2 RMS(Cart)=  0.00000033 RMS(Int)=  0.00000000
 Variable       Old X    -DE/DX   Delta X   Delta X   Delta X     New X
                                 (Linear)    (Quad)   (Total)
    R1        2.84478   0.00000   0.00000  -0.00001  -0.00001   2.84478
    R2        2.83599   0.00000   0.00000   0.00000   0.00000   2.83599
    R3        2.52526   0.00000   0.00000   0.00005   0.00005   2.52530
    R4        2.05746   0.00000   0.00000   0.00000   0.00000   2.05747
    R5        2.88012   0.00000   0.00000   0.00000   0.00000   2.88012
    R6        2.06457   0.00000   0.00000   0.00000   0.00000   2.06457
    R7        2.07394   0.00000   0.00000   0.00000   0.00000   2.07393
    R8        2.75101   0.00000   0.00000   0.00003   0.00003   2.75104
    R9        2.05626   0.00000   0.00000   0.00000   0.00000   2.05626
   R10        2.05639   0.00000   0.00000   0.00000   0.00000   2.05639
   R11        2.67052   0.00000   0.00000   0.00000   0.00000   2.67053
   R12        2.06061   0.00000   0.00000  -0.00001  -0.00001   2.06060
   R13        2.06590   0.00000   0.00000  -0.00001  -0.00001   2.06590
   R14        2.44578   0.00000   0.00000   0.00000   0.00000   2.44577
   R15        1.81263   0.00000   0.00000   0.00000   0.00000   1.81263
   R16        2.23009   0.00001   0.00000  -0.00001  -0.00001   2.23008
   R17        2.60824   0.00000   0.00000  -0.00001  -0.00001   2.60823
   R18        1.82393   0.00000   0.00000   0.00000   0.00000   1.82393
    A1        2.09252   0.00000   0.00000   0.00000   0.00000   2.09252
    A2        1.81515   0.00001   0.00000   0.00006   0.00006   1.81521
    A3        1.99341   0.00000   0.00000  -0.00002  -0.00002   1.99339
    A4        1.76457   0.00000   0.00000  -0.00001  -0.00001   1.76456
    A5        1.96624   0.00000   0.00000   0.00002   0.00002   1.96626
    A6        1.77455   0.00000   0.00000  -0.00004  -0.00004   1.77450
    A7        2.00151   0.00000   0.00000   0.00004   0.00004   2.00155
    A8        1.90564   0.00000   0.00000   0.00001   0.00001   1.90565
    A9        1.90005   0.00000   0.00000  -0.00004  -0.00004   1.90001
   A10        1.88796   0.00000   0.00000   0.00002   0.00002   1.88798
   A11        1.90400   0.00000   0.00000  -0.00001  -0.00001   1.90398
   A12        1.85951   0.00000   0.00000  -0.00003  -0.00003   1.85949
   A13        1.94533   0.00000   0.00000   0.00002   0.00002   1.94536
   A14        1.94589   0.00000   0.00000   0.00000   0.00000   1.94590
   A15        1.96982   0.00000   0.00000   0.00000   0.00000   1.96982
   A16        1.80876   0.00000   0.00000  -0.00001  -0.00001   1.80876
   A17        1.86971   0.00000   0.00000  -0.00002  -0.00002   1.86969
   A18        1.91617   0.00000   0.00000   0.00000   0.00000   1.91617
   A19        1.94309   0.00000   0.00000  -0.00002  -0.00002   1.94307
   A20        1.91514   0.00000   0.00000   0.00002   0.00002   1.91516
   A21        1.92607   0.00000   0.00000  -0.00002  -0.00002   1.92606
   A22        1.85451   0.00000   0.00000   0.00001   0.00001   1.85452
   A23        1.93008   0.00000   0.00000   0.00001   0.00001   1.93010
   A24        1.89299   0.00000   0.00000   0.00000   0.00000   1.89299
   A25        1.94883   0.00000   0.00000   0.00001   0.00001   1.94884
   A26        1.90045   0.00000   0.00000  -0.00001  -0.00001   1.90044
   A27        3.06064   0.00000   0.00000  -0.00012  -0.00012   3.06052
   A28        1.80905   0.00000   0.00000   0.00001   0.00001   1.80906
   A29        1.82206   0.00001   0.00000   0.00007   0.00007   1.82213
    D1        0.83018   0.00000   0.00000  -0.00008  -0.00008   0.83010
    D2        2.95166   0.00000   0.00000  -0.00002  -0.00002   2.95165
    D3       -1.30795   0.00000   0.00000  -0.00006  -0.00006  -1.30801
    D4       -1.12205   0.00000   0.00000  -0.00010  -0.00010  -1.12215
    D5        0.99943   0.00000   0.00000  -0.00004  -0.00004   0.99939
    D6        3.02301   0.00000   0.00000  -0.00009  -0.00009   3.02292
    D7       -3.04060   0.00000   0.00000  -0.00008  -0.00008  -3.04068
    D8       -0.91912   0.00000   0.00000  -0.00001  -0.00001  -0.91913
    D9        1.10446   0.00000   0.00000  -0.00006  -0.00006   1.10440
   D10        1.26294   0.00000   0.00000  -0.00034  -0.00034   1.26260
   D11       -3.00828   0.00000   0.00000  -0.00033  -0.00033  -3.00862
   D12       -0.84204   0.00000   0.00000  -0.00033  -0.00033  -0.84236
   D13       -3.04099   0.00000   0.00000  -0.00028  -0.00028  -3.04127
   D14       -1.02904   0.00000   0.00000  -0.00027  -0.00027  -1.02931
   D15        1.13721   0.00000   0.00000  -0.00026  -0.00026   1.13694
   D16       -1.15987   0.00000   0.00000  -0.00033  -0.00033  -1.16020
   D17        0.85208   0.00000   0.00000  -0.00032  -0.00032   0.85176
   D18        3.01833   0.00000   0.00000  -0.00031  -0.00031   3.01801
   D19        0.26674   0.00000   0.00000   0.00351   0.00351   0.27026
   D20       -1.91344   0.00000   0.00000   0.00350   0.00350  -1.90994
   D21        2.34178   0.00000   0.00000   0.00350   0.00350   2.34528
   D22        3.03713   0.00000   0.00000   0.00036   0.00036   3.03749
   D23        0.98913   0.00000   0.00000   0.00035   0.00035   0.98948
   D24       -1.09590   0.00000   0.00000   0.00035   0.00035  -1.09555
   D25        0.90602   0.00000   0.00000   0.00030   0.00030   0.90631
   D26       -1.14199   0.00000   0.00000   0.00029   0.00029  -1.14170
   D27        3.05617   0.00000   0.00000   0.00029   0.00029   3.05646
   D28       -1.11006   0.00000   0.00000   0.00033   0.00033  -1.10974
   D29        3.12512   0.00000   0.00000   0.00032   0.00032   3.12544
   D30        1.04009   0.00000   0.00000   0.00032   0.00032   1.04041
   D31       -1.26700   0.00000   0.00000  -0.00021  -0.00021  -1.26720
   D32        2.92131   0.00000   0.00000  -0.00022  -0.00022   2.92109
   D33        0.89573   0.00000   0.00000  -0.00021  -0.00021   0.89552
   D34        1.21979   0.00000   0.00000   0.00013   0.00013   1.21992
   D35       -2.97894   0.00000   0.00000   0.00014   0.00014  -2.97880
   D36       -0.92807   0.00000   0.00000   0.00015   0.00015  -0.92792
   D37       -0.62477   0.00001   0.00000  -0.00336  -0.00336  -0.62814
   D38       -1.69278   0.00000   0.00000   0.00015   0.00015  -1.69264
         Item               Value     Threshold  Converged?
 Maximum Force            0.000015     0.000450     YES
 RMS     Force            0.000003     0.000300     YES
 Maximum Displacement     0.001404     0.001800     YES
 RMS     Displacement     0.000349     0.001200     YES
 Predicted change in Energy=-8.137501D-09
 Optimization completed.
    -- Stationary point found.
                           ----------------------------
                           !   Optimized Parameters   !
                           ! (Angstroms and Degrees)  !
 --------------------------                            --------------------------
[...]
 81,0.00034977,-0.00033911,-0.00256715,0.62736676,0.00300040,-0.0233899
 8,0.02162554,0.00505891,-0.08864357,0.04707050,0.00070087,-0.00055537,
 -0.00007855,0.04912023,0.50477057,0.00271524,0.00195229,0.01351320,-0.
 01215002,0.03423102,-0.17553519,-0.00053515,-0.00133121,0.00223955,-0.
 00246917,0.04670405,0.53595898,-0.05586317,-0.00582656,0.00154376,0.00
 384065,-0.00003343,-0.00070792,-0.14221997,0.02852671,-0.05666639,-0.0
 0075404,-0.00032264,-0.00011457,0.29002779,-0.00023278,0.00321618,0.00
 606268,0.00000458,0.00005182,-0.00034991,0.01719328,-0.07006747,-0.001
 52943,-0.00021132,-0.00063994,0.00070680,0.05918900,0.54085908,0.01403
 880,0.00607744,0.01018446,-0.00126573,-0.00015115,0.00090491,-0.038917
 69,0.01299539,-0.06403994,-0.00019434,-0.00013929,0.00038749,0.0781326
 5,-0.02937156,0.07246617,0.00008140,-0.00017867,-0.00256261,-0.0002521
 4,0.01346508,0.00115092,0.00010978,-0.00008544,0.00063589,-0.10882318,
 0.02445469,-0.00335989,0.00015766,0.00025108,0.00006919,0.45488376,0.0
 0248156,0.00063123,0.00922944,0.01148824,-0.04209055,-0.00537115,-0.00
 134793,0.00007592,-0.00047181,0.06787099,-0.23092621,-0.03542597,0.000
 39355,0.00036916,-0.00005250,0.11553819,0.47137630,-0.00156867,0.00200
 067,-0.00508470,-0.00892039,0.02912287,0.01022025,0.00040326,0.0007055
 9,-0.00133326,0.01029193,-0.04823197,-0.07408578,0.00003103,-0.0002213
 2,0.00001272,0.14852751,0.15238922,0.14108308,0.08142621,0.05108896,0.
 04365432,-0.01713241,-0.01226987,-0.00909844,-0.03035204,-0.00894756,-
 0.00993034,-0.00112998,0.00321390,-0.00287229,0.00139601,0.00417485,0.
 00344894,0.00117356,-0.00179875,0.00060027,-0.07152727,0.03301964,-0.0
 0583476,0.01259885,-0.01725492,-0.01440329,-0.00945226,-0.00492303,-0.
 00106111,-0.00050608,-0.00134624,0.00021605,-0.00181763,0.00351347,0.0
 0165969,0.00001840,0.00069684,0.00001166,0.00039645,-0.05323289,0.0486
 6881,0.04585770,0.02171147,-0.00490013,-0.00972619,-0.00777078,-0.0056
 9666,-0.00153747,0.00096975,0.00057511,0.00035769,0.00189332,-0.000289
 57,0.00596916,0.00153670,-0.00003045,0.00033909,-0.00086085,-0.0001164
 9,-0.05850670,-0.00327843,0.02299998,-0.03399763,0.02533469,-0.0187086
 9,0.00070656,0.00010954,-0.00250037,0.00171010,-0.01153996,0.02381569,
 0.00071427,0.00175216,-0.00039842,0.00329553,0.00079604,-0.00143861,0.
 00020370,0.00003799,-0.00019462,-0.01432264,0.00150839,-0.01613192,0.0
 3643458,0.01961222,-0.12042182,0.12083435,0.00372514,-0.01434907,0.029
 08120,-0.00103680,0.00595378,-0.00826556,0.00015232,-0.00220885,-0.005
 95903,0.00038194,0.00035264,-0.00011540,0.00081602,-0.00317751,0.00161
 488,-0.00745285,-0.00082079,-0.00630498,-0.02149316,0.13027939,-0.0088
 3164,0.12470990,-0.24660540,0.00045533,-0.00494582,0.00784352,-0.00393
 518,0.01053432,-0.01843102,0.00010780,-0.00090726,-0.00017879,0.000021
 38,0.00019355,0.00106034,0.00022917,-0.00067291,0.00028379,-0.00346298
 ,0.00238734,-0.00741041,0.01091334,-0.13044278,0.26223232,-0.00385670,
 0.00056260,0.00218529,-0.21567125,0.01893489,0.12296072,0.00009978,0.0
 0022410,-0.00088535,0.00469542,-0.00024323,-0.00298696,0.00052647,0.00
 023550,-0.00051551,0.00051255,-0.00119959,-0.00067377,0.00067538,0.000
 04371,0.00001676,0.00040081,0.00048385,-0.00004306,0.23402063,0.026057
 04,-0.00526117,-0.02192288,0.01939251,-0.04638168,-0.01216701,-0.00010
 518,-0.00659634,0.00007902,-0.01379935,0.00006336,0.01152977,-0.000351
 60,0.00031639,0.00012456,-0.00024851,0.00140716,-0.00151574,0.00149479
 ,0.00044511,-0.00010883,-0.00056723,0.00099785,0.00065652,-0.02107675,
 0.05594744,0.00299209,-0.00338839,-0.00379775,0.12136842,-0.00986642,-
 0.13279442,0.00008852,-0.00082148,0.00096363,0.02506617,-0.00174106,-0
 .02065631,0.00018242,0.00003241,-0.00013618,-0.00112458,-0.00187169,0.
 00339974,0.00058481,-0.00000457,0.00000953,-0.00065445,-0.00059688,0.0
 0032641,-0.13404044,0.01392271,0.14706377,0.00338701,0.00033219,0.0027
 2138,-0.19129335,-0.07883362,-0.09290355,0.00033699,-0.00044652,-0.000
 46840,-0.00401243,-0.00289003,-0.00315655,-0.00055477,-0.00003510,0.00
 016887,0.00052038,0.00106468,0.00142995,0.00410362,0.00149091,0.001664
 13,0.00047306,-0.00045518,-0.00004762,-0.02058278,-0.01119333,-0.01239
 838,0.20913618,-0.01982842,-0.01929541,-0.01537367,-0.08524454,-0.0861
 9666,-0.05222720,-0.00140161,0.00026467,0.00075314,0.01398361,0.005901
 85,0.00959015,0.00150278,0.00007302,-0.00034341,-0.00016558,0.00251200
 ,-0.00043161,-0.00279630,-0.00364055,-0.00205504,0.00095882,0.00089638
 ,0.00059381,0.00206216,0.00132796,0.00157791,0.08854012,0.09928323,-0.
 00302883,-0.00533112,-0.00318437,-0.09405647,-0.04753884,-0.10068236,-
 0.00052181,-0.00036063,0.00026222,-0.02488420,-0.01210166,-0.01828291,
 0.00051954,0.00053474,-0.00055217,0.00221779,-0.00122164,0.00208951,0.
 00168113,0.00002202,0.00094780,-0.00005873,-0.00037505,0.00006378,0.01
 442910,0.00810811,0.00849181,0.10463962,0.05440564,0.11288030,-0.00121
 053,0.02389051,0.00264734,-0.00237988,-0.00083563,0.00324267,-0.045436
 56,0.01546767,-0.00132203,0.00019000,-0.00045927,0.00045940,-0.0052663
 0,-0.03771512,-0.00278702,-0.00006711,0.00038620,-0.00018975,0.0005606
 7,0.00127574,0.00063332,0.00044303,-0.00091828,-0.00026353,-0.00006420
 ,0.00113835,0.00021893,0.00006739,0.00020885,0.00020696,0.06028982,0.0
 0181177,-0.00637380,-0.00037066,0.00037621,0.00151301,-0.00084012,0.00
 208093,-0.32049479,-0.02812885,-0.00030146,0.00027483,0.00001564,-0.00
 111321,-0.00939715,0.00035189,0.00010428,-0.00017019,-0.00003576,-0.00
 002346,-0.00023297,-0.00033253,0.00006455,0.00064138,-0.00017548,-0.00
 006510,-0.00037583,-0.00005236,-0.00000400,-0.00005844,-0.00002135,-0.
 00128176,0.34435823,0.00188418,-0.02440834,-0.00181690,0.00318282,0.00
 076796,-0.00239460,0.00008195,-0.02273594,-0.05681786,0.00055739,0.000
 37173,-0.00078166,-0.00233116,-0.01255266,-0.00152554,-0.00023155,0.00
 008386,0.00049842,-0.00075575,-0.00022282,0.00013893,-0.00085388,0.000
 14671,0.00055573,0.00019816,-0.00115300,-0.00005124,-0.00014069,0.0002
 0144,0.00006679,-0.00045453,0.03297918,0.05543364,0.00421654,-0.011364
 07,0.02122036,0.00036388,-0.00022058,-0.00101190,-0.04760634,0.0116398
 4,-0.02636053,0.00044196,0.00093106,0.00040501,-0.02626687,0.00840577,
 -0.03477451,-0.00010487,-0.00018277,-0.00023351,0.00062923,-0.00003440
 ,0.00063757,-0.00279417,0.00209523,0.00331700,0.00011395,-0.00011855,-
 0.00016398,-0.00005216,0.00005755,0.00000027,0.00116855,0.00071599,0.0
 0061260,0.06584941,-0.00152329,0.00659005,-0.00898963,-0.00113124,0.00
 035059,0.00018003,0.01950670,-0.11148473,0.11334369,0.00056343,-0.0016
 3448,-0.00024968,-0.00556135,0.00088380,-0.00962853,-0.00013019,0.0003
 4802,0.00003876,-0.00053166,-0.00007250,0.00031532,0.00178279,0.000469
 68,-0.00173626,-0.00005852,0.00009629,0.00029554,0.00001802,-0.0000910
 0,0.00001028,0.00438315,-0.01071793,0.02705493,-0.01804852,0.11422202,
 -0.00120993,0.01098729,-0.01907223,-0.00048418,0.00027694,0.00040072,-
 0.03037463,0.10725998,-0.26321158,0.00081598,0.00008771,-0.00055118,-0
 .01040520,0.00293172,-0.00801331,-0.00045091,0.00045796,0.00062757,0.0
 0013259,0.00009621,-0.00031086,0.00280397,-0.00151136,-0.00138682,-0.0
 0002391,0.00006463,0.00019253,-0.00001700,0.00003362,0.00006193,0.0016
 2968,-0.00182895,0.00594135,0.03577333,-0.11952008,0.28310130,0.000330
 83,-0.00025219,-0.00018421,-0.00318138,-0.00090605,-0.00234932,-0.0002
 0156,0.00003076,-0.00041620,-0.21361271,-0.08707086,-0.10401749,0.0001
 8180,0.00016419,0.00018886,0.01178703,0.00610987,0.00642285,-0.0002356
 9,0.00043341,-0.00055639,-0.00000339,0.00011150,0.00009743,0.00047784,
 0.00023915,0.00000028,0.00114353,0.00072744,-0.00029240,0.00000435,0.0
 0000934,0.00006983,-0.00032107,0.00007956,0.00006912,0.22230827,0.0003
 9944,0.00172213,0.00000828,0.01343538,0.00741198,0.00880660,-0.0000083
 5,0.00010975,-0.00007545,-0.07590283,-0.08739672,-0.04998447,-0.000078
 23,0.00016877,0.00006477,-0.02598777,-0.02867691,-0.02013692,0.0001042
 5,-0.00050171,0.00026756,-0.00019467,0.00012445,-0.00005848,-0.0004667
 5,0.00040327,-0.00061701,0.00056447,-0.00182977,0.00371659,0.00000059,
 -0.00000187,-0.00007607,-0.00006053,0.00009255,-0.00009426,0.08802692,
 0.11384028,-0.00072535,-0.00190151,0.00023507,-0.02337448,-0.00854268,
 -0.01603927,-0.00017186,0.00034070,0.00023802,-0.09743421,-0.05343883,
 -0.11734102,0.00011580,-0.00010554,-0.00013087,-0.00486446,-0.00691174
 ,-0.00187498,0.00092266,0.00106537,0.00022213,0.00051829,0.00011547,0.
 00011744,0.00018126,-0.00088297,0.00088416,-0.00075440,0.00304470,-0.0
 0425189,-0.00005530,0.00001199,0.00003685,-0.00026253,0.00028041,-0.00
 006128,0.11104229,0.05957947,0.12672153,-0.00011618,-0.00050776,0.0004
 3927,0.00570577,-0.00033545,-0.00430916,0.00003958,0.00091012,0.001306
 41,-0.22745465,-0.00914222,0.12002268,-0.00028084,-0.00013240,0.000183
 35,-0.00417870,0.00930557,0.00561802,0.00030505,0.00024924,0.00014666,
 0.00012469,-0.00015832,-0.00004071,0.00078796,0.00099484,-0.00168738,0
 .00054793,-0.00037417,0.00031698,-0.00009126,0.00004223,-0.00045197,0.
 00010035,0.00087467,-0.00057169,-0.01799106,-0.00118388,0.01422664,0.2
 4284934,-0.00042609,0.00101433,-0.00044054,-0.01432748,0.00163428,0.00
 930107,0.00042809,-0.00109717,0.00009701,-0.01426115,-0.05089662,0.005
 35403,0.00012936,-0.00029905,-0.00009424,0.03531173,-0.01694803,-0.024
 52009,0.00004844,0.00013802,0.00007478,0.00012275,0.00007574,-0.000146
 30,0.00123268,-0.00178225,0.00316246,0.00065404,0.00060804,-0.00049290
 ,-0.00004429,0.00010571,-0.00010767,0.00074851,-0.00245303,0.00009769,
 -0.00961618,0.00150538,0.00828469,-0.00098402,0.06623350,0.00016476,-0
 .00083977,-0.00046999,0.02394275,0.00349796,-0.01807747,0.00019809,0.0
 0024476,-0.00006413,0.11654008,0.00408994,-0.13625053,-0.00020544,-0.0
 0051204,-0.00004486,0.00597396,-0.00754348,-0.00138003,0.00011379,-0.0
 0000568,-0.00010663,-0.00016580,0.00026245,0.00016579,-0.00121165,0.00
 293622,-0.00428396,0.00014457,-0.00091285,0.00131570,-0.00002485,-0.00
 011623,0.00033379,-0.00016953,-0.00023192,0.00066570,-0.01281458,0.000
 52573,0.01121360,-0.13368310,-0.00092858,0.14633385,0.00262818,0.00034
 928,0.00033228,-0.00145604,0.00086968,0.00075688,-0.00722150,-0.057047
 42,0.00186102,0.00014308,-0.00027075,-0.00072677,-0.06626697,-0.050316
 20,-0.01569352,-0.00058459,0.00082496,0.00033174,0.00049327,0.00013433
 ,-0.00007847,-0.00028485,-0.00020171,0.00019230,-0.00063328,-0.0002035
 8,-0.00018833,-0.00086231,0.00008922,-0.00021087,-0.00819413,-0.002958
 46,-0.00192886,0.00399423,-0.00044181,0.00234240,-0.00038448,0.0000986
 3,0.00021798,-0.00092307,-0.00020467,0.00071653,0.07962021,0.00554378,
 0.00172176,-0.00174269,-0.00070838,-0.00000490,0.00066387,-0.03656785,
 -0.03789938,-0.00430871,0.00047570,0.00042995,0.00034068,-0.07871096,-
 0.46704360,0.02045997,-0.00006017,-0.00016146,-0.00003794,-0.00171213,
 -0.00079509,-0.00123457,-0.00056797,-0.00030511,0.00002187,-0.00025918
 ,0.00019408,0.00002080,0.00058391,0.00013799,-0.00035444,-0.00466264,0
 .00075868,-0.00052238,0.00536964,0.00349267,0.00068107,0.00007192,-0.0
 0012783,-0.00007084,0.00052881,0.00011360,-0.00002079,0.10951613,0.499
 05156,-0.00029774,-0.00123107,0.00036064,0.00115106,-0.00046678,-0.001
 38943,0.00207488,-0.01635442,-0.00106108,0.00044306,0.00038986,-0.0018
 3599,-0.01399446,0.03367135,-0.01033256,-0.00045685,0.00033528,0.00061
 804,0.00120273,0.00034980,0.00041754,-0.00004070,0.00024186,0.00012464
 ,0.00071662,0.00023123,0.00041390,0.00063417,0.00048195,0.00069376,-0.
 00347047,-0.00168305,0.00031506,0.00154004,-0.00101336,0.00144647,-0.0
 0019385,-0.00003725,0.00028616,-0.00080306,-0.00018772,0.00044255,0.01
 217261,-0.01462229,0.00994862,-0.00015552,0.00024646,-0.00042361,0.000
 65675,0.00104689,0.00133991,0.00024636,0.00010075,0.00002690,0.0084813
 2,0.01347798,0.00626189,-0.00009399,-0.00033705,0.00005311,-0.35480447
 ,-0.21172970,-0.16132416,-0.00004773,-0.00005017,-0.00001655,-0.000011
 98,0.00018435,0.00002292,-0.00023812,-0.00032905,0.00001075,-0.0002490
 0,-0.00049471,-0.00021220,-0.00006045,0.00000109,-0.00000575,0.0000032
 2,-0.00001189,-0.00003938,0.00125117,0.00257649,0.00087668,0.00100641,
 0.00139287,0.00077387,-0.00001162,0.00003695,-0.00004559,0.34398577,-0
 .00004126,-0.00030053,-0.00031560,-0.00101887,0.00062516,0.00019186,0.
 00012388,0.00009401,-0.00002660,-0.03385591,-0.02548007,-0.01736093,-0
 .00001407,0.00011953,-0.00004111,-0.16345899,-0.15451547,-0.09074556,0
 .00067653,0.00034126,0.00024199,0.00005600,0.00020957,0.00004482,0.000
 03546,-0.00014172,0.00004178,0.00060467,-0.00040988,0.00104482,-0.0000
 7031,0.00004507,0.00002374,-0.00003531,-0.00004772,-0.00003726,0.00342
 741,-0.00553451,-0.00070776,0.00028934,0.00222115,-0.00022246,-0.00019
 984,-0.00001797,0.00007453,0.19385994,0.18285790,-0.00019798,0.0003874
 5,-0.00041644,0.00154646,0.00119872,0.00174490,-0.00007515,-0.00014078
 ,0.00018825,-0.00824059,-0.00484074,-0.00538345,0.00005871,0.00013113,
 0.00002130,-0.14597727,-0.10266348,-0.07535687,-0.00017910,-0.00006824
 ,-0.00010051,-0.00000901,0.00007784,-0.00002661,0.00026877,0.00032607,
 -0.00014224,-0.00082037,-0.00018313,0.00016606,0.00003780,0.00000676,-
 0.00007776,0.00003303,-0.00006644,-0.00007089,0.00162832,-0.00247303,-
 0.00008722,-0.00077237,0.00054397,-0.00004206,-0.00007700,-0.00003164,
 -0.00022786,0.15272194,0.10779658,0.07982848,0.02008366,0.01286499,0.0
 0895280,-0.00374305,-0.00094480,-0.00123118,-0.00123491,-0.00247528,-0
 .00495680,-0.00132891,0.00132993,-0.00103969,-0.00119829,0.00088212,0.
 00135245,0.00092530,-0.00141890,0.00050891,-0.05472770,0.01360227,-0.0
 0597353,-0.00375073,-0.00182212,-0.00081509,-0.00044179,-0.00055873,-0
 .00020199,0.00071529,-0.00160743,0.00009462,0.00001914,0.00008478,-0.0
 0011335,-0.00032006,-0.00016260,0.00031342,-0.00131911,-0.00148865,0.0
 0095593,0.00006402,-0.00001359,-0.00007798,0.00002328,-0.00036356,0.00
 026603,-0.00001371,0.00042999,-0.00012971,0.28592471,-0.02562836,-0.01
 480092,-0.01271599,0.00644971,0.00228370,0.00175818,0.00135410,0.00261
 279,0.00482237,0.00048696,-0.00102198,0.00214588,0.00143387,-0.0009367
 9,-0.00118927,-0.00082147,0.00110259,-0.00045592,0.04861709,0.01463651
 ,0.01979027,0.00354731,0.00182287,0.00074728,-0.00119470,0.00011384,0.
 00055396,-0.00181639,0.00225522,-0.00006556,0.00008692,-0.00010636,0.0
 0015138,0.00041364,0.00019543,-0.00033591,-0.00131130,-0.00067624,-0.0
 0058001,-0.00045121,-0.00035893,-0.00004143,-0.00027006,0.00047763,-0.
 00030407,0.00007008,-0.00034127,0.00007913,-0.05598427,0.29766320,-0.0
 1427554,-0.00835973,-0.00789354,0.00426696,0.00141457,0.00116752,0.000
 76277,0.00167282,0.00267642,0.00057295,-0.00062850,-0.00015540,0.00103
 218,-0.00061058,-0.00058235,-0.00059509,0.00060025,-0.00004656,0.02309
 921,0.01305851,0.01176420,0.00205466,0.00106401,0.00046187,-0.00119301
 ,0.00026744,0.00035761,-0.00139788,0.00150544,0.00001389,-0.00000416,0
 .00002033,0.00000633,0.00010186,-0.00000018,-0.00007815,0.00112567,0.0
 0098581,-0.00072782,-0.00000039,-0.00014961,0.00027306,-0.00018458,0.0
 0034389,-0.00014432,0.00005029,-0.00016333,0.00002000,-0.23308290,-0.1
 4024200,0.39378424,-0.13205339,-0.06384931,-0.05980030,0.01437962,0.00
 767300,0.00610726,0.01168348,0.00438811,0.00713832,0.00199526,-0.00222
 835,0.00367618,-0.00084420,-0.00241236,-0.00198932,-0.00146767,0.00174
 962,-0.00095071,0.09991317,0.02048194,0.03315499,0.01052799,0.00571025
 ,0.00218046,-0.00076151,-0.00025504,0.00025418,-0.00301011,0.00375568,
 -0.00072077,-0.00003111,0.00048708,0.00066117,0.00049292,0.00036304,-0
 .00021233,-0.00002992,0.00025094,-0.00145293,-0.00049371,-0.00028329,-
 0.00010279,-0.00016270,0.00152116,-0.00086666,0.00006682,-0.00069814,0
 .00014119,-0.13454226,0.08582349,0.05830107,0.15756354,-0.00965318,0.0
 0301231,-0.00229177,-0.00566398,-0.00025992,-0.00151790,0.00266342,-0.
 00210934,-0.00449228,0.00022201,0.00099411,-0.00124354,-0.00314580,0.0
 0037408,0.00108538,0.00051732,-0.00112336,0.00035895,-0.02194966,-0.03
 850966,-0.02477944,-0.00207720,-0.00076083,-0.00094357,0.00093029,-0.0
 0056839,-0.00041356,0.00177759,-0.00185281,0.00019602,-0.00087007,0.00
 023205,0.00004249,-0.00030059,-0.00021872,0.00036895,-0.00018205,-0.00
 066666,0.00075472,0.00022735,0.00025511,0.00001431,0.00020688,-0.00006
 969,0.00017381,-0.00003985,0.00037154,-0.00011214,0.13040529,-0.176163
 65,-0.06890543,-0.09501989,0.21560167,-0.04084830,-0.01567080,-0.01378
 355,0.00021641,0.00150947,0.00040897,0.00550530,0.00008003,-0.00097038
 ,-0.00062180,-0.00032218,-0.00080410,-0.00285959,-0.00080341,0.0001481
 2,0.00036894,0.00019436,0.00052497,0.01570712,-0.01310418,-0.01701434,
 0.00148632,0.00018003,0.00094976,0.00042383,-0.00028424,-0.00022140,0.
 00040187,-0.00029513,-0.00006586,-0.00051579,0.00019526,0.00015663,-0.
 00066391,-0.00005365,0.00034142,0.00024330,-0.00044874,0.00054326,0.00
 007215,0.00011884,0.00007019,0.00012249,0.00053473,-0.00010898,-0.0000
 5153,0.00012616,-0.00006013,0.05481267,-0.03813234,-0.06548735,-0.0562
 9781,0.10610430,0.10061899,-0.00036501,-0.00078451,0.00090003,-0.00038
 390,0.00001317,0.00012611,-0.00047541,-0.00000267,0.00013984,0.0001563
 7,-0.00041280,0.00028656,0.00018350,0.00009592,-0.00005997,-0.00007240
 ,0.00042621,-0.00010987,-0.00120072,0.00039175,0.00375017,0.00013106,0
 .00026560,-0.00009730,-0.00006116,-0.00050977,-0.00030705,0.00018552,0
 .00002650,-0.00011971,0.00005858,-0.00003082,0.00001940,0.00009130,0.0
 0002971,-0.00009134,-0.00020446,-0.00008545,0.00003797,-0.00000162,0.0
 0009226,-0.00011269,0.00008330,-0.00003516,-0.00003183,-0.00001126,-0.
 00011051,0.00004233,-0.10513489,-0.06080541,0.15936593,-0.02322621,0.0
 0195212,0.02249833,0.13024741,-0.00081902,-0.00064789,0.00002396,-0.00
 001027,0.00013274,0.00055027,-0.00011211,0.00002726,0.00030713,0.00029
 275,0.00014307,0.00080213,0.00008719,-0.00006015,-0.00005136,-0.000018
 44,-0.00004436,-0.00029456,0.00129632,-0.00024469,-0.00007571,0.000369
 15,0.00022024,0.00013945,-0.00018142,-0.00020537,-0.00023412,0.0000435
 7,0.00011416,-0.00017502,0.00001941,0.00000039,-0.00004454,-0.00001193
 ,-0.00002100,-0.00001594,-0.00009285,0.00003369,-0.00033563,-0.0001527
 6,-0.00006978,-0.00019614,0.00002537,0.00004711,-0.00004966,-0.0000014
 4,-0.00009603,0.00003197,-0.09275943,-0.12875764,0.19812630,0.03254207
 ,0.00146215,-0.03992852,0.05948385,0.12796609,0.00317021,0.00162160,0.
 00283108,-0.00115257,-0.00016506,-0.00024306,-0.00041493,-0.00053149,-
 0.00090461,0.00002928,0.00019740,0.00003266,-0.00032189,0.00025537,0.0
 0020272,0.00011076,-0.00022315,-0.00007943,-0.00634196,-0.00153307,-0.
 00109919,-0.00043709,-0.00004776,-0.00014633,0.00019312,-0.00021159,-0
 .00001962,0.00030028,-0.00036575,-0.00003399,0.00001134,0.00000428,-0.
 00001796,-0.00000066,-0.00002924,-0.00002271,-0.00006351,0.00004687,0.
 00001612,-0.00001234,0.00003311,-0.00009458,0.00004215,-0.00012058,0.0
 0003283,-0.00001948,0.00003433,0.00002303,0.18036540,0.16401403,-0.335
 40964,0.01077882,-0.00439928,-0.00524623,-0.18623692,-0.15858001,0.340
 17891\\-0.00000295,-0.00001239,-0.00000470,-0.00000016,-0.00000663,0.0
 0000471,0.00000091,0.00000286,-0.00001146,0.00000484,0.00000514,0.0000
 1301,-0.00000511,-0.00000637,-0.00000775,0.00000633,0.00000425,0.00002
 425,-0.00000542,0.00000788,-0.00001879,-0.00000259,-0.00001365,-0.0000
 1407,0.00000015,-0.00001150,0.00000611,0.00000371,-0.00001117,0.000010
 58,-0.00000571,0.00000378,-0.00002143,-0.00000132,0.00001214,-0.000006
 98,0.00000137,0.00000990,0.00000823,0.00000284,0.00001264,0.00001340,0
 .00000044,-0.00000526,0.00000665,0.00000429,-0.00000251,0.00003015,0.0
 0000126,0.00000905,-0.00000213,-0.00000152,0.00000267,-0.00001634,-0.0
 0000134,-0.00000083,-0.00001344\\\@


 A successful marriage requires falling in love
 many times, always with the same person.
                           -- Mignon McLaughlin
 Job cpu time:  0 days  9 hours 29 minutes 45.7 seconds.
 File lengths (MBytes):  RWF=   2624 Int=      0 D2E=      0 Chk=     32 Scr=     32
 Normal termination of Gaussian 09 at Sat Aug 12 05:27:35 2017.
