 Entering Gaussian System, Link 0=/shared/apps/gaussian/G09_LINUX_LINDA/g09/g09
 Input=/gss_gpfs_scratch/harms.n/QMscratch/[O]O+[O]OC=O_OO+[O]O[C]=O.gjf
 Output=/gss_gpfs_scratch/harms.n/QMscratch/[O]O+[O]OC=O_OO+[O]O[C]=O.log
 Initial command:
 /shared/apps/gaussian/G09_LINUX_LINDA/g09/l1.exe /gss_gpfs_scratch/harms.n/comparerTST/Gau-45548.inp -scrdir=/gss_gpfs_scratch/harms.n/comparerTST/
 Entering Link 1 = /shared/apps/gaussian/G09_LINUX_LINDA/g09/l1.exe PID=     45549.
  
 Copyright (c) 1988,1990,1992,1993,1995,1998,2003,2009,2010,
            Gaussian, Inc.  All Rights Reserved.
  
 This is part of the Gaussian(R) 09 program.  It is based on
 the Gaussian(R) 03 system (copyright 2003, Gaussian, Inc.),
 the Gaussian(R) 98 system (copyright 1998, Gaussian, Inc.),
 the Gaussian(R) 94 system (copyright 1995, Gaussian, Inc.),
 the Gaussian 92(TM) system (copyright 1992, Gaussian, Inc.),
 the Gaussian 90(TM) system (copyright 1990, Gaussian, Inc.),
 the Gaussian 88(TM) system (copyright 1988, Gaussian, Inc.),
 the Gaussian 86(TM) system (copyright 1986, Carnegie Mellon
 University), and the Gaussian 82(TM) system (copyright 1983,
 Carnegie Mellon University). Gaussian is a federally registered
 trademark of Gaussian, Inc.
  
 This software contains proprietary and confidential information,
 including trade secrets, belonging to Gaussian, Inc.
  
 This software is provided under written license and may be
 used, copied, transmitted, or stored only in accord with that
 written license.
  
 The following legend is applicable only to US Government
 contracts under FAR:
  
                    RESTRICTED RIGHTS LEGEND
  
 Use, reproduction and disclosure by the US Government is
 subject to restrictions as set forth in subparagraphs (a)
 and (c) of the Commercial Computer Software - Restricted
 Rights clause in FAR 52.227-19.
  
 Gaussian, Inc.
 340 Quinnipiac St., Bldg. 40, Wallingford CT 06492
  
  
 ---------------------------------------------------------------
 Warning -- This program may not be used in any manner that
 competes with the business of Gaussian, Inc. or will provide
 assistance to any competitor of Gaussian, Inc.  The licensee
 of this program is prohibited from giving any competitor of
 Gaussian, Inc. access to this program.  By using this program,
 the user acknowledges that Gaussian, Inc. is engaged in the
 business of creating and licensing software in the field of
 computational chemistry and represents and warrants to the
 licensee that it is not a competitor of Gaussian, Inc. and that
 it will not use this program in any manner prohibited above.
 ---------------------------------------------------------------
  

 Cite this work as:
 Gaussian 09, Revision B.01,
 M. J. Frisch, G. W. Trucks, H. B. Schlegel, G. E. Scuseria, 
 M. A. Robb, J. R. Cheeseman, G. Scalmani, V. Barone, B. Mennucci, 
 G. A. Petersson, H. Nakatsuji, M. Caricato, X. Li, H. P. Hratchian, 
 A. F. Izmaylov, J. Bloino, G. Zheng, J. L. Sonnenberg, M. Hada, 
 M. Ehara, K. Toyota, R. Fukuda, J. Hasegawa, M. Ishida, T. Nakajima, 
 Y. Honda, O. Kitao, H. Nakai, T. Vreven, J. A. Montgomery, Jr., 
 J. E. Peralta, F. Ogliaro, M. Bearpark, J. J. Heyd, E. Brothers, 
 K. N. Kudin, V. N. Staroverov, T. Keith, R. Kobayashi, J. Normand, 
 K. Raghavachari, A. Rendell, J. C. Burant, S. S. Iyengar, J. Tomasi, 
 M. Cossi, N. Rega, J. M. Millam, M. Klene, J. E. Knox, J. B. Cross, 
 V. Bakken, C. Adamo, J. Jaramillo, R. Gomperts, R. E. Stratmann, 
 O. Yazyev, A. J. Austin, R. Cammi, C. Pomelli, J. W. Ochterski, 
 R. L. Martin, K. Morokuma, V. G. Zakrzewski, G. A. Voth, 
 P. Salvador, J. J. Dannenberg, S. Dapprich, A. D. Daniels, 
 O. Farkas, J. B. Foresman, J. V. Ortiz, J. Cioslowski, 
 and D. J. Fox, Gaussian, Inc., Wallingford CT, 2010.
 
 ******************************************
 Gaussian 09:  EM64L-G09RevB.01 12-Aug-2010
                 3-Aug-2017 
 ******************************************
 %nprocshared=20
 Will use up to   20 processors via shared memory.
 %mem=5GB
 %chk=/gss_gpfs_scratch/harms.n/QMscratch/[O]O+[O]OC=O_OO+[O]O[C]=O
 --------------------------------------------------------
 # m062x/6-311+g(2df,2p) opt=(ts,calcfc,noeigentest) freq
 --------------------------------------------------------
 1/5=1,10=4,11=1,14=-1,18=20,26=3,38=1/1,3;
 2/9=110,12=2,17=6,18=5,40=1/2;
 3/5=4,6=6,7=214,11=2,16=1,25=1,30=1,71=2,74=-55/1,2,3;
 4//1;
 5/5=2,38=5/2;
 8/6=4,10=90,11=11/1;
 11/6=1,8=1,9=11,15=111,16=1/1,2,10;
 10/6=1,7=6,13=1/2;
 6/7=2,8=2,9=2,10=2,28=1/1;
 7/10=1,18=20,25=1/1,2,3,16;
 1/5=1,10=4,11=1,14=-1,18=20/3(2);
 2/9=110/2;
 99//99;
 2/9=110/2;
 3/5=4,6=6,7=214,11=2,16=1,25=1,30=1,71=1,74=-55/1,2,3;
 4/5=5,16=3/1;
 5/5=2,38=5/2;
 7//1,2,3,16;
 1/5=1,11=1,14=-1,18=20/3(-5);
 2/9=110/2;
 6/7=2,8=2,9=2,10=2,19=2,28=1/1;
 99/9=1/99;
 -------------------------
 [O]O+[O]OC=O_OO+[O]O[C]=O
 -------------------------
 Symbolic Z-matrix:
 Charge =  0 Multiplicity = 3
 C                    -0.52713   0.6197   -0.02876 
 O                    -0.83506  -0.75286  -0.18121 
 O                    -1.27268   1.47449   0.22264 
 H                     0.83312   0.65956  -0.24482 
 O                    -2.10201  -1.01834   0.00489 
 O                     2.27493  -0.54048   0.44989 
 O                     1.94504   0.45768  -0.4328 
 H                     2.24803  -1.34167  -0.0898 
 

 GradGradGradGradGradGradGradGradGradGradGradGradGradGradGradGradGradGrad
 Berny optimization.
 Initialization pass.
                           ----------------------------
                           !    Initial Parameters    !
                           ! (Angstroms and Degrees)  !
 --------------------------                            --------------------------
 ! Name  Definition              Value          Derivative Info.                !
 --------------------------------------------------------------------------------
 ! R1    R(1,2)                  1.4149         calculate D2E/DX2 analytically  !
 ! R2    R(1,3)                  1.1618         calculate D2E/DX2 analytically  !
 ! R3    R(1,4)                  1.3779         calculate D2E/DX2 analytically  !
 ! R4    R(2,5)                  1.3078         calculate D2E/DX2 analytically  !
 ! R5    R(4,7)                  1.1456         calculate D2E/DX2 analytically  !
 ! R6    R(6,7)                  1.3727         calculate D2E/DX2 analytically  !
 ! R7    R(6,8)                  0.9664         calculate D2E/DX2 analytically  !
 ! A1    A(2,1,3)              126.6833         calculate D2E/DX2 analytically  !
 ! A2    A(2,1,4)              103.0629         calculate D2E/DX2 analytically  !
 ! A3    A(3,1,4)              130.2534         calculate D2E/DX2 analytically  !
 ! A4    A(1,2,5)              113.1059         calculate D2E/DX2 analytically  !
 ! A5    A(1,4,7)              168.1787         calculate D2E/DX2 analytically  !
 ! A6    A(7,6,8)              103.7129         calculate D2E/DX2 analytically  !
 ! A7    A(4,7,6)              104.8257         calculate D2E/DX2 analytically  !
 ! D1    D(3,1,2,5)             -0.6531         calculate D2E/DX2 analytically  !
 ! D2    D(4,1,2,5)            179.1354         calculate D2E/DX2 analytically  !
 ! D3    D(2,1,4,7)             -5.5537         calculate D2E/DX2 analytically  !
 ! D4    D(3,1,4,7)            174.224          calculate D2E/DX2 analytically  !
 ! D5    D(1,4,7,6)            -46.9963         calculate D2E/DX2 analytically  !
 ! D6    D(8,6,7,4)             99.1946         calculate D2E/DX2 analytically  !
 --------------------------------------------------------------------------------
 Trust Radius=3.00D-01 FncErr=1.00D-07 GrdErr=1.00D-06
 Number of steps in this run=     30 maximum allowed number of steps=    100.
 Search for a saddle point of order  1.
 GradGradGradGradGradGradGradGradGradGradGradGradGradGradGradGradGradGrad

                          Input orientation:                          
 ---------------------------------------------------------------------
 Center     Atomic      Atomic             Coordinates (Angstroms)
 Number     Number       Type             X           Y           Z
 ---------------------------------------------------------------------
      1          6           0       -0.527131    0.619699   -0.028763
      2          8           0       -0.835064   -0.752860   -0.181214
      3          8           0       -1.272684    1.474492    0.222639
      4          1           0        0.833119    0.659564   -0.244819
      5          8           0       -2.102008   -1.018339    0.004886
      6          8           0        2.274925   -0.540483    0.449889
      7          8           0        1.945036    0.457680   -0.432800
      8          1           0        2.248030   -1.341671   -0.089799
 ---------------------------------------------------------------------
                    Distance matrix (angstroms):
                    1          2          3          4          5
     1  C    0.000000
     2  O    1.414914   0.000000
     3  O    1.161776   2.305581   0.000000
     4  H    1.377879   2.186738   2.305869   0.000000
     5  O    2.272562   1.307769   2.636172   3.390086   0.000000
     6  O    3.070285   3.180476   4.086233   2.000384   4.425372
     7  O    2.510200   3.042640   3.437620   1.145624   4.329985
     8  H    3.398855   3.140147   4.519272   2.455798   4.363065
                    6          7          8
     6  O    0.000000
     7  O    1.372697   0.000000
     8  H    0.966379   1.856642   0.000000
 Stoichiometry    CH2O5(3)
 Framework group  C1[X(CH2O5)]
 Deg. of freedom    18
 Full point group                 C1      NOp   1
 Largest Abelian subgroup         C1      NOp   1
 Largest concise Abelian subgroup C1      NOp   1
                         Standard orientation:                         
 ---------------------------------------------------------------------
 Center     Atomic      Atomic             Coordinates (Angstroms)
 Number     Number       Type             X           Y           Z
 ---------------------------------------------------------------------
      1          6           0       -0.527131    0.619699   -0.028763
      2          8           0       -0.835064   -0.752860   -0.181214
      3          8           0       -1.272684    1.474492    0.222639
      4          1           0        0.833119    0.659564   -0.244819
      5          8           0       -2.102008   -1.018339    0.004886
      6          8           0        2.274925   -0.540484    0.449889
      7          8           0        1.945036    0.457680   -0.432800
      8          1           0        2.248030   -1.341671   -0.089799
 ---------------------------------------------------------------------
 Rotational constants (GHZ):      6.0960726      1.8877635      1.5069818
 Standard basis: 6-311+G(2df,2p) (5D, 7F)
 There are   222 symmetry adapted basis functions of A   symmetry.
 Integral buffers will be    131072 words long.
 Raffenetti 2 integral format.
 Two-electron integral symmetry is turned on.
   222 basis functions,   334 primitive gaussians,   252 cartesian basis functions
    25 alpha electrons       23 beta electrons
       nuclear repulsion energy       227.0864383272 Hartrees.
 NAtoms=    8 NActive=    8 NUniq=    8 SFac= 1.00D+00 NAtFMM=   50 NAOKFM=F Big=F
 One-electron integrals computed using PRISM.
 NBasis=   222 RedAO= T  NBF=   222
 NBsUse=   222 1.00D-06 NBFU=   222
 Harris functional with IExCor= 1009 diagonalized for initial guess.
 ExpMin= 4.38D-02 ExpMax= 8.59D+03 ExpMxC= 1.30D+03 IAcc=2 IRadAn=         0 AccDes= 0.00D+00
 HarFok:  IExCor= 1009 AccDes= 0.00D+00 IRadAn=         0 IDoV= 1
 ScaDFX=  1.000000  1.000000  1.000000  1.000000
 FoFCou: FMM=F IPFlag=           0 FMFlag=      100000 FMFlg1=           0
         NFxFlg=           0 DoJE=T BraDBF=F KetDBF=T FulRan=T
         Omega=  0.000000  0.000000  1.000000  0.000000  0.000000 ICntrl=     500 IOpCl=  0
         NMat0=    1 NMatS0=    1 NMatT0=    0 NMatD0=    1 NMtDS0=    0 NMtDT0=    0
         I1Cent=           4 NGrid=           0.
 Petite list used in FoFCou.
 Initial guess orbital symmetries:
 Alpha Orbitals:
       Occupied  (A) (A) (A) (A) (A) (A) (A) (A) (A) (A) (A) (A)
                 (A) (A) (A) (A) (A) (A) (A) (A) (A) (A) (A) (A)
                 (A)
       Virtual   (A) (A) (A) (A) (A) (A) (A) (A) (A) (A) (A) (A)
                 (A) (A) (A) (A) (A) (A) (A) (A) (A) (A) (A) (A)
                 (A) (A) (A) (A) (A) (A) (A) (A) (A) (A) (A) (A)
                 (A) (A) (A) (A) (A) (A) (A) (A) (A) (A) (A) (A)
                 (A) (A) (A) (A) (A) (A) (A) (A) (A) (A) (A) (A)
                 (A) (A) (A) (A) (A) (A) (A) (A) (A) (A) (A) (A)
                 (A) (A) (A) (A) (A) (A) (A) (A) (A) (A) (A) (A)
                 (A) (A) (A) (A) (A) (A) (A) (A) (A) (A) (A) (A)
                 (A) (A) (A) (A) (A) (A) (A) (A) (A) (A) (A) (A)
                 (A) (A) (A) (A) (A) (A) (A) (A) (A) (A) (A) (A)
                 (A) (A) (A) (A) (A) (A) (A) (A) (A) (A) (A) (A)
                 (A) (A) (A) (A) (A) (A) (A) (A) (A) (A) (A) (A)
                 (A) (A) (A) (A) (A) (A) (A) (A) (A) (A) (A) (A)
                 (A) (A) (A) (A) (A) (A) (A) (A) (A) (A) (A) (A)
                 (A) (A) (A) (A) (A) (A) (A) (A) (A) (A) (A) (A)
                 (A) (A) (A) (A) (A) (A) (A) (A) (A) (A) (A) (A)
                 (A) (A) (A) (A) (A)
 Beta  Orbitals:
       Occupied  (A) (A) (A) (A) (A) (A) (A) (A) (A) (A) (A) (A)
                 (A) (A) (A) (A) (A) (A) (A) (A) (A) (A) (A)
       Virtual   (A) (A) (A) (A) (A) (A) (A) (A) (A) (A) (A) (A)
                 (A) (A) (A) (A) (A) (A) (A) (A) (A) (A) (A) (A)
                 (A) (A) (A) (A) (A) (A) (A) (A) (A) (A) (A) (A)
                 (A) (A) (A) (A) (A) (A) (A) (A) (A) (A) (A) (A)
                 (A) (A) (A) (A) (A) (A) (A) (A) (A) (A) (A) (A)
                 (A) (A) (A) (A) (A) (A) (A) (A) (A) (A) (A) (A)
                 (A) (A) (A) (A) (A) (A) (A) (A) (A) (A) (A) (A)
                 (A) (A) (A) (A) (A) (A) (A) (A) (A) (A) (A) (A)
                 (A) (A) (A) (A) (A) (A) (A) (A) (A) (A) (A) (A)
                 (A) (A) (A) (A) (A) (A) (A) (A) (A) (A) (A) (A)
                 (A) (A) (A) (A) (A) (A) (A) (A) (A) (A) (A) (A)
                 (A) (A) (A) (A) (A) (A) (A) (A) (A) (A) (A) (A)
                 (A) (A) (A) (A) (A) (A) (A) (A) (A) (A) (A) (A)
                 (A) (A) (A) (A) (A) (A) (A) (A) (A) (A) (A) (A)
                 (A) (A) (A) (A) (A) (A) (A) (A) (A) (A) (A) (A)
                 (A) (A) (A) (A) (A) (A) (A) (A) (A) (A) (A) (A)
                 (A) (A) (A) (A) (A) (A) (A)
 The electronic state of the initial guess is 3-A.
 Initial guess <Sx>= 0.0000 <Sy>= 0.0000 <Sz>= 1.0000 <S**2>= 2.0000 S= 1.0000
 Requested convergence on RMS density matrix=1.00D-08 within 128 cycles.
 Requested convergence on MAX density matrix=1.00D-06.
 Requested convergence on             energy=1.00D-06.
 No special actions if energy rises.
 Restarting incremental Fock formation.
 SCF Done:  E(UM062X) =  -415.087912458     A.U. after   22 cycles
             Convg  =    0.4517D-08             -V/T =  2.0027
 <Sx>= 0.0000 <Sy>= 0.0000 <Sz>= 1.0000 <S**2>= 2.0151 S= 1.0050
 <L.S>= 0.000000000000E+00
 Annihilation of the first spin contaminant:
 S**2 before annihilation     2.0151,   after     2.0001
 Range of M.O.s used for correlation:     1   222
 NBasis=   222 NAE=    25 NBE=    23 NFC=     0 NFV=     0
 NROrb=    222 NOA=    25 NOB=    23 NVA=   197 NVB=   199

 **** Warning!!: The largest alpha MO coefficient is  0.14686939D+02


 **** Warning!!: The largest beta MO coefficient is  0.17847574D+02

 Symmetrizing basis deriv contribution to polar:
 IMax=3 JMax=2 DiffMx= 0.00D+00
 G2DrvN: will do     9 centers at a time, making    1 passes doing MaxLOS=3.
 Calling FoFCou, ICntrl=  3107 FMM=F I1Cent=   0 AccDes= 0.00D+00.
 FoFDir/FoFCou used for L=0 through L=3.
 End of G2Drv Frequency-dependent properties file   721 does not exist.
 End of G2Drv Frequency-dependent properties file   722 does not exist.
          IDoAtm=11111111
          Differentiating once with respect to nuclear coordinates.
          There are    27 degrees of freedom in the 1st order CPHF.  IDoFFX=5.
     21 vectors produced by pass  0 Test12= 3.52D-10 3.70D-07 XBig12= 3.48D-01 3.38D-01.
 AX will form    21 AO Fock derivatives at one time.
     21 vectors produced by pass  1 Test12= 3.52D-10 3.70D-07 XBig12= 7.83D-02 9.35D-02.
     21 vectors produced by pass  2 Test12= 3.52D-10 3.70D-07 XBig12= 8.96D-03 3.75D-02.
     21 vectors produced by pass  3 Test12= 3.52D-10 3.70D-07 XBig12= 2.81D-04 4.63D-03.
     21 vectors produced by pass  4 Test12= 3.52D-10 3.70D-07 XBig12= 7.10D-06 6.89D-04.
     21 vectors produced by pass  5 Test12= 3.52D-10 3.70D-07 XBig12= 1.62D-07 5.43D-05.
     12 vectors produced by pass  6 Test12= 3.52D-10 3.70D-07 XBig12= 2.75D-09 9.34D-06.
      3 vectors produced by pass  7 Test12= 3.52D-10 3.70D-07 XBig12= 4.18D-11 9.53D-07.
 Inverted reduced A of dimension   141 with in-core refinement.
 End of Minotr Frequency-dependent properties file   721 does not exist.
 End of Minotr Frequency-dependent properties file   722 does not exist.

 **********************************************************************

            Population analysis using the SCF density.

 **********************************************************************

 Orbital symmetries:
 Alpha Orbitals:
       Occupied  (A) (A) (A) (A) (A) (A) (A) (A) (A) (A) (A) (A)
                 (A) (A) (A) (A) (A) (A) (A) (A) (A) (A) (A) (A)
                 (A)
       Virtual   (A) (A) (A) (A) (A) (A) (A) (A) (A) (A) (A) (A)
                 (A) (A) (A) (A) (A) (A) (A) (A) (A) (A) (A) (A)
                 (A) (A) (A) (A) (A) (A) (A) (A) (A) (A) (A) (A)
                 (A) (A) (A) (A) (A) (A) (A) (A) (A) (A) (A) (A)
                 (A) (A) (A) (A) (A) (A) (A) (A) (A) (A) (A) (A)
                 (A) (A) (A) (A) (A) (A) (A) (A) (A) (A) (A) (A)
                 (A) (A) (A) (A) (A) (A) (A) (A) (A) (A) (A) (A)
                 (A) (A) (A) (A) (A) (A) (A) (A) (A) (A) (A) (A)
                 (A) (A) (A) (A) (A) (A) (A) (A) (A) (A) (A) (A)
                 (A) (A) (A) (A) (A) (A) (A) (A) (A) (A) (A) (A)
                 (A) (A) (A) (A) (A) (A) (A) (A) (A) (A) (A) (A)
                 (A) (A) (A) (A) (A) (A) (A) (A) (A) (A) (A) (A)
                 (A) (A) (A) (A) (A) (A) (A) (A) (A) (A) (A) (A)
                 (A) (A) (A) (A) (A) (A) (A) (A) (A) (A) (A) (A)
                 (A) (A) (A) (A) (A) (A) (A) (A) (A) (A) (A) (A)
                 (A) (A) (A) (A) (A) (A) (A) (A) (A) (A) (A) (A)
                 (A) (A) (A) (A) (A)
 Beta  Orbitals:
       Occupied  (A) (A) (A) (A) (A) (A) (A) (A) (A) (A) (A) (A)
                 (A) (A) (A) (A) (A) (A) (A) (A) (A) (A) (A)
       Virtual   (A) (A) (A) (A) (A) (A) (A) (A) (A) (A) (A) (A)
                 (A) (A) (A) (A) (A) (A) (A) (A) (A) (A) (A) (A)
                 (A) (A) (A) (A) (A) (A) (A) (A) (A) (A) (A) (A)
                 (A) (A) (A) (A) (A) (A) (A) (A) (A) (A) (A) (A)
                 (A) (A) (A) (A) (A) (A) (A) (A) (A) (A) (A) (A)
                 (A) (A) (A) (A) (A) (A) (A) (A) (A) (A) (A) (A)
                 (A) (A) (A) (A) (A) (A) (A) (A) (A) (A) (A) (A)
                 (A) (A) (A) (A) (A) (A) (A) (A) (A) (A) (A) (A)
                 (A) (A) (A) (A) (A) (A) (A) (A) (A) (A) (A) (A)
                 (A) (A) (A) (A) (A) (A) (A) (A) (A) (A) (A) (A)
                 (A) (A) (A) (A) (A) (A) (A) (A) (A) (A) (A) (A)
                 (A) (A) (A) (A) (A) (A) (A) (A) (A) (A) (A) (A)
                 (A) (A) (A) (A) (A) (A) (A) (A) (A) (A) (A) (A)
                 (A) (A) (A) (A) (A) (A) (A) (A) (A) (A) (A) (A)
                 (A) (A) (A) (A) (A) (A) (A) (A) (A) (A) (A) (A)
                 (A) (A) (A) (A) (A) (A) (A) (A) (A) (A) (A) (A)
                 (A) (A) (A) (A) (A) (A) (A)
 The electronic state is 3-A.
 Alpha  occ. eigenvalues --  -19.80514 -19.76024 -19.72872 -19.72794 -19.71437
 Alpha  occ. eigenvalues --  -10.72710  -1.40221  -1.31795  -1.27401  -1.05989
 Alpha  occ. eigenvalues --   -1.02728  -0.75523  -0.69562  -0.66312  -0.64612
 Alpha  occ. eigenvalues --   -0.64487  -0.61568  -0.56517  -0.54652  -0.54170
 Alpha  occ. eigenvalues --   -0.45449  -0.43082  -0.42507  -0.41440  -0.35654
 Alpha virt. eigenvalues --   -0.01390   0.01694   0.02776   0.04799   0.05403
 Alpha virt. eigenvalues --    0.08061   0.10425   0.11841   0.15123   0.16268
 Alpha virt. eigenvalues --    0.17035   0.17821   0.19067   0.20230   0.20714
 Alpha virt. eigenvalues --    0.21168   0.21877   0.22450   0.24864   0.26398
 Alpha virt. eigenvalues --    0.27276   0.27424   0.28772   0.29357   0.30271
 Alpha virt. eigenvalues --    0.32316   0.33947   0.34302   0.39004   0.40349
 Alpha virt. eigenvalues --    0.46059   0.50595   0.55177   0.56667   0.63823
 Alpha virt. eigenvalues --    0.66535   0.70466   0.75321   0.77265   0.78713
 Alpha virt. eigenvalues --    0.80640   0.85385   0.88304   0.93598   0.94254
 Alpha virt. eigenvalues --    0.98138   1.00656   1.02132   1.03554   1.04694
 Alpha virt. eigenvalues --    1.05677   1.07340   1.09344   1.10952   1.12935
 Alpha virt. eigenvalues --    1.13381   1.14777   1.17470   1.18359   1.30880
 Alpha virt. eigenvalues --    1.33747   1.34876   1.39322   1.42303   1.42768
 Alpha virt. eigenvalues --    1.50023   1.52356   1.53363   1.53952   1.55789
 Alpha virt. eigenvalues --    1.58883   1.59889   1.62728   1.68550   1.70716
 Alpha virt. eigenvalues --    1.77509   1.88324   1.93359   1.97095   1.98620
 Alpha virt. eigenvalues --    1.98983   2.11061   2.16995   2.17813   2.23113
 Alpha virt. eigenvalues --    2.25056   2.26691   2.34945   2.42085   2.50611
 Alpha virt. eigenvalues --    2.51999   2.57287   2.61696   2.64875   2.74092
 Alpha virt. eigenvalues --    2.77795   2.95604   2.98193   3.01131   3.11038
 Alpha virt. eigenvalues --    3.17562   3.26092   3.32028   3.35970   3.46221
 Alpha virt. eigenvalues --    3.55018   3.56061   3.58789   3.63990   3.67222
 Alpha virt. eigenvalues --    3.72811   3.78910   3.98016   4.09513   4.11024
 Alpha virt. eigenvalues --    4.25625   4.43797   4.56131   4.57831   4.60862
 Alpha virt. eigenvalues --    4.62029   4.67896   4.71383   4.77051   4.86160
 Alpha virt. eigenvalues --    4.90698   4.94857   4.95412   4.96430   4.99301
 Alpha virt. eigenvalues --    5.00399   5.05123   5.05666   5.07301   5.08152
 Alpha virt. eigenvalues --    5.09611   5.10500   5.12573   5.14530   5.15918
 Alpha virt. eigenvalues --    5.16862   5.20472   5.24517   5.29259   5.30669
 Alpha virt. eigenvalues --    5.31620   5.37154   5.38996   5.43312   5.48353
 Alpha virt. eigenvalues --    5.53496   5.60084   5.65482   5.80491   6.09619
 Alpha virt. eigenvalues --    6.11776   6.24891   6.31680   6.35976   6.42170
 Alpha virt. eigenvalues --    6.47197   6.61884   6.69057   6.71617   6.75666
 Alpha virt. eigenvalues --    6.77440   6.80408   6.81211   6.83706   6.86029
 Alpha virt. eigenvalues --    6.87836   6.92425   6.97042   7.00661   7.01267
 Alpha virt. eigenvalues --    7.06245   7.11165   7.11565   7.22602   7.22998
 Alpha virt. eigenvalues --    7.23927   7.25977   7.36705   7.44767   7.49607
 Alpha virt. eigenvalues --    7.58093   7.64777   7.77926   7.84523   7.86267
 Alpha virt. eigenvalues --    7.91395  24.59164  49.90376  49.94065  49.98233
 Alpha virt. eigenvalues --   49.99511  50.23864
  Beta  occ. eigenvalues --  -19.79779 -19.74420 -19.72553 -19.71988 -19.70995
  Beta  occ. eigenvalues --  -10.72162  -1.36745  -1.30006  -1.25756  -1.01051
  Beta  occ. eigenvalues --   -0.99634  -0.72144  -0.66821  -0.62924  -0.62539
  Beta  occ. eigenvalues --   -0.59628  -0.58399  -0.54142  -0.50527  -0.50084
  Beta  occ. eigenvalues --   -0.41338  -0.40255  -0.37178
  Beta virt. eigenvalues --   -0.14519  -0.12258   0.00848   0.01665   0.03001
  Beta virt. eigenvalues --    0.05091   0.05654   0.08189   0.11126   0.12235
  Beta virt. eigenvalues --    0.15219   0.16187   0.17284   0.18221   0.19577
  Beta virt. eigenvalues --    0.20478   0.21008   0.21709   0.21987   0.23356
  Beta virt. eigenvalues --    0.25354   0.26375   0.27502   0.28011   0.28974
  Beta virt. eigenvalues --    0.29498   0.30272   0.31765   0.34195   0.35153
  Beta virt. eigenvalues --    0.39870   0.40899   0.46284   0.50831   0.55271
  Beta virt. eigenvalues --    0.56738   0.63920   0.67162   0.71545   0.75361
  Beta virt. eigenvalues --    0.77408   0.79103   0.80966   0.85469   0.88497
  Beta virt. eigenvalues --    0.94485   0.95195   0.98305   1.01604   1.03925
  Beta virt. eigenvalues --    1.04279   1.05827   1.06258   1.09025   1.10359
  Beta virt. eigenvalues --    1.11448   1.13619   1.14095   1.15329   1.17950
  Beta virt. eigenvalues --    1.18987   1.32158   1.34853   1.36092   1.40038
  Beta virt. eigenvalues --    1.43867   1.44556   1.50788   1.53198   1.53847
  Beta virt. eigenvalues --    1.54697   1.56576   1.59639   1.60842   1.65103
  Beta virt. eigenvalues --    1.69610   1.71274   1.77902   1.89042   1.94020
  Beta virt. eigenvalues --    1.97848   1.99406   1.99739   2.12133   2.18242
  Beta virt. eigenvalues --    2.18368   2.24212   2.25141   2.27460   2.35376
  Beta virt. eigenvalues --    2.42856   2.50892   2.51547   2.57459   2.61955
  Beta virt. eigenvalues --    2.64325   2.73071   2.77730   2.96564   2.99729
  Beta virt. eigenvalues --    3.02532   3.12934   3.20261   3.27899   3.34349
  Beta virt. eigenvalues --    3.38380   3.47692   3.56165   3.57074   3.60182
  Beta virt. eigenvalues --    3.64130   3.68432   3.72947   3.78939   3.98295
  Beta virt. eigenvalues --    4.09771   4.12366   4.24554   4.47025   4.56379
  Beta virt. eigenvalues --    4.58862   4.60809   4.62576   4.69402   4.71754
  Beta virt. eigenvalues --    4.77209   4.86392   4.91757   4.97626   4.98493
  Beta virt. eigenvalues --    4.99899   5.00902   5.03628   5.06250   5.07695
  Beta virt. eigenvalues --    5.08157   5.09409   5.10233   5.11577   5.14540
  Beta virt. eigenvalues --    5.14988   5.16402   5.17867   5.21318   5.25600
  Beta virt. eigenvalues --    5.29640   5.31066   5.32598   5.37639   5.40379
  Beta virt. eigenvalues --    5.43788   5.48741   5.54110   5.60196   5.66254
  Beta virt. eigenvalues --    5.81354   6.10278   6.12105   6.27372   6.32251
  Beta virt. eigenvalues --    6.36589   6.43890   6.47329   6.70539   6.76275
  Beta virt. eigenvalues --    6.76474   6.79667   6.80916   6.82442   6.83255
  Beta virt. eigenvalues --    6.84489   6.87107   6.89625   6.95118   6.99894
  Beta virt. eigenvalues --    7.02490   7.04262   7.06794   7.12819   7.14001
  Beta virt. eigenvalues --    7.23434   7.24036   7.26257   7.29805   7.38164
  Beta virt. eigenvalues --    7.44704   7.51233   7.58724   7.64668   7.79898
  Beta virt. eigenvalues --    7.84794   7.86364   7.93596  24.59720  49.89981
  Beta virt. eigenvalues --   49.93691  49.97704  49.99092  50.23434
          Condensed to atoms (all electrons):
              1          2          3          4          5          6
     1  C    5.165527   0.089631   0.421892   0.253492  -0.046584   0.031180
     2  O    0.089631   7.778959  -0.055506  -0.028432   0.195393   0.009869
     3  O    0.421892  -0.055506   7.853970   0.004714   0.007287  -0.000699
     4  H    0.253492  -0.028432   0.004714   0.355142   0.000837  -0.042892
     5  O   -0.046584   0.195393   0.007287   0.000837   7.906460   0.001763
     6  O    0.031180   0.009869  -0.000699  -0.042892   0.001763   7.780210
     7  O   -0.038169   0.017933  -0.003765   0.109502   0.001791   0.130660
     8  H   -0.008236   0.002154  -0.000179   0.004796  -0.001220   0.248095
              7          8
     1  C   -0.038169  -0.008236
     2  O    0.017933   0.002154
     3  O   -0.003765  -0.000179
     4  H    0.109502   0.004796
     5  O    0.001791  -0.001220
     6  O    0.130660   0.248095
     7  O    8.097257  -0.043364
     8  H   -0.043364   0.538594
 Mulliken atomic charges:
              1
     1  C    0.131267
     2  O   -0.010002
     3  O   -0.227714
     4  H    0.342842
     5  O   -0.065725
     6  O   -0.158185
     7  O   -0.271844
     8  H    0.259361
 Sum of Mulliken atomic charges =   0.00000
 Mulliken charges with hydrogens summed into heavy atoms:
              1
     1  C    0.131267
     2  O   -0.010002
     3  O   -0.227714
     5  O   -0.065725
     6  O    0.101176
     7  O    0.070998
 Sum of Mulliken charges with hydrogens summed into heavy atoms =   0.00000
          Atomic-Atomic Spin Densities.
              1          2          3          4          5          6
     1  C    0.557710  -0.082373  -0.084357   0.004178   0.021010   0.039980
     2  O   -0.082373   0.440823  -0.006005   0.004376  -0.165042  -0.009471
     3  O   -0.084357  -0.006005   0.251414   0.000258   0.013056  -0.001435
     4  H    0.004178   0.004376   0.000258  -0.095154  -0.000183   0.006508
     5  O    0.021010  -0.165042   0.013056  -0.000183   0.976936   0.002340
     6  O    0.039980  -0.009471  -0.001435   0.006508   0.002340   0.132716
     7  O   -0.085362   0.016078   0.004652   0.025173  -0.004817  -0.065845
     8  H   -0.001525  -0.000096   0.000037   0.001206   0.000030  -0.004625
              7          8
     1  C   -0.085362  -0.001525
     2  O    0.016078  -0.000096
     3  O    0.004652   0.000037
     4  H    0.025173   0.001206
     5  O   -0.004817   0.000030
     6  O   -0.065845  -0.004625
     7  O    0.476747   0.002814
     8  H    0.002814  -0.002311
 Mulliken atomic spin densities:
              1
     1  C    0.369261
     2  O    0.198288
     3  O    0.177620
     4  H   -0.053637
     5  O    0.843331
     6  O    0.100167
     7  O    0.369440
     8  H   -0.004470
 Sum of Mulliken atomic spin densities =   2.00000
 APT atomic charges:
              1
     1  C   -0.052369
     2  O   -0.130741
     3  O    0.004433
     4  H    0.229576
     5  O    0.003561
     6  O   -0.411356
     7  O   -0.121605
     8  H    0.478500
 Sum of APT charges=   0.00000
 APT Atomic charges with hydrogens summed into heavy atoms:
              1
     1  C   -0.052369
     2  O   -0.130741
     3  O    0.004433
     4  H    0.000000
     5  O    0.003561
     6  O    0.067144
     7  O    0.107972
     8  H    0.000000
 Sum of APT charges=   0.00000
 Electronic spatial extent (au):  <R**2>=            704.7068
 Charge=              0.0000 electrons
 Dipole moment (field-independent basis, Debye):
    X=              0.6829    Y=             -1.5523    Z=             -0.7833  Tot=              1.8680
 Quadrupole moment (field-independent basis, Debye-Ang):
   XX=            -38.2044   YY=            -33.1455   ZZ=            -33.0999
   XY=             -3.4842   XZ=             -0.7354   YZ=              0.1190
 Traceless Quadrupole moment (field-independent basis, Debye-Ang):
   XX=             -3.3878   YY=              1.6711   ZZ=              1.7167
   XY=             -3.4842   XZ=             -0.7354   YZ=              0.1190
 Octapole moment (field-independent basis, Debye-Ang**2):
  XXX=              1.2191  YYY=            -10.2742  ZZZ=              0.1737  XYY=             11.2989
  XXY=            -11.5854  XXZ=             -4.2146  XZZ=             -3.0630  YZZ=             -0.7395
  YYZ=             -1.2195  XYZ=              3.0021
 Hexadecapole moment (field-independent basis, Debye-Ang**3):
 XXXX=           -585.1006 YYYY=           -183.1143 ZZZZ=            -42.4785 XXXY=            -21.0861
 XXXZ=             -7.2066 YYYX=            -10.4972 YYYZ=             -1.0113 ZZZX=              0.0944
 ZZZY=              0.4792 XXYY=           -116.0909 XXZZ=           -102.8194 YYZZ=            -36.2340
 XXYZ=              3.9038 YYXZ=             -1.0478 ZZXY=              0.7595
 N-N= 2.270864383272D+02 E-N=-2.131889013699D+03  KE= 6.177604049391D+02
  Exact polarizability:   0.000   0.000   0.000   0.000   0.000   0.000
 Approx polarizability:  84.745  -8.173  50.685  -3.260  -0.649  32.367
                          Isotropic Fermi Contact Couplings
        Atom                 a.u.       MegaHertz       Gauss      10(-4) cm-1
     1  C(13)              0.37275     209.52064      74.76217      69.88856
     2  O(17)              0.20076     -60.85057     -21.71300     -20.29756
     3  O(17)              0.05971     -18.09862      -6.45804      -6.03705
     4  H(1)              -0.03822     -85.41651     -30.47873     -28.49188
     5  O(17)              0.10449     -31.67058     -11.30085     -10.56417
     6  O(17)              0.01652      -5.00802      -1.78698      -1.67049
     7  O(17)              0.04387     -13.29606      -4.74436      -4.43509
     8  H(1)              -0.00185      -4.12378      -1.47147      -1.37555
 --------------------------------------------------------
       Center         ----  Spin Dipole Couplings  ----
                      3XX-RR        3YY-RR        3ZZ-RR
 --------------------------------------------------------
     1   Atom        0.378223     -0.206652     -0.171572
     2   Atom       -0.733071     -0.126282      0.859353
     3   Atom        0.594123     -0.280081     -0.314042
     4   Atom        0.214713     -0.105423     -0.109289
     5   Atom       -1.532725     -1.445763      2.978488
     6   Atom        0.516173     -0.253892     -0.262281
     7   Atom        1.740639     -0.943230     -0.797408
     8   Atom       -0.003096      0.017767     -0.014671
 --------------------------------------------------------
                        XY            XZ            YZ
 --------------------------------------------------------
     1   Atom       -0.004702     -0.092389     -0.002158
     2   Atom        0.009576      0.308977     -0.161244
     3   Atom        0.411553     -0.078329     -0.053230
     4   Atom       -0.033297     -0.052345      0.003413
     5   Atom        0.038920      0.879526     -0.799131
     6   Atom        0.017413     -0.101576      0.035695
     7   Atom        0.261178     -0.648853     -0.061127
     8   Atom       -0.004920      0.000372      0.010826
 --------------------------------------------------------


 ---------------------------------------------------------------------------------
              Anisotropic Spin Dipole Couplings in Principal Axis System
 ---------------------------------------------------------------------------------

       Atom             a.u.   MegaHertz   Gauss  10(-4) cm-1        Axes

              Baa    -0.2071   -27.790    -9.916    -9.270  0.0296  0.9901  0.1372
     1 C(13)  Bbb    -0.1863   -24.996    -8.919    -8.338  0.1588 -0.1401  0.9773
              Bcc     0.3934    52.786    18.835    17.607  0.9869 -0.0072 -0.1614
 
              Baa    -0.7933    57.400    20.482    19.147  0.9801 -0.0598 -0.1891
     2 O(17)  Bbb    -0.1470    10.636     3.795     3.548  0.0857  0.9875  0.1319
              Bcc     0.9403   -68.036   -24.277   -22.694  0.1788 -0.1455  0.9731
 
              Baa    -0.4467    32.324    11.534    10.782 -0.3523  0.9218  0.1618
     3 O(17)  Bbb    -0.3186    23.052     8.226     7.689  0.1384 -0.1197  0.9831
              Bcc     0.7653   -55.377   -19.760   -18.472  0.9256  0.3687 -0.0854
 
              Baa    -0.1179   -62.902   -22.445   -20.982  0.1714  0.1932  0.9661
     4 H(1)   Bbb    -0.1084   -57.855   -20.644   -19.298  0.0670  0.9760 -0.2071
              Bcc     0.2263   120.757    43.089    40.280  0.9829 -0.1002 -0.1543
 
              Baa    -1.8299   132.411    47.248    44.168  0.7819 -0.5758 -0.2387
     5 O(17)  Bbb    -1.4425   104.380    37.245    34.817  0.5979  0.8012  0.0259
              Bcc     3.2724  -236.791   -84.493   -78.985  0.1764 -0.1630  0.9707
 
              Baa    -0.3038    21.982     7.844     7.332  0.1106 -0.6035  0.7897
     6 O(17)  Bbb    -0.2256    16.326     5.826     5.446  0.0635  0.7972  0.6004
              Bcc     0.5294   -38.308   -13.669   -12.778  0.9918  0.0163 -0.1265
 
              Baa    -0.9685    70.083    25.007    23.377 -0.1168  0.9891 -0.0896
     7 O(17)  Bbb    -0.9535    68.992    24.618    23.013  0.2222  0.1140  0.9683
              Bcc     1.9220  -139.075   -49.625   -46.390  0.9680  0.0932 -0.2331
 
              Baa    -0.0182    -9.695    -3.459    -3.234 -0.1217 -0.3015  0.9456
     8 H(1)   Bbb    -0.0037    -1.988    -0.710    -0.663  0.9758  0.1379  0.1696
              Bcc     0.0219    11.683     4.169     3.897 -0.1816  0.9434  0.2775
 

 ---------------------------------------------------------------------------------

 Calling FoFJK, ICntrl=    100147 FMM=F ISym2X=0 I1Cent= 0 IOpClX= 1 NMat=1 NMatS=1 NMatT=0.
 ***** Axes restored to original set *****
 -------------------------------------------------------------------
 Center     Atomic                   Forces (Hartrees/Bohr)
 Number     Number              X              Y              Z
 -------------------------------------------------------------------
      1        6           0.000001802    0.000000853   -0.000014530
      2        8           0.000000072   -0.000002904    0.000029952
      3        8           0.000003830    0.000009507   -0.000047542
      4        1           0.000006343   -0.000006301   -0.000044097
      5        8          -0.000001440    0.000000374    0.000046533
      6        8           0.000004076    0.000016843    0.000011651
      7        8          -0.000010995   -0.000014657   -0.000016661
      8        1          -0.000003687   -0.000003715    0.000034693
 -------------------------------------------------------------------
 Cartesian Forces:  Max     0.000047542 RMS     0.000020370

 GradGradGradGradGradGradGradGradGradGradGradGradGradGradGradGradGradGrad
 Berny optimization.
 Internal  Forces:  Max     0.000011502 RMS     0.000003972
 Search for a saddle point.
 Step number   1 out of a maximum of   30
 All quantities printed in internal units (Hartrees-Bohrs-Radians)
 Swaping is turned off.
 Second derivative matrix not updated -- analytic derivatives used.
 The second derivative matrix:
                          R1        R2        R3        R4        R5
           R1           0.19950
           R2           0.09823   1.06247
           R3           0.00502   0.02070   0.05327
           R4           0.08775  -0.01109   0.00036   0.43002
           R5          -0.00124  -0.01484   0.13061  -0.00054   0.06933
           R6           0.01061   0.01981  -0.02851   0.00664   0.06556
           R7          -0.00131  -0.00242   0.00298  -0.00076  -0.00539
           A1           0.04530   0.02935  -0.01320  -0.02693   0.00996
           A2          -0.00819  -0.02599   0.00921   0.01574  -0.00490
           A3          -0.03711  -0.00335   0.00399   0.01119  -0.00505
           A4           0.05275  -0.01901   0.00614   0.05150  -0.00563
           A5          -0.00314   0.00420   0.00487  -0.00037   0.00299
           A6           0.00026  -0.00055   0.00035   0.00044   0.00038
           A7          -0.00051  -0.00739   0.00577  -0.00102  -0.01355
           D1           0.00116  -0.00090  -0.00021  -0.00093  -0.00060
           D2          -0.00020   0.00069  -0.00009  -0.00061   0.00029
           D3           0.00137  -0.00093  -0.00003  -0.00075  -0.00106
           D4           0.00020   0.00084   0.00004  -0.00053  -0.00008
           D5           0.00164   0.00022  -0.00035  -0.00097  -0.00075
           D6           0.00117  -0.00195  -0.00184   0.00121   0.00254
                          R6        R7        A1        A2        A3
           R6           0.36934
           R7           0.00760   0.52081
           A1          -0.01543   0.00210   0.14912
           A2           0.00560  -0.00062  -0.08091   0.07895
           A3           0.00983  -0.00148  -0.06821   0.00197   0.06625
           A4           0.01188  -0.00098  -0.00044   0.00661  -0.00617
           A5          -0.00053   0.00011  -0.00252  -0.00206   0.00459
           A6           0.07755  -0.00437   0.00039  -0.00096   0.00058
           A7           0.06119  -0.00095   0.00387  -0.00189  -0.00197
           D1          -0.00006  -0.00006  -0.00012  -0.00009   0.00013
           D2           0.00039  -0.00013  -0.00063   0.00052   0.00018
           D3          -0.00014   0.00038   0.00023  -0.00097   0.00065
           D4           0.00026   0.00031   0.00035  -0.00057   0.00029
           D5          -0.00021   0.00069   0.00036  -0.00149   0.00112
           D6           0.00063   0.00139   0.00061  -0.00393   0.00332
                          A4        A5        A6        A7        D1
           A4           0.34935
           A5          -0.00469   0.03012
           A6           0.00152  -0.00063   0.24071
           A7          -0.00530   0.00463   0.00931   0.18498
           D1           0.00015  -0.00037  -0.00030  -0.00149   0.01601
           D2          -0.00041   0.00054   0.00017   0.00235  -0.00559
           D3           0.00107  -0.00194  -0.00036  -0.00355   0.01196
           D4           0.00051  -0.00101   0.00013   0.00050  -0.01074
           D5           0.00206  -0.00381  -0.00028  -0.00378   0.00079
           D6           0.00144   0.00211   0.00702   0.00803  -0.00004
                          D2        D3        D4        D5        D6
           D2           0.01398
           D3          -0.01177   0.01516
           D4           0.00879  -0.00979   0.01073
           D5          -0.00214   0.00468   0.00161   0.00735
           D6          -0.00001   0.00077   0.00078   0.00245   0.02144
 ITU=  0
     Eigenvalues ---   -0.08493   0.00029   0.00714   0.01014   0.02087
     Eigenvalues ---    0.02984   0.04381   0.06320   0.12785   0.16127
     Eigenvalues ---    0.19518   0.21374   0.25178   0.32857   0.42791
     Eigenvalues ---    0.49388   0.52126   1.07710
 Eigenvectors required to have negative eigenvalues:
                          R3        R5        R6        A7        A1
   1                    0.69865  -0.68116   0.16655  -0.08947   0.06833
                          A6        A2        D6        A3        R1
   1                   -0.03811  -0.03713   0.03648  -0.03117  -0.02730
 RFO step:  Lambda0=5.545085294D-10 Lambda=-1.74647476D-08.
 Linear search not attempted -- option 19 set.
 Iteration  1 RMS(Cart)=  0.00053342 RMS(Int)=  0.00000124
 Iteration  2 RMS(Cart)=  0.00000095 RMS(Int)=  0.00000000
 Variable       Old X    -DE/DX   Delta X   Delta X   Delta X     New X
                                 (Linear)    (Quad)   (Total)
    R1        2.67380   0.00000   0.00000   0.00002   0.00002   2.67382
    R2        2.19544   0.00000   0.00000   0.00000   0.00000   2.19544
    R3        2.60381   0.00000   0.00000  -0.00010  -0.00010   2.60372
    R4        2.47133   0.00000   0.00000   0.00000   0.00000   2.47132
    R5        2.16491  -0.00001   0.00000   0.00003   0.00003   2.16495
    R6        2.59402   0.00000   0.00000  -0.00001  -0.00001   2.59401
    R7        1.82619   0.00000   0.00000   0.00001   0.00001   1.82620
    A1        2.21104   0.00000   0.00000   0.00000   0.00000   2.21104
    A2        1.79879   0.00000   0.00000  -0.00006  -0.00006   1.79873
    A3        2.27335   0.00000   0.00000   0.00006   0.00006   2.27341
    A4        1.97407   0.00001   0.00000   0.00001   0.00001   1.97408
    A5        2.93527  -0.00001   0.00000  -0.00017  -0.00017   2.93510
    A6        1.81013   0.00000   0.00000   0.00000   0.00000   1.81013
    A7        1.82955   0.00000   0.00000   0.00003   0.00003   1.82958
    D1       -0.01140   0.00000   0.00000  -0.00012  -0.00012  -0.01151
    D2        3.12650   0.00000   0.00000  -0.00029  -0.00029   3.12622
    D3       -0.09693   0.00000   0.00000  -0.00394  -0.00394  -0.10087
    D4        3.04078   0.00000   0.00000  -0.00412  -0.00412   3.03667
    D5       -0.82024   0.00000   0.00000   0.00372   0.00372  -0.81652
    D6        1.73127   0.00000   0.00000  -0.00034  -0.00034   1.73093
         Item               Value     Threshold  Converged?
 Maximum Force            0.000012     0.000450     YES
 RMS     Force            0.000004     0.000300     YES
 Maximum Displacement     0.001030     0.001800     YES
 RMS     Displacement     0.000533     0.001200     YES
 Predicted change in Energy=-8.455119D-09
 Optimization completed.
    -- Stationary point found.
                           ----------------------------
                           !   Optimized Parameters   !
                           ! (Angstroms and Degrees)  !
 --------------------------                            --------------------------
 ! Name  Definition              Value          Derivative Info.                !
 --------------------------------------------------------------------------------
 ! R1    R(1,2)                  1.4149         -DE/DX =    0.0                 !
 ! R2    R(1,3)                  1.1618         -DE/DX =    0.0                 !
 ! R3    R(1,4)                  1.3779         -DE/DX =    0.0                 !
 ! R4    R(2,5)                  1.3078         -DE/DX =    0.0                 !
 ! R5    R(4,7)                  1.1456         -DE/DX =    0.0                 !
 ! R6    R(6,7)                  1.3727         -DE/DX =    0.0                 !
 ! R7    R(6,8)                  0.9664         -DE/DX =    0.0                 !
 ! A1    A(2,1,3)              126.6833         -DE/DX =    0.0                 !
 ! A2    A(2,1,4)              103.0629         -DE/DX =    0.0                 !
 ! A3    A(3,1,4)              130.2534         -DE/DX =    0.0                 !
 ! A4    A(1,2,5)              113.1059         -DE/DX =    0.0                 !
 ! A5    A(1,4,7)              168.1787         -DE/DX =    0.0                 !
 ! A6    A(7,6,8)              103.7129         -DE/DX =    0.0                 !
 ! A7    A(4,7,6)              104.8257         -DE/DX =    0.0                 !
 ! D1    D(3,1,2,5)             -0.6531         -DE/DX =    0.0                 !
 ! D2    D(4,1,2,5)            179.1354         -DE/DX =    0.0                 !
 ! D3    D(2,1,4,7)             -5.5537         -DE/DX =    0.0                 !
 ! D4    D(3,1,4,7)            174.224          -DE/DX =    0.0                 !
 ! D5    D(1,4,7,6)            -46.9963         -DE/DX =    0.0                 !
 ! D6    D(8,6,7,4)             99.1946         -DE/DX =    0.0                 !
 --------------------------------------------------------------------------------
 GradGradGradGradGradGradGradGradGradGradGradGradGradGradGradGradGradGrad

                          Input orientation:                          
 ---------------------------------------------------------------------
 Center     Atomic      Atomic             Coordinates (Angstroms)
 Number     Number       Type             X           Y           Z
 ---------------------------------------------------------------------
      1          6           0       -0.527131    0.619699   -0.028763
      2          8           0       -0.835064   -0.752860   -0.181214
      3          8           0       -1.272684    1.474492    0.222639
      4          1           0        0.833119    0.659564   -0.244819
      5          8           0       -2.102008   -1.018339    0.004886
      6          8           0        2.274925   -0.540483    0.449889
      7          8           0        1.945036    0.457680   -0.432800
      8          1           0        2.248030   -1.341671   -0.089799
 ---------------------------------------------------------------------
                    Distance matrix (angstroms):
                    1          2          3          4          5
     1  C    0.000000
     2  O    1.414914   0.000000
     3  O    1.161776   2.305581   0.000000
     4  H    1.377879   2.186738   2.305869   0.000000
     5  O    2.272562   1.307769   2.636172   3.390086   0.000000
     6  O    3.070285   3.180476   4.086233   2.000384   4.425372
     7  O    2.510200   3.042640   3.437620   1.145624   4.329985
     8  H    3.398855   3.140147   4.519272   2.455798   4.363065
                    6          7          8
     6  O    0.000000
     7  O    1.372697   0.000000
     8  H    0.966379   1.856642   0.000000
 Stoichiometry    CH2O5(3)
 Framework group  C1[X(CH2O5)]
 Deg. of freedom    18
 Full point group                 C1      NOp   1
 Largest Abelian subgroup         C1      NOp   1
 Largest concise Abelian subgroup C1      NOp   1
                         Standard orientation:                         
 ---------------------------------------------------------------------
 Center     Atomic      Atomic             Coordinates (Angstroms)
 Number     Number       Type             X           Y           Z
 ---------------------------------------------------------------------
      1          6           0       -0.527131    0.619699   -0.028763
      2          8           0       -0.835064   -0.752860   -0.181214
      3          8           0       -1.272684    1.474492    0.222639
      4          1           0        0.833119    0.659564   -0.244819
      5          8           0       -2.102008   -1.018339    0.004886
      6          8           0        2.274925   -0.540484    0.449889
      7          8           0        1.945036    0.457680   -0.432800
      8          1           0        2.248030   -1.341671   -0.089799
 ---------------------------------------------------------------------
 Rotational constants (GHZ):      6.0960726      1.8877635      1.5069818
 1\1\GINC-COMPUTE-3-046\FTS\UM062X\6-311+G(2df,2p)\C1H2O5(3)\ROOT\03-Au
 g-2017\0\\# m062x/6-311+g(2df,2p) opt=(ts,calcfc,noeigentest) freq\\[O
 ]O+[O]OC=O_OO+[O]O[C]=O\\0,3\C,-0.527131,0.619699,-0.028763\O,-0.83506
 4,-0.75286,-0.181214\O,-1.272684,1.474492,0.222639\H,0.833119,0.659564
 ,-0.244819\O,-2.102008,-1.018339,0.004886\O,2.274925,-0.540483,0.44988
 9\O,1.945036,0.45768,-0.4328\H,2.24803,-1.341671,-0.089799\\Version=EM
 64L-G09RevB.01\State=3-A\HF=-415.0879125\S2=2.015117\S2-1=0.\S2A=2.000
 117\RMSD=4.517e-09\RMSF=2.037e-05\Dipole=0.268659,-0.6107113,-0.308181
 1\Polar=0.,0.,0.,0.,0.,0.\Quadrupole=-2.5187436,1.2424308,1.2763128,-2
 .5904342,-0.5467581,0.0884496\PG=C01 [X(C1H2O5)]\\@


 IF IT'S NOT TRUE, IT'S WELL INVENTED -- DANTE
 Job cpu time:  0 days  1 hours 19 minutes  6.9 seconds.
 File lengths (MBytes):  RWF=   2416 Int=      0 D2E=      0 Chk=     32 Scr=     32
 Normal termination of Gaussian 09 at Thu Aug  3 16:47:27 2017.
 Link1:  Proceeding to internal job step number  2.
 ----------------------------------------------------------------------
 #N Geom=AllCheck Guess=TCheck SCRF=Check GenChk UM062X/6-311+G(2df,2p)
  Freq
 ----------------------------------------------------------------------
 1/5=1,10=4,11=1,29=7,30=1,38=1,40=1/1,3;
 2/12=2,40=1/2;
 3/5=4,6=6,7=214,11=2,14=-4,16=1,25=1,30=1,70=2,71=2,74=-55,116=2/1,2,3;
 4/5=101/1;
 5/5=2,98=1/2;
 8/6=4,10=90,11=11/1;
 11/6=1,8=1,9=11,15=111,16=1/1,2,10;
 10/6=1/2;
 6/7=2,8=2,9=2,10=2,18=1,28=1/1;
 7/8=1,10=1,25=1/1,2,3,16;
 1/5=1,10=4,11=1,30=1/3;
 99//99;
 -------------------------
 [O]O+[O]OC=O_OO+[O]O[C]=O
 -------------------------
 Redundant internal coordinates taken from checkpoint file:
 /gss_gpfs_scratch/harms.n/QMscratch/[O]O+[O]OC=O_OO+[O]O[C]=O.chk
 Charge =  0 Multiplicity = 3
 C,0,-0.527131,0.619699,-0.028763
 O,0,-0.835064,-0.75286,-0.181214
 O,0,-1.272684,1.474492,0.222639
 H,0,0.833119,0.659564,-0.244819
 O,0,-2.102008,-1.018339,0.004886
 O,0,2.274925,-0.540483,0.449889
 O,0,1.945036,0.45768,-0.4328
 H,0,2.24803,-1.341671,-0.089799
 Recover connectivity data from disk.

 GradGradGradGradGradGradGradGradGradGradGradGradGradGradGradGradGradGrad
 Berny optimization.
 Initialization pass.
                           ----------------------------
                           !    Initial Parameters    !
                           ! (Angstroms and Degrees)  !
 --------------------------                            --------------------------
 ! Name  Definition              Value          Derivative Info.                !
 --------------------------------------------------------------------------------
 ! R1    R(1,2)                  1.4149         calculate D2E/DX2 analytically  !
 ! R2    R(1,3)                  1.1618         calculate D2E/DX2 analytically  !
 ! R3    R(1,4)                  1.3779         calculate D2E/DX2 analytically  !
 ! R4    R(2,5)                  1.3078         calculate D2E/DX2 analytically  !
 ! R5    R(4,7)                  1.1456         calculate D2E/DX2 analytically  !
 ! R6    R(6,7)                  1.3727         calculate D2E/DX2 analytically  !
 ! R7    R(6,8)                  0.9664         calculate D2E/DX2 analytically  !
 ! A1    A(2,1,3)              126.6833         calculate D2E/DX2 analytically  !
 ! A2    A(2,1,4)              103.0629         calculate D2E/DX2 analytically  !
 ! A3    A(3,1,4)              130.2534         calculate D2E/DX2 analytically  !
 ! A4    A(1,2,5)              113.1059         calculate D2E/DX2 analytically  !
 ! A5    A(1,4,7)              168.1787         calculate D2E/DX2 analytically  !
 ! A6    A(7,6,8)              103.7129         calculate D2E/DX2 analytically  !
 ! A7    A(4,7,6)              104.8257         calculate D2E/DX2 analytically  !
 ! D1    D(3,1,2,5)             -0.6531         calculate D2E/DX2 analytically  !
 ! D2    D(4,1,2,5)            179.1354         calculate D2E/DX2 analytically  !
 ! D3    D(2,1,4,7)             -5.5537         calculate D2E/DX2 analytically  !
 ! D4    D(3,1,4,7)            174.224          calculate D2E/DX2 analytically  !
 ! D5    D(1,4,7,6)            -46.9963         calculate D2E/DX2 analytically  !
 ! D6    D(8,6,7,4)             99.1946         calculate D2E/DX2 analytically  !
 --------------------------------------------------------------------------------
 Trust Radius=3.00D-01 FncErr=1.00D-07 GrdErr=1.00D-07
 Number of steps in this run=      2 maximum allowed number of steps=      2.
 Search for a saddle point of order  1.
 GradGradGradGradGradGradGradGradGradGradGradGradGradGradGradGradGradGrad

                          Input orientation:                          
 ---------------------------------------------------------------------
 Center     Atomic      Atomic             Coordinates (Angstroms)
 Number     Number       Type             X           Y           Z
 ---------------------------------------------------------------------
      1          6           0       -0.527131    0.619699   -0.028763
      2          8           0       -0.835064   -0.752860   -0.181214
      3          8           0       -1.272684    1.474492    0.222639
      4          1           0        0.833119    0.659564   -0.244819
      5          8           0       -2.102008   -1.018339    0.004886
      6          8           0        2.274925   -0.540483    0.449889
      7          8           0        1.945036    0.457680   -0.432800
      8          1           0        2.248030   -1.341671   -0.089799
 ---------------------------------------------------------------------
                    Distance matrix (angstroms):
                    1          2          3          4          5
     1  C    0.000000
     2  O    1.414914   0.000000
     3  O    1.161776   2.305581   0.000000
     4  H    1.377879   2.186738   2.305869   0.000000
     5  O    2.272562   1.307769   2.636172   3.390086   0.000000
     6  O    3.070285   3.180476   4.086233   2.000384   4.425372
     7  O    2.510200   3.042640   3.437620   1.145624   4.329985
     8  H    3.398855   3.140147   4.519272   2.455798   4.363065
                    6          7          8
     6  O    0.000000
     7  O    1.372697   0.000000
     8  H    0.966379   1.856642   0.000000
 Stoichiometry    CH2O5(3)
 Framework group  C1[X(CH2O5)]
 Deg. of freedom    18
 Full point group                 C1      NOp   1
 Largest Abelian subgroup         C1      NOp   1
 Largest concise Abelian subgroup C1      NOp   1
                         Standard orientation:                         
 ---------------------------------------------------------------------
 Center     Atomic      Atomic             Coordinates (Angstroms)
 Number     Number       Type             X           Y           Z
 ---------------------------------------------------------------------
      1          6           0       -0.527131    0.619699   -0.028763
      2          8           0       -0.835064   -0.752860   -0.181214
      3          8           0       -1.272684    1.474492    0.222639
      4          1           0        0.833119    0.659564   -0.244819
      5          8           0       -2.102008   -1.018339    0.004886
      6          8           0        2.274925   -0.540484    0.449889
      7          8           0        1.945036    0.457680   -0.432800
      8          1           0        2.248030   -1.341671   -0.089799
 ---------------------------------------------------------------------
 Rotational constants (GHZ):      6.0960726      1.8877635      1.5069818
 Standard basis: 6-311+G(2df,2p) (5D, 7F)
 There are   222 symmetry adapted basis functions of A   symmetry.
 Integral buffers will be    131072 words long.
 Raffenetti 2 integral format.
 Two-electron integral symmetry is turned on.
   222 basis functions,   334 primitive gaussians,   252 cartesian basis functions
    25 alpha electrons       23 beta electrons
       nuclear repulsion energy       227.0864383272 Hartrees.
 NAtoms=    8 NActive=    8 NUniq=    8 SFac= 1.00D+00 NAtFMM=   50 NAOKFM=F Big=F
 One-electron integrals computed using PRISM.
 NBasis=   222 RedAO= T  NBF=   222
 NBsUse=   222 1.00D-06 NBFU=   222
 Initial guess read from the checkpoint file:  /gss_gpfs_scratch/harms.n/QMscratch/[O]O+[O]OC=O_OO+[O]O[C]=O.chk
 B after Tr=     0.000000    0.000000    0.000000
         Rot=    1.000000    0.000000    0.000000    0.000000 Ang=   0.00 deg.
 Initial guess orbital symmetries:
 Alpha Orbitals:
       Occupied  (A) (A) (A) (A) (A) (A) (A) (A) (A) (A) (A) (A)
                 (A) (A) (A) (A) (A) (A) (A) (A) (A) (A) (A) (A)
                 (A)
       Virtual   (A) (A) (A) (A) (A) (A) (A) (A) (A) (A) (A) (A)
                 (A) (A) (A) (A) (A) (A) (A) (A) (A) (A) (A) (A)
                 (A) (A) (A) (A) (A) (A) (A) (A) (A) (A) (A) (A)
                 (A) (A) (A) (A) (A) (A) (A) (A) (A) (A) (A) (A)
                 (A) (A) (A) (A) (A) (A) (A) (A) (A) (A) (A) (A)
                 (A) (A) (A) (A) (A) (A) (A) (A) (A) (A) (A) (A)
                 (A) (A) (A) (A) (A) (A) (A) (A) (A) (A) (A) (A)
                 (A) (A) (A) (A) (A) (A) (A) (A) (A) (A) (A) (A)
                 (A) (A) (A) (A) (A) (A) (A) (A) (A) (A) (A) (A)
                 (A) (A) (A) (A) (A) (A) (A) (A) (A) (A) (A) (A)
                 (A) (A) (A) (A) (A) (A) (A) (A) (A) (A) (A) (A)
                 (A) (A) (A) (A) (A) (A) (A) (A) (A) (A) (A) (A)
                 (A) (A) (A) (A) (A) (A) (A) (A) (A) (A) (A) (A)
                 (A) (A) (A) (A) (A) (A) (A) (A) (A) (A) (A) (A)
                 (A) (A) (A) (A) (A) (A) (A) (A) (A) (A) (A) (A)
                 (A) (A) (A) (A) (A) (A) (A) (A) (A) (A) (A) (A)
                 (A) (A) (A) (A) (A)
 Beta  Orbitals:
       Occupied  (A) (A) (A) (A) (A) (A) (A) (A) (A) (A) (A) (A)
                 (A) (A) (A) (A) (A) (A) (A) (A) (A) (A) (A)
       Virtual   (A) (A) (A) (A) (A) (A) (A) (A) (A) (A) (A) (A)
                 (A) (A) (A) (A) (A) (A) (A) (A) (A) (A) (A) (A)
                 (A) (A) (A) (A) (A) (A) (A) (A) (A) (A) (A) (A)
                 (A) (A) (A) (A) (A) (A) (A) (A) (A) (A) (A) (A)
                 (A) (A) (A) (A) (A) (A) (A) (A) (A) (A) (A) (A)
                 (A) (A) (A) (A) (A) (A) (A) (A) (A) (A) (A) (A)
                 (A) (A) (A) (A) (A) (A) (A) (A) (A) (A) (A) (A)
                 (A) (A) (A) (A) (A) (A) (A) (A) (A) (A) (A) (A)
                 (A) (A) (A) (A) (A) (A) (A) (A) (A) (A) (A) (A)
                 (A) (A) (A) (A) (A) (A) (A) (A) (A) (A) (A) (A)
                 (A) (A) (A) (A) (A) (A) (A) (A) (A) (A) (A) (A)
                 (A) (A) (A) (A) (A) (A) (A) (A) (A) (A) (A) (A)
                 (A) (A) (A) (A) (A) (A) (A) (A) (A) (A) (A) (A)
                 (A) (A) (A) (A) (A) (A) (A) (A) (A) (A) (A) (A)
                 (A) (A) (A) (A) (A) (A) (A) (A) (A) (A) (A) (A)
                 (A) (A) (A) (A) (A) (A) (A) (A) (A) (A) (A) (A)
                 (A) (A) (A) (A) (A) (A) (A)
 Initial guess <Sx>= 0.0000 <Sy>= 0.0000 <Sz>= 1.0000 <S**2>= 2.0151 S= 1.0050
 Requested convergence on RMS density matrix=1.00D-08 within 128 cycles.
 Requested convergence on MAX density matrix=1.00D-06.
 Requested convergence on             energy=1.00D-06.
 No special actions if energy rises.
 SCF Done:  E(UM062X) =  -415.087912458     A.U. after    1 cycles
             Convg  =    0.4401D-09             -V/T =  2.0027
 <Sx>= 0.0000 <Sy>= 0.0000 <Sz>= 1.0000 <S**2>= 2.0151 S= 1.0050
 <L.S>= 0.000000000000E+00
 Annihilation of the first spin contaminant:
 S**2 before annihilation     2.0151,   after     2.0001
 Range of M.O.s used for correlation:     1   222
 NBasis=   222 NAE=    25 NBE=    23 NFC=     0 NFV=     0
 NROrb=    222 NOA=    25 NOB=    23 NVA=   197 NVB=   199

 **** Warning!!: The largest alpha MO coefficient is  0.14686939D+02


 **** Warning!!: The largest beta MO coefficient is  0.17847574D+02

 Symmetrizing basis deriv contribution to polar:
 IMax=3 JMax=2 DiffMx= 0.00D+00
 G2DrvN: will do     9 centers at a time, making    1 passes doing MaxLOS=3.
 Calling FoFCou, ICntrl=  3107 FMM=F I1Cent=   0 AccDes= 0.00D+00.
 FoFDir/FoFCou used for L=0 through L=3.
 End of G2Drv Frequency-dependent properties file   721 does not exist.
 End of G2Drv Frequency-dependent properties file   722 does not exist.
          IDoAtm=11111111
          Differentiating once with respect to electric field.
                with respect to dipole field.
          Differentiating once with respect to nuclear coordinates.
          There are    27 degrees of freedom in the 1st order CPHF.  IDoFFX=5.
     24 vectors produced by pass  0 Test12= 3.52D-14 3.70D-09 XBig12= 1.20D+02 8.92D+00.
 AX will form    24 AO Fock derivatives at one time.
     24 vectors produced by pass  1 Test12= 3.52D-14 3.70D-09 XBig12= 2.53D+01 9.71D-01.
     24 vectors produced by pass  2 Test12= 3.52D-14 3.70D-09 XBig12= 1.84D+00 3.34D-01.
     24 vectors produced by pass  3 Test12= 3.52D-14 3.70D-09 XBig12= 6.28D-02 3.87D-02.
     24 vectors produced by pass  4 Test12= 3.52D-14 3.70D-09 XBig12= 1.93D-03 7.44D-03.
     24 vectors produced by pass  5 Test12= 3.52D-14 3.70D-09 XBig12= 4.40D-05 7.49D-04.
     24 vectors produced by pass  6 Test12= 3.52D-14 3.70D-09 XBig12= 6.91D-07 1.41D-04.
     24 vectors produced by pass  7 Test12= 3.52D-14 3.70D-09 XBig12= 7.73D-09 8.70D-06.
     10 vectors produced by pass  8 Test12= 3.52D-14 3.70D-09 XBig12= 6.31D-11 8.66D-07.
      3 vectors produced by pass  9 Test12= 3.52D-14 3.70D-09 XBig12= 6.53D-13 9.87D-08.
      1 vectors produced by pass 10 Test12= 3.52D-14 3.70D-09 XBig12= 6.56D-15 7.35D-09.
 Inverted reduced A of dimension   206 with in-core refinement.
 Isotropic polarizability for W=    0.000000       53.82 Bohr**3.
 End of Minotr Frequency-dependent properties file   721 does not exist.
 End of Minotr Frequency-dependent properties file   722 does not exist.

 **********************************************************************

            Population analysis using the SCF density.

 **********************************************************************

 Orbital symmetries:
 Alpha Orbitals:
       Occupied  (A) (A) (A) (A) (A) (A) (A) (A) (A) (A) (A) (A)
                 (A) (A) (A) (A) (A) (A) (A) (A) (A) (A) (A) (A)
                 (A)
       Virtual   (A) (A) (A) (A) (A) (A) (A) (A) (A) (A) (A) (A)
                 (A) (A) (A) (A) (A) (A) (A) (A) (A) (A) (A) (A)
                 (A) (A) (A) (A) (A) (A) (A) (A) (A) (A) (A) (A)
                 (A) (A) (A) (A) (A) (A) (A) (A) (A) (A) (A) (A)
                 (A) (A) (A) (A) (A) (A) (A) (A) (A) (A) (A) (A)
                 (A) (A) (A) (A) (A) (A) (A) (A) (A) (A) (A) (A)
                 (A) (A) (A) (A) (A) (A) (A) (A) (A) (A) (A) (A)
                 (A) (A) (A) (A) (A) (A) (A) (A) (A) (A) (A) (A)
                 (A) (A) (A) (A) (A) (A) (A) (A) (A) (A) (A) (A)
                 (A) (A) (A) (A) (A) (A) (A) (A) (A) (A) (A) (A)
                 (A) (A) (A) (A) (A) (A) (A) (A) (A) (A) (A) (A)
                 (A) (A) (A) (A) (A) (A) (A) (A) (A) (A) (A) (A)
                 (A) (A) (A) (A) (A) (A) (A) (A) (A) (A) (A) (A)
                 (A) (A) (A) (A) (A) (A) (A) (A) (A) (A) (A) (A)
                 (A) (A) (A) (A) (A) (A) (A) (A) (A) (A) (A) (A)
                 (A) (A) (A) (A) (A) (A) (A) (A) (A) (A) (A) (A)
                 (A) (A) (A) (A) (A)
 Beta  Orbitals:
       Occupied  (A) (A) (A) (A) (A) (A) (A) (A) (A) (A) (A) (A)
                 (A) (A) (A) (A) (A) (A) (A) (A) (A) (A) (A)
       Virtual   (A) (A) (A) (A) (A) (A) (A) (A) (A) (A) (A) (A)
                 (A) (A) (A) (A) (A) (A) (A) (A) (A) (A) (A) (A)
                 (A) (A) (A) (A) (A) (A) (A) (A) (A) (A) (A) (A)
                 (A) (A) (A) (A) (A) (A) (A) (A) (A) (A) (A) (A)
                 (A) (A) (A) (A) (A) (A) (A) (A) (A) (A) (A) (A)
                 (A) (A) (A) (A) (A) (A) (A) (A) (A) (A) (A) (A)
                 (A) (A) (A) (A) (A) (A) (A) (A) (A) (A) (A) (A)
                 (A) (A) (A) (A) (A) (A) (A) (A) (A) (A) (A) (A)
                 (A) (A) (A) (A) (A) (A) (A) (A) (A) (A) (A) (A)
                 (A) (A) (A) (A) (A) (A) (A) (A) (A) (A) (A) (A)
                 (A) (A) (A) (A) (A) (A) (A) (A) (A) (A) (A) (A)
                 (A) (A) (A) (A) (A) (A) (A) (A) (A) (A) (A) (A)
                 (A) (A) (A) (A) (A) (A) (A) (A) (A) (A) (A) (A)
                 (A) (A) (A) (A) (A) (A) (A) (A) (A) (A) (A) (A)
                 (A) (A) (A) (A) (A) (A) (A) (A) (A) (A) (A) (A)
                 (A) (A) (A) (A) (A) (A) (A) (A) (A) (A) (A) (A)
                 (A) (A) (A) (A) (A) (A) (A)
 The electronic state is 3-A.
 Alpha  occ. eigenvalues --  -19.80514 -19.76024 -19.72872 -19.72794 -19.71437
 Alpha  occ. eigenvalues --  -10.72710  -1.40221  -1.31795  -1.27401  -1.05989
 Alpha  occ. eigenvalues --   -1.02728  -0.75523  -0.69562  -0.66312  -0.64612
 Alpha  occ. eigenvalues --   -0.64487  -0.61568  -0.56517  -0.54652  -0.54170
 Alpha  occ. eigenvalues --   -0.45449  -0.43082  -0.42507  -0.41440  -0.35654
 Alpha virt. eigenvalues --   -0.01390   0.01694   0.02776   0.04799   0.05403
 Alpha virt. eigenvalues --    0.08061   0.10425   0.11841   0.15123   0.16268
 Alpha virt. eigenvalues --    0.17035   0.17821   0.19067   0.20230   0.20714
 Alpha virt. eigenvalues --    0.21168   0.21877   0.22450   0.24864   0.26398
 Alpha virt. eigenvalues --    0.27276   0.27424   0.28772   0.29357   0.30271
 Alpha virt. eigenvalues --    0.32316   0.33947   0.34302   0.39004   0.40349
 Alpha virt. eigenvalues --    0.46059   0.50595   0.55177   0.56667   0.63823
 Alpha virt. eigenvalues --    0.66535   0.70466   0.75321   0.77265   0.78713
 Alpha virt. eigenvalues --    0.80640   0.85385   0.88304   0.93598   0.94254
 Alpha virt. eigenvalues --    0.98138   1.00656   1.02132   1.03554   1.04694
 Alpha virt. eigenvalues --    1.05677   1.07340   1.09344   1.10952   1.12935
 Alpha virt. eigenvalues --    1.13381   1.14777   1.17470   1.18359   1.30880
 Alpha virt. eigenvalues --    1.33747   1.34876   1.39322   1.42303   1.42768
 Alpha virt. eigenvalues --    1.50023   1.52356   1.53363   1.53952   1.55789
 Alpha virt. eigenvalues --    1.58883   1.59889   1.62728   1.68550   1.70716
 Alpha virt. eigenvalues --    1.77509   1.88324   1.93359   1.97095   1.98620
 Alpha virt. eigenvalues --    1.98983   2.11061   2.16995   2.17813   2.23113
 Alpha virt. eigenvalues --    2.25056   2.26691   2.34945   2.42085   2.50611
 Alpha virt. eigenvalues --    2.51999   2.57287   2.61696   2.64875   2.74092
 Alpha virt. eigenvalues --    2.77795   2.95604   2.98193   3.01131   3.11038
 Alpha virt. eigenvalues --    3.17562   3.26092   3.32028   3.35970   3.46221
 Alpha virt. eigenvalues --    3.55018   3.56061   3.58789   3.63990   3.67222
 Alpha virt. eigenvalues --    3.72811   3.78910   3.98016   4.09513   4.11024
 Alpha virt. eigenvalues --    4.25625   4.43797   4.56131   4.57831   4.60862
 Alpha virt. eigenvalues --    4.62029   4.67896   4.71383   4.77051   4.86160
 Alpha virt. eigenvalues --    4.90698   4.94857   4.95412   4.96430   4.99301
 Alpha virt. eigenvalues --    5.00399   5.05123   5.05666   5.07301   5.08152
 Alpha virt. eigenvalues --    5.09611   5.10500   5.12573   5.14530   5.15918
 Alpha virt. eigenvalues --    5.16862   5.20472   5.24517   5.29259   5.30669
 Alpha virt. eigenvalues --    5.31620   5.37154   5.38996   5.43312   5.48353
 Alpha virt. eigenvalues --    5.53496   5.60084   5.65482   5.80491   6.09619
 Alpha virt. eigenvalues --    6.11776   6.24891   6.31680   6.35976   6.42170
 Alpha virt. eigenvalues --    6.47197   6.61884   6.69057   6.71617   6.75666
 Alpha virt. eigenvalues --    6.77440   6.80408   6.81211   6.83706   6.86029
 Alpha virt. eigenvalues --    6.87836   6.92425   6.97042   7.00661   7.01267
 Alpha virt. eigenvalues --    7.06245   7.11165   7.11565   7.22602   7.22998
 Alpha virt. eigenvalues --    7.23927   7.25977   7.36705   7.44767   7.49607
 Alpha virt. eigenvalues --    7.58093   7.64777   7.77926   7.84523   7.86267
 Alpha virt. eigenvalues --    7.91395  24.59164  49.90376  49.94065  49.98233
 Alpha virt. eigenvalues --   49.99511  50.23864
  Beta  occ. eigenvalues --  -19.79779 -19.74420 -19.72553 -19.71988 -19.70995
  Beta  occ. eigenvalues --  -10.72162  -1.36745  -1.30006  -1.25756  -1.01051
  Beta  occ. eigenvalues --   -0.99634  -0.72144  -0.66821  -0.62924  -0.62539
  Beta  occ. eigenvalues --   -0.59628  -0.58399  -0.54142  -0.50527  -0.50084
  Beta  occ. eigenvalues --   -0.41338  -0.40255  -0.37178
  Beta virt. eigenvalues --   -0.14519  -0.12258   0.00848   0.01665   0.03001
  Beta virt. eigenvalues --    0.05091   0.05654   0.08189   0.11126   0.12235
  Beta virt. eigenvalues --    0.15219   0.16187   0.17284   0.18221   0.19577
  Beta virt. eigenvalues --    0.20478   0.21008   0.21709   0.21987   0.23356
  Beta virt. eigenvalues --    0.25354   0.26375   0.27502   0.28011   0.28974
  Beta virt. eigenvalues --    0.29498   0.30272   0.31765   0.34195   0.35153
  Beta virt. eigenvalues --    0.39870   0.40899   0.46284   0.50831   0.55271
  Beta virt. eigenvalues --    0.56738   0.63920   0.67162   0.71545   0.75361
  Beta virt. eigenvalues --    0.77408   0.79103   0.80966   0.85469   0.88497
  Beta virt. eigenvalues --    0.94485   0.95195   0.98305   1.01604   1.03925
  Beta virt. eigenvalues --    1.04279   1.05827   1.06258   1.09025   1.10359
  Beta virt. eigenvalues --    1.11448   1.13619   1.14095   1.15329   1.17950
  Beta virt. eigenvalues --    1.18987   1.32158   1.34853   1.36092   1.40038
  Beta virt. eigenvalues --    1.43867   1.44556   1.50788   1.53198   1.53847
  Beta virt. eigenvalues --    1.54697   1.56576   1.59639   1.60842   1.65103
  Beta virt. eigenvalues --    1.69610   1.71274   1.77902   1.89042   1.94020
  Beta virt. eigenvalues --    1.97848   1.99406   1.99739   2.12133   2.18242
  Beta virt. eigenvalues --    2.18368   2.24212   2.25141   2.27460   2.35376
  Beta virt. eigenvalues --    2.42856   2.50892   2.51547   2.57459   2.61955
  Beta virt. eigenvalues --    2.64325   2.73071   2.77730   2.96564   2.99729
  Beta virt. eigenvalues --    3.02532   3.12934   3.20261   3.27899   3.34349
  Beta virt. eigenvalues --    3.38380   3.47692   3.56165   3.57074   3.60182
  Beta virt. eigenvalues --    3.64130   3.68432   3.72947   3.78939   3.98295
  Beta virt. eigenvalues --    4.09771   4.12366   4.24554   4.47025   4.56379
  Beta virt. eigenvalues --    4.58862   4.60809   4.62576   4.69402   4.71754
  Beta virt. eigenvalues --    4.77209   4.86392   4.91757   4.97626   4.98493
  Beta virt. eigenvalues --    4.99899   5.00902   5.03628   5.06250   5.07695
  Beta virt. eigenvalues --    5.08157   5.09409   5.10233   5.11577   5.14540
  Beta virt. eigenvalues --    5.14988   5.16402   5.17867   5.21318   5.25600
  Beta virt. eigenvalues --    5.29640   5.31066   5.32598   5.37639   5.40379
  Beta virt. eigenvalues --    5.43788   5.48741   5.54110   5.60196   5.66254
  Beta virt. eigenvalues --    5.81354   6.10278   6.12105   6.27372   6.32251
  Beta virt. eigenvalues --    6.36589   6.43890   6.47329   6.70539   6.76275
  Beta virt. eigenvalues --    6.76474   6.79667   6.80916   6.82442   6.83255
  Beta virt. eigenvalues --    6.84489   6.87107   6.89625   6.95118   6.99894
  Beta virt. eigenvalues --    7.02490   7.04262   7.06794   7.12819   7.14001
  Beta virt. eigenvalues --    7.23434   7.24036   7.26257   7.29805   7.38164
  Beta virt. eigenvalues --    7.44704   7.51233   7.58724   7.64668   7.79898
  Beta virt. eigenvalues --    7.84794   7.86364   7.93596  24.59720  49.89981
  Beta virt. eigenvalues --   49.93691  49.97704  49.99092  50.23434
          Condensed to atoms (all electrons):
              1          2          3          4          5          6
     1  C    5.165527   0.089631   0.421892   0.253492  -0.046584   0.031180
     2  O    0.089631   7.778959  -0.055506  -0.028432   0.195393   0.009869
     3  O    0.421892  -0.055506   7.853970   0.004714   0.007287  -0.000699
     4  H    0.253492  -0.028432   0.004714   0.355142   0.000837  -0.042892
     5  O   -0.046584   0.195393   0.007287   0.000837   7.906460   0.001763
     6  O    0.031180   0.009869  -0.000699  -0.042892   0.001763   7.780210
     7  O   -0.038169   0.017933  -0.003765   0.109502   0.001791   0.130660
     8  H   -0.008236   0.002154  -0.000179   0.004796  -0.001220   0.248095
              7          8
     1  C   -0.038169  -0.008236
     2  O    0.017933   0.002154
     3  O   -0.003765  -0.000179
     4  H    0.109502   0.004796
     5  O    0.001791  -0.001220
     6  O    0.130660   0.248095
     7  O    8.097257  -0.043364
     8  H   -0.043364   0.538594
 Mulliken atomic charges:
              1
     1  C    0.131267
     2  O   -0.010002
     3  O   -0.227714
     4  H    0.342842
     5  O   -0.065725
     6  O   -0.158185
     7  O   -0.271844
     8  H    0.259361
 Sum of Mulliken atomic charges =   0.00000
 Mulliken charges with hydrogens summed into heavy atoms:
              1
     1  C    0.131267
     2  O   -0.010002
     3  O   -0.227714
     5  O   -0.065725
     6  O    0.101176
     7  O    0.070998
 Sum of Mulliken charges with hydrogens summed into heavy atoms =   0.00000
          Atomic-Atomic Spin Densities.
              1          2          3          4          5          6
     1  C    0.557710  -0.082373  -0.084357   0.004178   0.021010   0.039980
     2  O   -0.082373   0.440823  -0.006005   0.004376  -0.165042  -0.009471
     3  O   -0.084357  -0.006005   0.251414   0.000258   0.013056  -0.001435
     4  H    0.004178   0.004376   0.000258  -0.095154  -0.000183   0.006508
     5  O    0.021010  -0.165042   0.013056  -0.000183   0.976936   0.002340
     6  O    0.039980  -0.009471  -0.001435   0.006508   0.002340   0.132716
     7  O   -0.085362   0.016078   0.004652   0.025173  -0.004817  -0.065845
     8  H   -0.001525  -0.000096   0.000037   0.001206   0.000030  -0.004625
              7          8
     1  C   -0.085362  -0.001525
     2  O    0.016078  -0.000096
     3  O    0.004652   0.000037
     4  H    0.025173   0.001206
     5  O   -0.004817   0.000030
     6  O   -0.065845  -0.004625
     7  O    0.476747   0.002814
     8  H    0.002814  -0.002311
 Mulliken atomic spin densities:
              1
     1  C    0.369261
     2  O    0.198288
     3  O    0.177620
     4  H   -0.053637
     5  O    0.843330
     6  O    0.100167
     7  O    0.369441
     8  H   -0.004470
 Sum of Mulliken atomic spin densities =   2.00000
 APT atomic charges:
              1
     1  C    1.497745
     2  O   -0.477059
     3  O   -0.737536
     4  H   -0.600070
     5  O   -0.017328
     6  O   -0.389924
     7  O    0.437921
     8  H    0.286250
 Sum of APT charges=   0.00000
 APT Atomic charges with hydrogens summed into heavy atoms:
              1
     1  C    1.497745
     2  O   -0.477059
     3  O   -0.737536
     4  H    0.000000
     5  O   -0.017328
     6  O   -0.103674
     7  O   -0.162149
     8  H    0.000000
 Sum of APT charges=   0.00000
 Electronic spatial extent (au):  <R**2>=            704.7068
 Charge=              0.0000 electrons
 Dipole moment (field-independent basis, Debye):
    X=              0.6829    Y=             -1.5523    Z=             -0.7833  Tot=              1.8680
 Quadrupole moment (field-independent basis, Debye-Ang):
   XX=            -38.2044   YY=            -33.1455   ZZ=            -33.0999
   XY=             -3.4842   XZ=             -0.7354   YZ=              0.1190
 Traceless Quadrupole moment (field-independent basis, Debye-Ang):
   XX=             -3.3878   YY=              1.6711   ZZ=              1.7167
   XY=             -3.4842   XZ=             -0.7354   YZ=              0.1190
 Octapole moment (field-independent basis, Debye-Ang**2):
  XXX=              1.2191  YYY=            -10.2742  ZZZ=              0.1737  XYY=             11.2989
  XXY=            -11.5854  XXZ=             -4.2146  XZZ=             -3.0630  YZZ=             -0.7395
  YYZ=             -1.2195  XYZ=              3.0021
 Hexadecapole moment (field-independent basis, Debye-Ang**3):
 XXXX=           -585.1006 YYYY=           -183.1143 ZZZZ=            -42.4785 XXXY=            -21.0861
 XXXZ=             -7.2066 YYYX=            -10.4972 YYYZ=             -1.0113 ZZZX=              0.0944
 ZZZY=              0.4792 XXYY=           -116.0909 XXZZ=           -102.8194 YYZZ=            -36.2340
 XXYZ=              3.9038 YYXZ=             -1.0478 ZZXY=              0.7595
 N-N= 2.270864383272D+02 E-N=-2.131889013597D+03  KE= 6.177604048823D+02
  Exact polarizability:  92.913  -6.826  42.489  -2.019  -0.358  26.043
 Approx polarizability:  84.745  -8.173  50.685  -3.260  -0.649  32.367
                          Isotropic Fermi Contact Couplings
        Atom                 a.u.       MegaHertz       Gauss      10(-4) cm-1
     1  C(13)              0.37275     209.52071      74.76220      69.88859
     2  O(17)              0.20076     -60.85057     -21.71300     -20.29756
     3  O(17)              0.05971     -18.09861      -6.45803      -6.03705
     4  H(1)              -0.03822     -85.41655     -30.47875     -28.49189
     5  O(17)              0.10449     -31.67059     -11.30085     -10.56417
     6  O(17)              0.01652      -5.00801      -1.78698      -1.67049
     7  O(17)              0.04387     -13.29604      -4.74436      -4.43508
     8  H(1)              -0.00185      -4.12377      -1.47146      -1.37554
 --------------------------------------------------------
       Center         ----  Spin Dipole Couplings  ----
                      3XX-RR        3YY-RR        3ZZ-RR
 --------------------------------------------------------
     1   Atom        0.378223     -0.206652     -0.171572
     2   Atom       -0.733071     -0.126282      0.859353
     3   Atom        0.594123     -0.280081     -0.314042
     4   Atom        0.214713     -0.105423     -0.109289
     5   Atom       -1.532725     -1.445763      2.978488
     6   Atom        0.516173     -0.253892     -0.262281
     7   Atom        1.740638     -0.943230     -0.797408
     8   Atom       -0.003096      0.017767     -0.014671
 --------------------------------------------------------
                        XY            XZ            YZ
 --------------------------------------------------------
     1   Atom       -0.004702     -0.092389     -0.002158
     2   Atom        0.009576      0.308977     -0.161244
[...]
 Atom     5 has atomic number  8 and mass  15.99491
 Atom     6 has atomic number  8 and mass  15.99491
 Atom     7 has atomic number  8 and mass  15.99491
 Atom     8 has atomic number  1 and mass   1.00783
 Molecular mass:    93.99022 amu.
 Principal axes and moments of inertia in atomic units:
                           1         2         3
     Eigenvalues --   296.04982 956.020821197.58663
           X            0.99991  -0.01335  -0.00163
           Y            0.01335   0.99991  -0.00050
           Z            0.00164   0.00048   1.00000
 This molecule is an asymmetric top.
 Rotational symmetry number  1.
 Rotational temperatures (Kelvin)      0.29256     0.09060     0.07232
 Rotational constants (GHZ):           6.09607     1.88776     1.50698
    1 imaginary frequencies ignored.
 Zero-point vibrational energy      93877.0 (Joules/Mol)
                                   22.43715 (Kcal/Mol)
 Warning -- explicit consideration of   8 degrees of freedom as
           vibrations may cause significant error
 Vibrational temperatures:     86.30   107.55   151.64   282.67   489.28
          (Kelvin)            552.17   623.02   710.43  1028.33  1251.22
                             1477.78  1594.41  1672.22  2074.77  2130.34
                             2864.71  5484.75
 
 Zero-point correction=                           0.035756 (Hartree/Particle)
 Thermal correction to Energy=                    0.042939
 Thermal correction to Enthalpy=                  0.043883
 Thermal correction to Gibbs Free Energy=         0.002327
 Sum of electronic and zero-point Energies=           -415.052157
 Sum of electronic and thermal Energies=              -415.044974
 Sum of electronic and thermal Enthalpies=            -415.044029
 Sum of electronic and thermal Free Energies=         -415.085586
 
                     E (Thermal)             CV                S
                      KCal/Mol        Cal/Mol-Kelvin    Cal/Mol-Kelvin
 Total                   26.945             21.833             87.462
 Electronic               0.000              0.000              2.183
 Translational            0.889              2.981             39.533
 Rotational               0.889              2.981             27.319
 Vibrational             25.167             15.872             18.427
 Vibration     1          0.597              1.973              4.458
 Vibration     2          0.599              1.966              4.024
 Vibration     3          0.605              1.945              3.352
 Vibration     4          0.636              1.845              2.166
 Vibration     5          0.720              1.595              1.212
 Vibration     6          0.753              1.505              1.024
 Vibration     7          0.794              1.398              0.849
 Vibration     8          0.849              1.264              0.674
                       Q            Log10(Q)             Ln(Q)
 Total Bot       0.850503D-01         -1.070324         -2.464512
 Total V=0       0.237795D+16         15.376202         35.405013
 Vib (Bot)       0.379804D-14        -14.420441        -33.204291
 Vib (Bot)    1  0.344286D+01          0.536920          1.236303
 Vib (Bot)    2  0.275734D+01          0.440490          1.014265
 Vib (Bot)    3  0.194515D+01          0.288953          0.665339
 Vib (Bot)    4  0.101627D+01          0.007008          0.016137
 Vib (Bot)    5  0.545995D+00         -0.262811         -0.605145
 Vib (Bot)    6  0.469868D+00         -0.328024         -0.755304
 Vib (Bot)    7  0.401428D+00         -0.396392         -0.912727
 Vib (Bot)    8  0.334688D+00         -0.475359         -1.094555
 Vib (V=0)       0.106190D+03          2.026085          4.665234
 Vib (V=0)    1  0.397898D+01          0.599772          1.381025
 Vib (V=0)    2  0.330230D+01          0.518817          1.194620
 Vib (V=0)    3  0.250838D+01          0.399394          0.919639
 Vib (V=0)    4  0.163261D+01          0.212882          0.490179
 Vib (V=0)    5  0.124035D+01          0.093543          0.215390
 Vib (V=0)    6  0.118613D+01          0.074133          0.170697
 Vib (V=0)    7  0.114121D+01          0.057364          0.132085
 Vib (V=0)    8  0.110168D+01          0.042055          0.096834
 Electronic      0.300000D+01          0.477121          1.098612
 Translational   0.358162D+08          7.554079         17.393910
 Rotational      0.208409D+06          5.318916         12.247257
 ***** Axes restored to original set *****
 -------------------------------------------------------------------
 Center     Atomic                   Forces (Hartrees/Bohr)
 Number     Number              X              Y              Z
 -------------------------------------------------------------------
      1        6           0.000001797    0.000000857   -0.000014527
      2        8           0.000000073   -0.000002904    0.000029951
      3        8           0.000003834    0.000009506   -0.000047544
      4        1           0.000006347   -0.000006302   -0.000044097
      5        8          -0.000001442    0.000000372    0.000046533
      6        8           0.000004079    0.000016840    0.000011652
      7        8          -0.000010999   -0.000014655   -0.000016663
      8        1          -0.000003688   -0.000003714    0.000034695
 -------------------------------------------------------------------
 Cartesian Forces:  Max     0.000047544 RMS     0.000020370

 GradGradGradGradGradGradGradGradGradGradGradGradGradGradGradGradGradGrad
 Berny optimization.
 Internal  Forces:  Max     0.000011505 RMS     0.000003973
 Search for a saddle point.
 Step number   1 out of a maximum of    2
 All quantities printed in internal units (Hartrees-Bohrs-Radians)
 Swaping is turned off.
 Second derivative matrix not updated -- analytic derivatives used.
 The second derivative matrix:
                          R1        R2        R3        R4        R5
           R1           0.19945
           R2           0.09822   1.06242
           R3           0.00501   0.02067   0.05322
           R4           0.08774  -0.01109   0.00037   0.43000
           R5          -0.00124  -0.01486   0.13057  -0.00054   0.06929
           R6           0.01061   0.01982  -0.02852   0.00664   0.06555
           R7          -0.00131  -0.00242   0.00298  -0.00076  -0.00539
           A1           0.04527   0.02934  -0.01318  -0.02696   0.00997
           A2          -0.00818  -0.02597   0.00921   0.01576  -0.00489
           A3          -0.03709  -0.00336   0.00397   0.01120  -0.00507
           A4           0.05268  -0.01904   0.00614   0.05145  -0.00563
           A5          -0.00314   0.00421   0.00485  -0.00036   0.00298
           A6           0.00026  -0.00055   0.00035   0.00044   0.00038
           A7          -0.00051  -0.00739   0.00573  -0.00102  -0.01359
           D1           0.00116  -0.00090  -0.00021  -0.00093  -0.00060
           D2          -0.00020   0.00069  -0.00009  -0.00061   0.00029
           D3           0.00137  -0.00093  -0.00003  -0.00075  -0.00106
           D4           0.00020   0.00084   0.00004  -0.00053  -0.00008
           D5           0.00164   0.00022  -0.00034  -0.00097  -0.00074
           D6           0.00117  -0.00195  -0.00185   0.00121   0.00254
                          R6        R7        A1        A2        A3
           R6           0.36929
           R7           0.00760   0.52082
           A1          -0.01543   0.00210   0.14908
           A2           0.00560  -0.00062  -0.08089   0.07892
           A3           0.00984  -0.00148  -0.06819   0.00197   0.06622
           A4           0.01188  -0.00098  -0.00051   0.00665  -0.00614
           A5          -0.00055   0.00011  -0.00252  -0.00207   0.00459
           A6           0.07755  -0.00437   0.00039  -0.00096   0.00058
           A7           0.06116  -0.00096   0.00388  -0.00191  -0.00196
           D1          -0.00006  -0.00006  -0.00012  -0.00009   0.00013
           D2           0.00040  -0.00013  -0.00063   0.00052   0.00018
           D3          -0.00014   0.00038   0.00023  -0.00097   0.00065
           D4           0.00026   0.00031   0.00035  -0.00057   0.00029
           D5          -0.00021   0.00070   0.00035  -0.00148   0.00112
           D6           0.00062   0.00139   0.00061  -0.00393   0.00332
                          A4        A5        A6        A7        D1
           A4           0.34920
           A5          -0.00469   0.03009
           A6           0.00152  -0.00064   0.24072
           A7          -0.00530   0.00458   0.00931   0.18490
           D1           0.00015  -0.00037  -0.00030  -0.00149   0.01601
           D2          -0.00041   0.00054   0.00017   0.00235  -0.00559
           D3           0.00107  -0.00194  -0.00036  -0.00355   0.01196
           D4           0.00051  -0.00101   0.00013   0.00050  -0.01074
           D5           0.00206  -0.00380  -0.00029  -0.00377   0.00079
           D6           0.00144   0.00210   0.00702   0.00801  -0.00004
                          D2        D3        D4        D5        D6
           D2           0.01398
           D3          -0.01178   0.01516
           D4           0.00879  -0.00979   0.01073
           D5          -0.00214   0.00469   0.00161   0.00736
           D6          -0.00001   0.00077   0.00078   0.00246   0.02143
 ITU=  0
     Eigenvalues ---   -0.08494   0.00029   0.00715   0.01015   0.02087
     Eigenvalues ---    0.02981   0.04381   0.06317   0.12782   0.16117
     Eigenvalues ---    0.19515   0.21372   0.25174   0.32845   0.42785
     Eigenvalues ---    0.49378   0.52126   1.07705
 Eigenvectors required to have negative eigenvalues:
                          R3        R5        R6        A7        A1
   1                    0.69865  -0.68117   0.16655  -0.08950   0.06831
                          A6        A2        D6        A3        R1
   1                   -0.03811  -0.03711   0.03647  -0.03118  -0.02728
 Angle between quadratic step and forces=  81.98 degrees.
 Linear search not attempted -- option 19 set.
 Iteration  1 RMS(Cart)=  0.00053351 RMS(Int)=  0.00000124
 Iteration  2 RMS(Cart)=  0.00000095 RMS(Int)=  0.00000000
 Variable       Old X    -DE/DX   Delta X   Delta X   Delta X     New X
                                 (Linear)    (Quad)   (Total)
    R1        2.67380   0.00000   0.00000   0.00002   0.00002   2.67382
    R2        2.19544   0.00000   0.00000   0.00000   0.00000   2.19544
    R3        2.60381   0.00000   0.00000  -0.00010  -0.00010   2.60372
    R4        2.47133   0.00000   0.00000   0.00000   0.00000   2.47132
    R5        2.16491  -0.00001   0.00000   0.00003   0.00003   2.16495
    R6        2.59402   0.00000   0.00000  -0.00001  -0.00001   2.59401
    R7        1.82619   0.00000   0.00000   0.00001   0.00001   1.82620
    A1        2.21104   0.00000   0.00000   0.00000   0.00000   2.21104
    A2        1.79879   0.00000   0.00000  -0.00006  -0.00006   1.79873
    A3        2.27335   0.00000   0.00000   0.00006   0.00006   2.27341
    A4        1.97407   0.00001   0.00000   0.00001   0.00001   1.97408
    A5        2.93527  -0.00001   0.00000  -0.00017  -0.00017   2.93510
    A6        1.81013   0.00000   0.00000   0.00000   0.00000   1.81013
    A7        1.82955   0.00000   0.00000   0.00003   0.00003   1.82958
    D1       -0.01140   0.00000   0.00000  -0.00012  -0.00012  -0.01151
    D2        3.12650   0.00000   0.00000  -0.00028  -0.00028   3.12622
    D3       -0.09693   0.00000   0.00000  -0.00394  -0.00394  -0.10087
    D4        3.04078   0.00000   0.00000  -0.00411  -0.00411   3.03667
    D5       -0.82024   0.00000   0.00000   0.00372   0.00372  -0.81652
    D6        1.73127   0.00000   0.00000  -0.00034  -0.00034   1.73093
         Item               Value     Threshold  Converged?
 Maximum Force            0.000012     0.000450     YES
 RMS     Force            0.000004     0.000300     YES
 Maximum Displacement     0.001032     0.001800     YES
 RMS     Displacement     0.000533     0.001200     YES
 Predicted change in Energy=-8.455491D-09
 Optimization completed.
    -- Stationary point found.
                           ----------------------------
                           !   Optimized Parameters   !
                           ! (Angstroms and Degrees)  !
 --------------------------                            --------------------------
 ! Name  Definition              Value          Derivative Info.                !
 --------------------------------------------------------------------------------
 ! R1    R(1,2)                  1.4149         -DE/DX =    0.0                 !
 ! R2    R(1,3)                  1.1618         -DE/DX =    0.0                 !
 ! R3    R(1,4)                  1.3779         -DE/DX =    0.0                 !
 ! R4    R(2,5)                  1.3078         -DE/DX =    0.0                 !
 ! R5    R(4,7)                  1.1456         -DE/DX =    0.0                 !
 ! R6    R(6,7)                  1.3727         -DE/DX =    0.0                 !
 ! R7    R(6,8)                  0.9664         -DE/DX =    0.0                 !
 ! A1    A(2,1,3)              126.6833         -DE/DX =    0.0                 !
 ! A2    A(2,1,4)              103.0629         -DE/DX =    0.0                 !
 ! A3    A(3,1,4)              130.2534         -DE/DX =    0.0                 !
 ! A4    A(1,2,5)              113.1059         -DE/DX =    0.0                 !
 ! A5    A(1,4,7)              168.1787         -DE/DX =    0.0                 !
 ! A6    A(7,6,8)              103.7129         -DE/DX =    0.0                 !
 ! A7    A(4,7,6)              104.8257         -DE/DX =    0.0                 !
 ! D1    D(3,1,2,5)             -0.6531         -DE/DX =    0.0                 !
 ! D2    D(4,1,2,5)            179.1354         -DE/DX =    0.0                 !
 ! D3    D(2,1,4,7)             -5.5537         -DE/DX =    0.0                 !
 ! D4    D(3,1,4,7)            174.224          -DE/DX =    0.0                 !
 ! D5    D(1,4,7,6)            -46.9963         -DE/DX =    0.0                 !
 ! D6    D(8,6,7,4)             99.1946         -DE/DX =    0.0                 !
 --------------------------------------------------------------------------------
 GradGradGradGradGradGradGradGradGradGradGradGradGradGradGradGradGradGrad

 1\1\GINC-COMPUTE-3-046\Freq\UM062X\6-311+G(2df,2p)\C1H2O5(3)\ROOT\03-A
 ug-2017\0\\#N Geom=AllCheck Guess=TCheck SCRF=Check GenChk UM062X/6-31
 1+G(2df,2p) Freq\\[O]O+[O]OC=O_OO+[O]O[C]=O\\0,3\C,-0.527131,0.619699,
 -0.028763\O,-0.835064,-0.75286,-0.181214\O,-1.272684,1.474492,0.222639
 \H,0.833119,0.659564,-0.244819\O,-2.102008,-1.018339,0.004886\O,2.2749
 25,-0.540483,0.449889\O,1.945036,0.45768,-0.4328\H,2.24803,-1.341671,-
 0.089799\\Version=EM64L-G09RevB.01\State=3-A\HF=-415.0879125\S2=2.0151
 17\S2-1=0.\S2A=2.000117\RMSD=4.401e-10\RMSF=2.037e-05\ZeroPoint=0.0357
 559\Thermal=0.0429389\Dipole=0.2686589,-0.6107112,-0.3081811\DipoleDer
 iv=2.6436038,-0.5306229,-0.1170315,0.1251301,1.5109135,0.1779707,-0.44
 90164,0.2847305,0.338719,-0.8169783,-0.2274621,0.0417858,-0.2552508,-0
 .5550572,-0.0491602,0.1206087,-0.0412641,-0.0591401,-1.0855431,0.60096
 19,0.092019,0.2467484,-0.8921642,-0.0959598,0.1962092,-0.2023366,-0.23
 49009,-2.0094633,0.4042985,0.0543255,0.351926,0.0838696,0.0234707,0.33
 33206,-0.0156509,0.125383,0.1164377,0.0408351,-0.0604547,-0.0884392,-0
 .1117655,-0.0263353,-0.0490468,-0.0175043,-0.0566565,-0.5277841,0.0108
 141,0.0527518,1.2467363,-0.4862088,0.1206469,-0.8387316,0.2212803,-0.1
 55778,1.3172626,-0.2935418,-0.0338242,-1.4820564,0.1671759,-0.1340441,
 0.837901,-0.2343457,-0.1706752,0.3624646,-0.0052828,-0.0295717,-0.1447
 944,0.2832368,-0.0165888,-0.1512447,0.0050907,0.2130487\Polar=92.91318
 16,-6.8258047,42.4894886,-2.0185726,-0.3580619,26.0434518\PG=C01 [X(C1
 H2O5)]\NImag=1\\0.61915331,-0.37911820,0.61483399,-0.14208802,0.137103
 37,0.13529433,-0.07464483,0.05667731,0.01733558,0.42212310,0.01006680,
 -0.04796091,-0.00266855,-0.02402239,0.22032844,0.00963366,-0.01076350,
 -0.03302729,-0.07762035,0.03304170,0.03548775,-0.47315579,0.42128221,0
 .13341725,0.02021616,0.03377625,0.00440931,0.46490360,0.42440539,-0.51
 767392,-0.14049472,0.01191961,-0.11310133,-0.02147659,-0.46418120,0.62
 213383,0.13535664,-0.14037991,-0.07992179,0.00044333,-0.02513778,0.010
 30411,-0.14294985,0.16659094,0.06458328,0.12314478,-0.01137945,-0.0299
 4103,-0.01811066,0.00173215,0.00481645,-0.03210418,0.01539424,0.009558
 97,-0.13227223,-0.02708483,-0.01815289,0.00974054,-0.01420494,-0.00741
 225,0.00026851,0.02039696,-0.00362748,-0.00605964,0.01521702,0.0657248
 4,-0.02586393,0.00673885,-0.03223963,0.00168398,-0.00224092,0.00526590
 ,0.00901453,-0.00465290,0.00919028,0.02166321,-0.02084104,0.04424326,-
 0.04832357,-0.09096755,-0.00576437,-0.35665023,-0.01946054,0.06123468,
 0.00661097,0.01819741,0.00120561,-0.00002916,-0.00160254,0.00027563,0.
 39817593,-0.05865824,-0.03133720,0.00455410,-0.02818835,-0.05402400,-0
 .00193912,-0.00410872,0.00879339,0.00258510,-0.00474102,-0.00301313,-0
 .00001826,0.09338328,0.07994457,0.00002216,0.01032698,0.00550354,0.059
 35653,-0.00335980,-0.01725579,-0.00225530,-0.00122042,-0.00288802,-0.0
 0040268,-0.00047496,0.00193504,-0.05709148,-0.00535247,0.01316881,0.00
 860056,-0.00209890,-0.00211815,-0.00191125,-0.00094883,-0.00050088,-0.
 00287527,0.00173187,0.00071453,-0.01287366,0.02346941,-0.02251513,-0.0
 0050169,-0.00001719,0.00001949,0.06281047,-0.05268472,-0.00321857,0.00
 848163,0.00734901,0.00222707,-0.00141915,0.01792401,-0.00558403,-0.003
 63261,0.07330565,-0.02196620,0.00253429,0.00436271,0.00488170,0.000038
 78,-0.05714267,0.53954527,0.03923624,0.00135364,-0.00663552,-0.0048094
 2,-0.00081680,0.00086982,-0.01314184,0.00454767,0.00274858,-0.05800565
 ,0.00829911,0.00621304,-0.00357183,-0.00329170,0.00005202,0.07714634,0
 .11380375,0.37037508,-0.15542346,0.00159398,0.02740044,0.00789964,-0.0
 0097940,-0.00179620,0.01635417,-0.00623763,-0.00384493,0.07378604,-0.0
 1997017,0.01545214,0.00130836,0.00298789,0.00036810,-0.04327810,0.0257
 4219,-0.01058119,0.10152973,0.07685369,0.00272782,-0.01562633,-0.00884
 346,0.00037434,0.00214927,-0.02271409,0.00849511,0.00551011,-0.0821983
 0,-0.01074025,0.01778397,-0.00344422,-0.00481943,0.00002939,0.04164603
 ,-0.17800349,0.08666188,-0.01284927,0.22077734,-0.02026731,-0.00414602
 ,0.01178305,0.00444036,0.00124694,-0.00151312,0.01312411,-0.00389900,-
 0.00441701,0.05626463,0.00709466,-0.03459108,0.00402543,0.00392371,-0.
 00051510,-0.03481819,0.14029257,-0.15210681,-0.02491543,-0.14374302,0.
 16970197,0.00064900,0.00401060,0.00175831,0.00107807,-0.00016403,-0.00
 017667,0.00005034,-0.00122969,-0.00048431,-0.00154092,0.00377910,0.000
 28957,-0.00059061,-0.00065766,-0.00001682,-0.00997107,-0.01885618,-0.0
 2627264,-0.00217639,0.01154962,0.00214639,0.01250157,0.00622011,0.0007
 8168,-0.00109004,-0.00068680,-0.00043135,0.00013887,-0.00237542,0.0005
 6443,0.00052379,-0.00733029,-0.00081263,0.00069601,-0.00046855,-0.0004
 2590,0.00001251,-0.00663972,-0.33788176,-0.21055756,0.00971241,-0.0388
 1145,-0.00076983,0.00156824,0.37701700,0.00397055,-0.00023341,-0.00075
 669,-0.00083001,-0.00006478,-0.00013139,-0.00161820,0.00060501,0.00040
 057,-0.00395389,0.00197282,-0.00001681,-0.00031367,-0.00046136,-0.0000
 0050,-0.01792801,-0.26009926,-0.22151620,-0.00208293,0.04723474,0.0116
 5810,0.02275618,0.21104624,0.21036292\\-0.00000180,-0.00000086,0.00001
 453,-0.00000007,0.00000290,-0.00002995,-0.00000383,-0.00000951,0.00004
 754,-0.00000635,0.00000630,0.00004410,0.00000144,-0.00000037,-0.000046
 53,-0.00000408,-0.00001684,-0.00001165,0.00001100,0.00001465,0.0000166
 6,0.00000369,0.00000371,-0.00003469\\\@


 IF IT'S NOT TRUE, IT'S WELL INVENTED -- DANTE
 Job cpu time:  0 days  1 hours  4 minutes  0.2 seconds.
 File lengths (MBytes):  RWF=   2416 Int=      0 D2E=      0 Chk=     32 Scr=     32
 Normal termination of Gaussian 09 at Thu Aug  3 16:53:54 2017.
