 Entering Gaussian System, Link 0=/shared/apps/gaussian/G09_LINUX_LINDA/g09/g09
 Input=/gss_gpfs_scratch/harms.n/QMscratch/[O]O+[O]OC=O_OO+[O]O[C]=ORxnC.gjf
 Output=/gss_gpfs_scratch/harms.n/QMscratch/[O]O+[O]OC=O_OO+[O]O[C]=ORxnC.log
 Initial command:
 /shared/apps/gaussian/G09_LINUX_LINDA/g09/l1.exe /gss_gpfs_scratch/harms.n/comparerTST/Gau-16577.inp -scrdir=/gss_gpfs_scratch/harms.n/comparerTST/
 Entering Link 1 = /shared/apps/gaussian/G09_LINUX_LINDA/g09/l1.exe PID=     16578.
  
 Copyright (c) 1988,1990,1992,1993,1995,1998,2003,2009,2010,
            Gaussian, Inc.  All Rights Reserved.
  
 This is part of the Gaussian(R) 09 program.  It is based on
 the Gaussian(R) 03 system (copyright 2003, Gaussian, Inc.),
 the Gaussian(R) 98 system (copyright 1998, Gaussian, Inc.),
 the Gaussian(R) 94 system (copyright 1995, Gaussian, Inc.),
 the Gaussian 92(TM) system (copyright 1992, Gaussian, Inc.),
 the Gaussian 90(TM) system (copyright 1990, Gaussian, Inc.),
 the Gaussian 88(TM) system (copyright 1988, Gaussian, Inc.),
 the Gaussian 86(TM) system (copyright 1986, Carnegie Mellon
 University), and the Gaussian 82(TM) system (copyright 1983,
 Carnegie Mellon University). Gaussian is a federally registered
 trademark of Gaussian, Inc.
  
 This software contains proprietary and confidential information,
 including trade secrets, belonging to Gaussian, Inc.
  
 This software is provided under written license and may be
 used, copied, transmitted, or stored only in accord with that
 written license.
  
 The following legend is applicable only to US Government
 contracts under FAR:
  
                    RESTRICTED RIGHTS LEGEND
  
 Use, reproduction and disclosure by the US Government is
 subject to restrictions as set forth in subparagraphs (a)
 and (c) of the Commercial Computer Software - Restricted
 Rights clause in FAR 52.227-19.
  
 Gaussian, Inc.
 340 Quinnipiac St., Bldg. 40, Wallingford CT 06492
  
  
 ---------------------------------------------------------------
 Warning -- This program may not be used in any manner that
 competes with the business of Gaussian, Inc. or will provide
 assistance to any competitor of Gaussian, Inc.  The licensee
 of this program is prohibited from giving any competitor of
 Gaussian, Inc. access to this program.  By using this program,
 the user acknowledges that Gaussian, Inc. is engaged in the
 business of creating and licensing software in the field of
 computational chemistry and represents and warrants to the
 licensee that it is not a competitor of Gaussian, Inc. and that
 it will not use this program in any manner prohibited above.
 ---------------------------------------------------------------
  

 Cite this work as:
 Gaussian 09, Revision B.01,
 M. J. Frisch, G. W. Trucks, H. B. Schlegel, G. E. Scuseria, 
 M. A. Robb, J. R. Cheeseman, G. Scalmani, V. Barone, B. Mennucci, 
 G. A. Petersson, H. Nakatsuji, M. Caricato, X. Li, H. P. Hratchian, 
 A. F. Izmaylov, J. Bloino, G. Zheng, J. L. Sonnenberg, M. Hada, 
 M. Ehara, K. Toyota, R. Fukuda, J. Hasegawa, M. Ishida, T. Nakajima, 
 Y. Honda, O. Kitao, H. Nakai, T. Vreven, J. A. Montgomery, Jr., 
 J. E. Peralta, F. Ogliaro, M. Bearpark, J. J. Heyd, E. Brothers, 
 K. N. Kudin, V. N. Staroverov, T. Keith, R. Kobayashi, J. Normand, 
 K. Raghavachari, A. Rendell, J. C. Burant, S. S. Iyengar, J. Tomasi, 
 M. Cossi, N. Rega, J. M. Millam, M. Klene, J. E. Knox, J. B. Cross, 
 V. Bakken, C. Adamo, J. Jaramillo, R. Gomperts, R. E. Stratmann, 
 O. Yazyev, A. J. Austin, R. Cammi, C. Pomelli, J. W. Ochterski, 
 R. L. Martin, K. Morokuma, V. G. Zakrzewski, G. A. Voth, 
 P. Salvador, J. J. Dannenberg, S. Dapprich, A. D. Daniels, 
 O. Farkas, J. B. Foresman, J. V. Ortiz, J. Cioslowski, 
 and D. J. Fox, Gaussian, Inc., Wallingford CT, 2010.
 
 ******************************************
 Gaussian 09:  EM64L-G09RevB.01 12-Aug-2010
                 3-Aug-2017 
 ******************************************
 %nprocshared=20
 Will use up to   20 processors via shared memory.
 %mem=5GB
 ---------------------------------------------------
 # m062x/6-311+g(2df,2p) opt=(ts,calcfc,noeigentest)
 ---------------------------------------------------
 1/5=1,10=4,11=1,14=-1,18=20,26=3,38=1/1,3;
 2/9=110,12=2,17=6,18=5,40=1/2;
 3/5=4,6=6,7=214,11=2,16=1,25=1,30=1,71=2,74=-55/1,2,3;
 4//1;
 5/5=2,38=5/2;
 8/6=4,10=90,11=11/1;
 11/6=1,8=1,9=11,15=111,16=1/1,2,10;
 10/6=1,7=6,13=1/2;
 6/7=2,8=2,9=2,10=2,28=1/1;
 7/10=1,18=20,25=1/1,2,3,16;
 1/5=1,10=4,11=1,14=-1,18=20/3(2);
 2/9=110/2;
 99//99;
 2/9=110/2;
 3/5=4,6=6,7=214,11=2,16=1,25=1,30=1,71=1,74=-55/1,2,3;
 4/5=5,16=3/1;
 5/5=2,38=5/2;
 7//1,2,3,16;
 1/5=1,11=1,14=-1,18=20/3(-5);
 2/9=110/2;
 6/7=2,8=2,9=2,10=2,19=2,28=1/1;
 99/9=1/99;
 -------------------------
 [O]O+[O]OC=O_OO+[O]O[C]=O
 -------------------------
 Symbolic Z-matrix:
 Charge =  0 Multiplicity = 3
 C                    -0.54755   0.64663  -0.02988 
 O                    -0.78746  -0.73918  -0.2054 
 O                    -1.34565   1.45131   0.23086 
 H                     0.80947   0.75758  -0.23434 
 O                    -2.03256  -1.07275   0.0109 
 O                     2.26335  -0.49364   0.4741 
 O                     1.94171   0.44153  -0.45983 
 H                     2.16071  -1.33544   0.00861 
 

 GradGradGradGradGradGradGradGradGradGradGradGradGradGradGradGradGradGrad
 Berny optimization.
 Initialization pass.
                           ----------------------------
                           !    Initial Parameters    !
                           ! (Angstroms and Degrees)  !
 --------------------------                            --------------------------
 ! Name  Definition              Value          Derivative Info.                !
 --------------------------------------------------------------------------------
 ! R1    R(1,2)                  1.4173         calculate D2E/DX2 analytically  !
 ! R2    R(1,3)                  1.163          calculate D2E/DX2 analytically  !
 ! R3    R(1,4)                  1.3768         calculate D2E/DX2 analytically  !
 ! R4    R(2,5)                  1.307          calculate D2E/DX2 analytically  !
 ! R5    R(4,7)                  1.197          calculate D2E/DX2 analytically  !
 ! R6    R(6,7)                  1.3602         calculate D2E/DX2 analytically  !
 ! R7    R(6,8)                  0.9674         calculate D2E/DX2 analytically  !
 ! A1    A(2,1,3)              126.0252         calculate D2E/DX2 analytically  !
 ! A2    A(2,1,4)              103.1345         calculate D2E/DX2 analytically  !
 ! A3    A(3,1,4)              130.8393         calculate D2E/DX2 analytically  !
 ! A4    A(1,2,5)              112.9727         calculate D2E/DX2 analytically  !
 ! A5    A(1,4,7)              159.8896         calculate D2E/DX2 analytically  !
 ! A6    A(7,6,8)              104.0511         calculate D2E/DX2 analytically  !
 ! A7    A(4,7,6)              106.0131         calculate D2E/DX2 analytically  !
 ! D1    D(3,1,2,5)             -2.6636         calculate D2E/DX2 analytically  !
 ! D2    D(4,1,2,5)            176.9976         calculate D2E/DX2 analytically  !
 ! D3    D(2,1,4,7)             -1.1428         calculate D2E/DX2 analytically  !
 ! D4    D(3,1,4,7)            178.495          calculate D2E/DX2 analytically  !
 ! D5    D(1,4,7,6)            -56.3042         calculate D2E/DX2 analytically  !
 ! D6    D(8,6,7,4)             99.4492         calculate D2E/DX2 analytically  !
 --------------------------------------------------------------------------------
 Trust Radius=3.00D-01 FncErr=1.00D-07 GrdErr=1.00D-06
 Number of steps in this run=     30 maximum allowed number of steps=    100.
 Search for a saddle point of order  1.
 GradGradGradGradGradGradGradGradGradGradGradGradGradGradGradGradGradGrad

                          Input orientation:                          
 ---------------------------------------------------------------------
 Center     Atomic      Atomic             Coordinates (Angstroms)
 Number     Number       Type             X           Y           Z
 ---------------------------------------------------------------------
      1          6           0       -0.547548    0.646627   -0.029877
      2          8           0       -0.787457   -0.739177   -0.205399
      3          8           0       -1.345651    1.451310    0.230858
      4          1           0        0.809466    0.757578   -0.234339
      5          8           0       -2.032562   -1.072752    0.010900
      6          8           0        2.263346   -0.493643    0.474098
      7          8           0        1.941714    0.441525   -0.459832
      8          1           0        2.160711   -1.335443    0.008606
 ---------------------------------------------------------------------
                    Distance matrix (angstroms):
                    1          2          3          4          5
     1  C    0.000000
     2  O    1.417327   0.000000
     3  O    1.162956   2.302202   0.000000
     4  H    1.376809   2.188898   2.311320   0.000000
     5  O    2.272266   1.307036   2.625094   3.389303   0.000000
     6  O    3.074952   3.135188   4.106929   2.044799   4.359443
     7  O    2.534434   2.984488   3.507633   1.196964   4.278959
     8  H    3.356300   3.015464   4.484413   2.503122   4.201494
                    6          7          8
     6  O    0.000000
     7  O    1.360225   0.000000
     8  H    0.967390   1.850678   0.000000
 Stoichiometry    CH2O5(3)
 Framework group  C1[X(CH2O5)]
 Deg. of freedom    18
 Full point group                 C1      NOp   1
 Largest Abelian subgroup         C1      NOp   1
 Largest concise Abelian subgroup C1      NOp   1
                         Standard orientation:                         
 ---------------------------------------------------------------------
 Center     Atomic      Atomic             Coordinates (Angstroms)
 Number     Number       Type             X           Y           Z
 ---------------------------------------------------------------------
      1          6           0       -0.547548    0.646627   -0.029877
      2          8           0       -0.787457   -0.739177   -0.205399
      3          8           0       -1.345651    1.451310    0.230858
      4          1           0        0.809466    0.757578   -0.234339
      5          8           0       -2.032562   -1.072752    0.010900
      6          8           0        2.263346   -0.493643    0.474098
      7          8           0        1.941714    0.441525   -0.459832
      8          1           0        2.160711   -1.335443    0.008606
 ---------------------------------------------------------------------
 Rotational constants (GHZ):      6.0318349      1.9094337      1.5253620
 Standard basis: 6-311+G(2df,2p) (5D, 7F)
 There are   222 symmetry adapted basis functions of A   symmetry.
 Integral buffers will be    131072 words long.
 Raffenetti 2 integral format.
 Two-electron integral symmetry is turned on.
   222 basis functions,   334 primitive gaussians,   252 cartesian basis functions
    25 alpha electrons       23 beta electrons
       nuclear repulsion energy       227.4858902104 Hartrees.
 NAtoms=    8 NActive=    8 NUniq=    8 SFac= 1.00D+00 NAtFMM=   50 NAOKFM=F Big=F
 One-electron integrals computed using PRISM.
 NBasis=   222 RedAO= T  NBF=   222
 NBsUse=   222 1.00D-06 NBFU=   222
 Harris functional with IExCor= 1009 diagonalized for initial guess.
 ExpMin= 4.38D-02 ExpMax= 8.59D+03 ExpMxC= 1.30D+03 IAcc=2 IRadAn=         0 AccDes= 0.00D+00
 HarFok:  IExCor= 1009 AccDes= 0.00D+00 IRadAn=         0 IDoV= 1
 ScaDFX=  1.000000  1.000000  1.000000  1.000000
 FoFCou: FMM=F IPFlag=           0 FMFlag=      100000 FMFlg1=           0
         NFxFlg=           0 DoJE=T BraDBF=F KetDBF=T FulRan=T
         Omega=  0.000000  0.000000  1.000000  0.000000  0.000000 ICntrl=     500 IOpCl=  0
         NMat0=    1 NMatS0=    1 NMatT0=    0 NMatD0=    1 NMtDS0=    0 NMtDT0=    0
         I1Cent=           4 NGrid=           0.
 Petite list used in FoFCou.
 Initial guess orbital symmetries:
 Alpha Orbitals:
       Occupied  (A) (A) (A) (A) (A) (A) (A) (A) (A) (A) (A) (A)
                 (A) (A) (A) (A) (A) (A) (A) (A) (A) (A) (A) (A)
                 (A)
       Virtual   (A) (A) (A) (A) (A) (A) (A) (A) (A) (A) (A) (A)
                 (A) (A) (A) (A) (A) (A) (A) (A) (A) (A) (A) (A)
                 (A) (A) (A) (A) (A) (A) (A) (A) (A) (A) (A) (A)
                 (A) (A) (A) (A) (A) (A) (A) (A) (A) (A) (A) (A)
                 (A) (A) (A) (A) (A) (A) (A) (A) (A) (A) (A) (A)
                 (A) (A) (A) (A) (A) (A) (A) (A) (A) (A) (A) (A)
                 (A) (A) (A) (A) (A) (A) (A) (A) (A) (A) (A) (A)
                 (A) (A) (A) (A) (A) (A) (A) (A) (A) (A) (A) (A)
                 (A) (A) (A) (A) (A) (A) (A) (A) (A) (A) (A) (A)
                 (A) (A) (A) (A) (A) (A) (A) (A) (A) (A) (A) (A)
                 (A) (A) (A) (A) (A) (A) (A) (A) (A) (A) (A) (A)
                 (A) (A) (A) (A) (A) (A) (A) (A) (A) (A) (A) (A)
                 (A) (A) (A) (A) (A) (A) (A) (A) (A) (A) (A) (A)
                 (A) (A) (A) (A) (A) (A) (A) (A) (A) (A) (A) (A)
                 (A) (A) (A) (A) (A) (A) (A) (A) (A) (A) (A) (A)
                 (A) (A) (A) (A) (A) (A) (A) (A) (A) (A) (A) (A)
                 (A) (A) (A) (A) (A)
 Beta  Orbitals:
       Occupied  (A) (A) (A) (A) (A) (A) (A) (A) (A) (A) (A) (A)
                 (A) (A) (A) (A) (A) (A) (A) (A) (A) (A) (A)
       Virtual   (A) (A) (A) (A) (A) (A) (A) (A) (A) (A) (A) (A)
                 (A) (A) (A) (A) (A) (A) (A) (A) (A) (A) (A) (A)
                 (A) (A) (A) (A) (A) (A) (A) (A) (A) (A) (A) (A)
                 (A) (A) (A) (A) (A) (A) (A) (A) (A) (A) (A) (A)
                 (A) (A) (A) (A) (A) (A) (A) (A) (A) (A) (A) (A)
                 (A) (A) (A) (A) (A) (A) (A) (A) (A) (A) (A) (A)
                 (A) (A) (A) (A) (A) (A) (A) (A) (A) (A) (A) (A)
                 (A) (A) (A) (A) (A) (A) (A) (A) (A) (A) (A) (A)
                 (A) (A) (A) (A) (A) (A) (A) (A) (A) (A) (A) (A)
                 (A) (A) (A) (A) (A) (A) (A) (A) (A) (A) (A) (A)
                 (A) (A) (A) (A) (A) (A) (A) (A) (A) (A) (A) (A)
                 (A) (A) (A) (A) (A) (A) (A) (A) (A) (A) (A) (A)
                 (A) (A) (A) (A) (A) (A) (A) (A) (A) (A) (A) (A)
                 (A) (A) (A) (A) (A) (A) (A) (A) (A) (A) (A) (A)
                 (A) (A) (A) (A) (A) (A) (A) (A) (A) (A) (A) (A)
                 (A) (A) (A) (A) (A) (A) (A) (A) (A) (A) (A) (A)
                 (A) (A) (A) (A) (A) (A) (A)
 The electronic state of the initial guess is 3-A.
 Initial guess <Sx>= 0.0000 <Sy>= 0.0000 <Sz>= 1.0000 <S**2>= 2.0000 S= 1.0000
 Requested convergence on RMS density matrix=1.00D-08 within 128 cycles.
 Requested convergence on MAX density matrix=1.00D-06.
 Requested convergence on             energy=1.00D-06.
 No special actions if energy rises.
 Restarting incremental Fock formation.
 SCF Done:  E(UM062X) =  -415.087540890     A.U. after   22 cycles
             Convg  =    0.3752D-08             -V/T =  2.0027
 <Sx>= 0.0000 <Sy>= 0.0000 <Sz>= 1.0000 <S**2>= 2.0161 S= 1.0054
 <L.S>= 0.000000000000E+00
 Annihilation of the first spin contaminant:
 S**2 before annihilation     2.0161,   after     2.0001
 Range of M.O.s used for correlation:     1   222
 NBasis=   222 NAE=    25 NBE=    23 NFC=     0 NFV=     0
 NROrb=    222 NOA=    25 NOB=    23 NVA=   197 NVB=   199

 **** Warning!!: The largest alpha MO coefficient is  0.17206342D+02


 **** Warning!!: The largest beta MO coefficient is  0.15878084D+02

 Symmetrizing basis deriv contribution to polar:
 IMax=3 JMax=2 DiffMx= 0.00D+00
 G2DrvN: will do     9 centers at a time, making    1 passes doing MaxLOS=3.
 Calling FoFCou, ICntrl=  3107 FMM=F I1Cent=   0 AccDes= 0.00D+00.
 FoFDir/FoFCou used for L=0 through L=3.
 End of G2Drv Frequency-dependent properties file   721 does not exist.
 End of G2Drv Frequency-dependent properties file   722 does not exist.
          IDoAtm=11111111
          Differentiating once with respect to nuclear coordinates.
          There are    27 degrees of freedom in the 1st order CPHF.  IDoFFX=5.
     21 vectors produced by pass  0 Test12= 3.52D-10 3.70D-07 XBig12= 3.31D-01 3.29D-01.
 AX will form    21 AO Fock derivatives at one time.
     21 vectors produced by pass  1 Test12= 3.52D-10 3.70D-07 XBig12= 6.77D-02 6.75D-02.
     21 vectors produced by pass  2 Test12= 3.52D-10 3.70D-07 XBig12= 7.32D-03 3.69D-02.
     21 vectors produced by pass  3 Test12= 3.52D-10 3.70D-07 XBig12= 2.45D-04 4.96D-03.
     21 vectors produced by pass  4 Test12= 3.52D-10 3.70D-07 XBig12= 8.17D-06 7.45D-04.
     21 vectors produced by pass  5 Test12= 3.52D-10 3.70D-07 XBig12= 2.06D-07 5.12D-05.
     14 vectors produced by pass  6 Test12= 3.52D-10 3.70D-07 XBig12= 3.92D-09 8.10D-06.
      3 vectors produced by pass  7 Test12= 3.52D-10 3.70D-07 XBig12= 6.42D-11 9.85D-07.
 Inverted reduced A of dimension   143 with in-core refinement.
 End of Minotr Frequency-dependent properties file   721 does not exist.
 End of Minotr Frequency-dependent properties file   722 does not exist.

 **********************************************************************

            Population analysis using the SCF density.

 **********************************************************************

 Orbital symmetries:
 Alpha Orbitals:
       Occupied  (A) (A) (A) (A) (A) (A) (A) (A) (A) (A) (A) (A)
                 (A) (A) (A) (A) (A) (A) (A) (A) (A) (A) (A) (A)
                 (A)
       Virtual   (A) (A) (A) (A) (A) (A) (A) (A) (A) (A) (A) (A)
                 (A) (A) (A) (A) (A) (A) (A) (A) (A) (A) (A) (A)
                 (A) (A) (A) (A) (A) (A) (A) (A) (A) (A) (A) (A)
                 (A) (A) (A) (A) (A) (A) (A) (A) (A) (A) (A) (A)
                 (A) (A) (A) (A) (A) (A) (A) (A) (A) (A) (A) (A)
                 (A) (A) (A) (A) (A) (A) (A) (A) (A) (A) (A) (A)
                 (A) (A) (A) (A) (A) (A) (A) (A) (A) (A) (A) (A)
                 (A) (A) (A) (A) (A) (A) (A) (A) (A) (A) (A) (A)
                 (A) (A) (A) (A) (A) (A) (A) (A) (A) (A) (A) (A)
                 (A) (A) (A) (A) (A) (A) (A) (A) (A) (A) (A) (A)
                 (A) (A) (A) (A) (A) (A) (A) (A) (A) (A) (A) (A)
                 (A) (A) (A) (A) (A) (A) (A) (A) (A) (A) (A) (A)
                 (A) (A) (A) (A) (A) (A) (A) (A) (A) (A) (A) (A)
                 (A) (A) (A) (A) (A) (A) (A) (A) (A) (A) (A) (A)
                 (A) (A) (A) (A) (A) (A) (A) (A) (A) (A) (A) (A)
                 (A) (A) (A) (A) (A) (A) (A) (A) (A) (A) (A) (A)
                 (A) (A) (A) (A) (A)
 Beta  Orbitals:
       Occupied  (A) (A) (A) (A) (A) (A) (A) (A) (A) (A) (A) (A)
                 (A) (A) (A) (A) (A) (A) (A) (A) (A) (A) (A)
       Virtual   (A) (A) (A) (A) (A) (A) (A) (A) (A) (A) (A) (A)
                 (A) (A) (A) (A) (A) (A) (A) (A) (A) (A) (A) (A)
                 (A) (A) (A) (A) (A) (A) (A) (A) (A) (A) (A) (A)
                 (A) (A) (A) (A) (A) (A) (A) (A) (A) (A) (A) (A)
                 (A) (A) (A) (A) (A) (A) (A) (A) (A) (A) (A) (A)
                 (A) (A) (A) (A) (A) (A) (A) (A) (A) (A) (A) (A)
                 (A) (A) (A) (A) (A) (A) (A) (A) (A) (A) (A) (A)
                 (A) (A) (A) (A) (A) (A) (A) (A) (A) (A) (A) (A)
                 (A) (A) (A) (A) (A) (A) (A) (A) (A) (A) (A) (A)
                 (A) (A) (A) (A) (A) (A) (A) (A) (A) (A) (A) (A)
                 (A) (A) (A) (A) (A) (A) (A) (A) (A) (A) (A) (A)
                 (A) (A) (A) (A) (A) (A) (A) (A) (A) (A) (A) (A)
                 (A) (A) (A) (A) (A) (A) (A) (A) (A) (A) (A) (A)
                 (A) (A) (A) (A) (A) (A) (A) (A) (A) (A) (A) (A)
                 (A) (A) (A) (A) (A) (A) (A) (A) (A) (A) (A) (A)
                 (A) (A) (A) (A) (A) (A) (A) (A) (A) (A) (A) (A)
                 (A) (A) (A) (A) (A) (A) (A)
 The electronic state is 3-A.
 Alpha  occ. eigenvalues --  -19.79981 -19.75558 -19.73832 -19.73672 -19.70652
 Alpha  occ. eigenvalues --  -10.72294  -1.39748  -1.33043  -1.26656  -1.05408
 Alpha  occ. eigenvalues --   -1.02807  -0.75081  -0.69446  -0.65907  -0.65104
 Alpha  occ. eigenvalues --   -0.63886  -0.61598  -0.57581  -0.54025  -0.53922
 Alpha  occ. eigenvalues --   -0.45337  -0.42684  -0.42518  -0.41856  -0.35709
 Alpha virt. eigenvalues --   -0.01049   0.01623   0.02855   0.04872   0.05365
 Alpha virt. eigenvalues --    0.08161   0.10569   0.11676   0.14709   0.16226
 Alpha virt. eigenvalues --    0.17347   0.17877   0.19150   0.20374   0.20609
 Alpha virt. eigenvalues --    0.21163   0.21929   0.22174   0.25173   0.26189
 Alpha virt. eigenvalues --    0.27494   0.27580   0.28847   0.29152   0.30427
 Alpha virt. eigenvalues --    0.32285   0.32709   0.34606   0.39480   0.40163
 Alpha virt. eigenvalues --    0.45594   0.50519   0.54916   0.56722   0.64080
 Alpha virt. eigenvalues --    0.67091   0.70056   0.74891   0.77476   0.79198
 Alpha virt. eigenvalues --    0.80634   0.84556   0.87526   0.93328   0.94257
 Alpha virt. eigenvalues --    0.98067   1.00827   1.02456   1.03931   1.04723
 Alpha virt. eigenvalues --    1.06737   1.07612   1.09677   1.10816   1.13038
 Alpha virt. eigenvalues --    1.13613   1.13973   1.17012   1.19063   1.29639
 Alpha virt. eigenvalues --    1.34170   1.34989   1.40355   1.42649   1.43027
 Alpha virt. eigenvalues --    1.48537   1.49398   1.53244   1.54731   1.56021
 Alpha virt. eigenvalues --    1.56931   1.59525   1.62917   1.65971   1.71674
 Alpha virt. eigenvalues --    1.74769   1.88112   1.92684   1.96899   1.98668
 Alpha virt. eigenvalues --    1.99170   2.08817   2.17713   2.17871   2.21904
 Alpha virt. eigenvalues --    2.23692   2.26385   2.33891   2.43049   2.51474
 Alpha virt. eigenvalues --    2.52193   2.58814   2.60250   2.64593   2.75024
 Alpha virt. eigenvalues --    2.78323   2.95033   2.97538   3.01116   3.11471
 Alpha virt. eigenvalues --    3.18084   3.26336   3.30074   3.36055   3.46043
 Alpha virt. eigenvalues --    3.55264   3.56672   3.57988   3.64091   3.67405
 Alpha virt. eigenvalues --    3.72813   3.79984   3.98545   4.08441   4.11516
 Alpha virt. eigenvalues --    4.23813   4.44244   4.55375   4.57698   4.59924
 Alpha virt. eigenvalues --    4.62246   4.68120   4.70138   4.77212   4.84322
 Alpha virt. eigenvalues --    4.90540   4.95332   4.95779   4.96849   4.99812
 Alpha virt. eigenvalues --    5.00818   5.04931   5.05799   5.06367   5.07266
 Alpha virt. eigenvalues --    5.09787   5.10228   5.12555   5.13243   5.14078
 Alpha virt. eigenvalues --    5.14389   5.18775   5.23278   5.28048   5.30325
 Alpha virt. eigenvalues --    5.31679   5.36735   5.39102   5.42459   5.47968
 Alpha virt. eigenvalues --    5.51105   5.59070   5.65515   5.80166   6.05760
 Alpha virt. eigenvalues --    6.14932   6.24048   6.25502   6.34010   6.42033
 Alpha virt. eigenvalues --    6.42381   6.62396   6.69486   6.72223   6.75198
 Alpha virt. eigenvalues --    6.77757   6.80120   6.81545   6.83760   6.84444
 Alpha virt. eigenvalues --    6.87532   6.92362   6.96030   7.01040   7.01662
 Alpha virt. eigenvalues --    7.04897   7.10463   7.11781   7.20289   7.22897
 Alpha virt. eigenvalues --    7.23656   7.26203   7.37900   7.45218   7.47301
 Alpha virt. eigenvalues --    7.58306   7.65408   7.78652   7.83745   7.85555
 Alpha virt. eigenvalues --    7.91663  24.59252  49.90810  49.93245  49.98548
 Alpha virt. eigenvalues --   49.98930  50.24301
  Beta  occ. eigenvalues --  -19.79273 -19.73971 -19.73508 -19.72689 -19.70259
  Beta  occ. eigenvalues --  -10.71813  -1.36365  -1.31013  -1.25164  -1.00700
  Beta  occ. eigenvalues --   -0.99320  -0.71846  -0.67006  -0.63182  -0.62047
  Beta  occ. eigenvalues --   -0.59222  -0.58473  -0.54464  -0.50553  -0.49568
  Beta  occ. eigenvalues --   -0.41176  -0.40399  -0.36843
  Beta virt. eigenvalues --   -0.14486  -0.11869   0.00946   0.01730   0.03078
  Beta virt. eigenvalues --    0.05137   0.05697   0.08327   0.11225   0.12027
  Beta virt. eigenvalues --    0.14829   0.16198   0.17638   0.18369   0.19704
  Beta virt. eigenvalues --    0.20479   0.21024   0.21784   0.21979   0.23185
  Beta virt. eigenvalues --    0.25647   0.26222   0.27600   0.28240   0.28954
  Beta virt. eigenvalues --    0.29424   0.30490   0.32025   0.33504   0.34845
  Beta virt. eigenvalues --    0.40101   0.40559   0.45712   0.50725   0.55049
  Beta virt. eigenvalues --    0.56850   0.64079   0.67761   0.70961   0.74966
  Beta virt. eigenvalues --    0.77625   0.79565   0.80883   0.84680   0.87725
  Beta virt. eigenvalues --    0.94045   0.95346   0.98186   1.02226   1.04040
  Beta virt. eigenvalues --    1.04510   1.06093   1.07505   1.09264   1.10527
  Beta virt. eigenvalues --    1.11505   1.13769   1.14253   1.14646   1.17573
  Beta virt. eigenvalues --    1.19637   1.30820   1.35231   1.36342   1.41088
  Beta virt. eigenvalues --    1.44038   1.44805   1.49401   1.50446   1.53696
  Beta virt. eigenvalues --    1.55553   1.56671   1.57879   1.60144   1.65306
  Beta virt. eigenvalues --    1.67185   1.72151   1.75177   1.88854   1.93433
  Beta virt. eigenvalues --    1.97669   1.99442   1.99831   2.09773   2.18413
  Beta virt. eigenvalues --    2.19094   2.22409   2.24522   2.26973   2.34284
  Beta virt. eigenvalues --    2.43516   2.51571   2.52246   2.59452   2.60124
  Beta virt. eigenvalues --    2.64062   2.73881   2.77824   2.95899   2.98456
  Beta virt. eigenvalues --    3.02111   3.13037   3.20447   3.27963   3.32260
  Beta virt. eigenvalues --    3.37845   3.47129   3.56226   3.56961   3.59595
  Beta virt. eigenvalues --    3.64251   3.68330   3.72960   3.79410   3.98156
  Beta virt. eigenvalues --    4.08861   4.12187   4.22345   4.47456   4.55855
  Beta virt. eigenvalues --    4.58640   4.60707   4.62133   4.69592   4.70651
  Beta virt. eigenvalues --    4.77343   4.84664   4.91537   4.97980   4.99046
  Beta virt. eigenvalues --    5.00291   5.01278   5.03972   5.06564   5.06891
  Beta virt. eigenvalues --    5.07334   5.09473   5.10469   5.11047   5.13691
  Beta virt. eigenvalues --    5.14525   5.15032   5.15594   5.20094   5.24417
  Beta virt. eigenvalues --    5.28273   5.30865   5.32581   5.37382   5.40479
  Beta virt. eigenvalues --    5.42911   5.48561   5.51768   5.59234   5.66181
  Beta virt. eigenvalues --    5.81025   6.05948   6.15240   6.25245   6.27878
  Beta virt. eigenvalues --    6.34826   6.42638   6.43730   6.71073   6.76184
  Beta virt. eigenvalues --    6.76860   6.79668   6.81597   6.82446   6.83166
  Beta virt. eigenvalues --    6.84406   6.87437   6.88591   6.95282   6.98810
  Beta virt. eigenvalues --    7.02886   7.04647   7.05785   7.12584   7.13518
  Beta virt. eigenvalues --    7.22915   7.23776   7.24903   7.30121   7.39238
  Beta virt. eigenvalues --    7.45154   7.49696   7.58877   7.65261   7.81253
  Beta virt. eigenvalues --    7.83770   7.85569   7.93807  24.59702  49.90418
  Beta virt. eigenvalues --   49.92851  49.98058  49.98464  50.23920
          Condensed to atoms (all electrons):
              1          2          3          4          5          6
     1  C    5.150925   0.085174   0.416554   0.292562  -0.051966   0.028168
     2  O    0.085174   7.794376  -0.051492  -0.042022   0.200544   0.008806
     3  O    0.416554  -0.051492   7.875066  -0.000617   0.003973  -0.000431
     4  H    0.292562  -0.042022  -0.000617   0.367452   0.005528  -0.033307
     5  O   -0.051966   0.200544   0.003973   0.005528   7.907402   0.001143
     6  O    0.028168   0.008806  -0.000431  -0.033307   0.001143   7.757193
     7  O   -0.048977   0.022080  -0.003734   0.105813  -0.000604   0.133631
     8  H   -0.007685   0.003193  -0.000277   0.003981  -0.001923   0.247065
              7          8
     1  C   -0.048977  -0.007685
     2  O    0.022080   0.003193
     3  O   -0.003734  -0.000277
     4  H    0.105813   0.003981
     5  O   -0.000604  -0.001923
     6  O    0.133631   0.247065
     7  O    8.068613  -0.043434
     8  H   -0.043434   0.535481
 Mulliken atomic charges:
              1
     1  C    0.135245
     2  O   -0.020659
     3  O   -0.239042
     4  H    0.300609
     5  O   -0.064096
     6  O   -0.142268
     7  O   -0.233388
     8  H    0.263599
 Sum of Mulliken atomic charges =   0.00000
 Mulliken charges with hydrogens summed into heavy atoms:
              1
     1  C    0.135245
     2  O   -0.020659
     3  O   -0.239042
     5  O   -0.064096
     6  O    0.121331
     7  O    0.067221
 Sum of Mulliken charges with hydrogens summed into heavy atoms =   0.00000
          Atomic-Atomic Spin Densities.
              1          2          3          4          5          6
     1  C    0.496026  -0.069917  -0.077690   0.007803   0.017579   0.039974
     2  O   -0.069917   0.415737  -0.003065   0.005215  -0.157217  -0.009145
     3  O   -0.077690  -0.003065   0.223525  -0.000222   0.010696  -0.001424
     4  H    0.007803   0.005215  -0.000222  -0.101926  -0.000207   0.007864
     5  O    0.017579  -0.157217   0.010696  -0.000207   0.963577   0.002142
     6  O    0.039974  -0.009145  -0.001424   0.007864   0.002142   0.173178
     7  O   -0.086198   0.016252   0.004184   0.021864  -0.004659  -0.079541
     8  H   -0.001141  -0.000391   0.000048   0.000891   0.000147  -0.003336
              7          8
     1  C   -0.086198  -0.001141
     2  O    0.016252  -0.000391
     3  O    0.004184   0.000048
     4  H    0.021864   0.000891
     5  O   -0.004659   0.000147
     6  O   -0.079541  -0.003336
     7  O    0.547793   0.002774
     8  H    0.002774  -0.004470
 Mulliken atomic spin densities:
              1
     1  C    0.326437
     2  O    0.197469
     3  O    0.156051
     4  H   -0.058718
     5  O    0.832058
     6  O    0.129712
     7  O    0.422468
     8  H   -0.005478
 Sum of Mulliken atomic spin densities =   2.00000
 APT atomic charges:
              1
     1  C   -0.053884
     2  O   -0.145934
     3  O   -0.006150
     4  H    0.232900
     5  O    0.007915
     6  O   -0.368294
     7  O   -0.128665
     8  H    0.462112
 Sum of APT charges=   0.00000
 APT Atomic charges with hydrogens summed into heavy atoms:
              1
     1  C   -0.053884
     2  O   -0.145934
     3  O   -0.006150
     4  H    0.000000
     5  O    0.007915
     6  O    0.093818
     7  O    0.104234
     8  H    0.000000
 Sum of APT charges=   0.00000
 Electronic spatial extent (au):  <R**2>=            698.6478
 Charge=              0.0000 electrons
 Dipole moment (field-independent basis, Debye):
    X=              1.0608    Y=             -1.5318    Z=             -0.6204  Tot=              1.9638
 Quadrupole moment (field-independent basis, Debye-Ang):
   XX=            -38.3071   YY=            -32.9870   ZZ=            -33.2208
   XY=             -3.2493   XZ=             -0.2503   YZ=             -0.2944
 Traceless Quadrupole moment (field-independent basis, Debye-Ang):
   XX=             -3.4688   YY=              1.8513   ZZ=              1.6175
   XY=             -3.2493   XZ=             -0.2503   YZ=             -0.2944
 Octapole moment (field-independent basis, Debye-Ang**2):
  XXX=              2.1762  YYY=            -10.3444  ZZZ=              0.1620  XYY=             11.9459
  XXY=            -11.2608  XXZ=             -3.5594  XZZ=             -2.8886  YZZ=             -0.7774
  YYZ=             -0.7728  XYZ=              2.2927
 Hexadecapole moment (field-independent basis, Debye-Ang**3):
 XXXX=           -577.9337 YYYY=           -184.2084 ZZZZ=            -44.3708 XXXY=            -17.7862
 XXXZ=             -4.6470 YYYX=             -9.6871 YYYZ=             -1.8795 ZZZX=              0.1432
 ZZZY=              0.1204 XXYY=           -115.9057 XXZZ=           -101.8399 YYZZ=            -36.6362
 XXYZ=              2.0348 YYXZ=              0.0791 ZZXY=              0.8716
 N-N= 2.274858902104D+02 E-N=-2.133050799542D+03  KE= 6.176786702755D+02
  Exact polarizability:   0.000   0.000   0.000   0.000   0.000   0.000
 Approx polarizability:  86.635  -8.820  50.685  -3.402  -1.120  32.941
                          Isotropic Fermi Contact Couplings
        Atom                 a.u.       MegaHertz       Gauss      10(-4) cm-1
     1  C(13)              0.33074     185.90543      66.33568      62.01138
     2  O(17)              0.17416     -52.78648     -18.83553     -17.60767
     3  O(17)              0.05282     -16.00915      -5.71246      -5.34008
     4  H(1)              -0.03975     -88.84961     -31.70375     -29.63704
     5  O(17)              0.10523     -31.89642     -11.38144     -10.63950
     6  O(17)              0.02314      -7.01221      -2.50213      -2.33902
     7  O(17)              0.04837     -14.66107      -5.23143      -4.89041
     8  H(1)              -0.00250      -5.59230      -1.99547      -1.86539
 --------------------------------------------------------
       Center         ----  Spin Dipole Couplings  ----
                      3XX-RR        3YY-RR        3ZZ-RR
 --------------------------------------------------------
     1   Atom        0.333438     -0.178724     -0.154714
     2   Atom       -0.688537     -0.176031      0.864569
     3   Atom        0.469019     -0.213569     -0.255450
     4   Atom        0.188744     -0.087819     -0.100925
     5   Atom       -1.469119     -1.415466      2.884585
     6   Atom        0.645531     -0.324063     -0.321468
     7   Atom        1.914450     -1.080298     -0.834152
     8   Atom       -0.005393      0.024278     -0.018884
 --------------------------------------------------------
                        XY            XZ            YZ
 --------------------------------------------------------
     1   Atom        0.027535     -0.079796     -0.006140
     2   Atom       -0.037673      0.367440     -0.171386
     3   Atom        0.394665     -0.050391     -0.046200
     4   Atom       -0.042172     -0.050820      0.006233
     5   Atom       -0.048396      1.057989     -0.855813
     6   Atom       -0.013583     -0.198875      0.041406
     7   Atom        0.137913     -0.836125     -0.033786
     8   Atom       -0.001742      0.000747      0.012113
 --------------------------------------------------------


 ---------------------------------------------------------------------------------
              Anisotropic Spin Dipole Couplings in Principal Axis System
 ---------------------------------------------------------------------------------

       Atom             a.u.   MegaHertz   Gauss  10(-4) cm-1        Axes

              Baa    -0.1805   -24.216    -8.641    -8.078 -0.0316  0.9899  0.1382
     1 C(13)  Bbb    -0.1672   -22.436    -8.006    -7.484  0.1631 -0.1313  0.9778
              Bcc     0.3477    46.652    16.647    15.562  0.9861  0.0534 -0.1573
 
              Baa    -0.7711    55.795    19.909    18.611  0.9757 -0.0014 -0.2193
     2 O(17)  Bbb    -0.2028    14.675     5.236     4.895  0.0344  0.9886  0.1469
              Bcc     0.9739   -70.470   -25.145   -23.506  0.2166 -0.1509  0.9645
 
              Baa    -0.3973    28.746    10.257     9.588 -0.4025  0.9028  0.1511
     3 O(17)  Bbb    -0.2569    18.588     6.633     6.200  0.1273 -0.1082  0.9859
              Bcc     0.6541   -47.334   -16.890   -15.789  0.9065  0.4161 -0.0714
 
              Baa    -0.1096   -58.497   -20.873   -19.513  0.1757  0.0588  0.9827
     4 H(1)   Bbb    -0.0940   -50.152   -17.895   -16.729  0.1324  0.9877 -0.0828
              Bcc     0.2036   108.649    38.769    36.241  0.9755 -0.1447 -0.1657
 
              Baa    -1.8000   130.249    46.476    43.446  0.8111 -0.5149 -0.2773
     5 O(17)  Bbb    -1.4802   107.105    38.218    35.726  0.5436  0.8387  0.0327
              Bcc     3.2802  -237.354   -84.694   -79.173  0.2157 -0.1772  0.9602
 
              Baa    -0.3847    27.839     9.933     9.286  0.1535 -0.5334  0.8318
     6 O(17)  Bbb    -0.3006    21.748     7.760     7.254  0.1214  0.8456  0.5198
              Bcc     0.6853   -49.587   -17.694   -16.540  0.9807 -0.0212 -0.1946
 
              Baa    -1.0877    78.703    28.083    26.252 -0.1051  0.9704 -0.2173
     7 O(17)  Bbb    -1.0674    77.234    27.559    25.763  0.2521  0.2374  0.9381
              Bcc     2.1550  -155.937   -55.642   -52.015  0.9620  0.0438 -0.2696
 
              Baa    -0.0221   -11.809    -4.214    -3.939 -0.0695 -0.2544  0.9646
     8 H(1)   Bbb    -0.0054    -2.871    -1.024    -0.958  0.9965  0.0264  0.0788
              Bcc     0.0275    14.680     5.238     4.897 -0.0455  0.9667  0.2517
 

 ---------------------------------------------------------------------------------

 Calling FoFJK, ICntrl=    100147 FMM=F ISym2X=0 I1Cent= 0 IOpClX= 1 NMat=1 NMatS=1 NMatT=0.
 ***** Axes restored to original set *****
 -------------------------------------------------------------------
 Center     Atomic                   Forces (Hartrees/Bohr)
 Number     Number              X              Y              Z
 -------------------------------------------------------------------
      1        6           0.012538599    0.002656597   -0.001858855
      2        8          -0.000018517    0.000330309    0.000661606
      3        8          -0.000064263    0.000190158    0.000171565
      4        1          -0.011540592   -0.004488641    0.001208153
      5        8          -0.000081710   -0.000562521   -0.000323967
      6        8          -0.000410424   -0.000243269    0.000082181
      7        8          -0.000481081    0.002061028    0.000050766
      8        1           0.000057988    0.000056339    0.000008550
 -------------------------------------------------------------------
 Cartesian Forces:  Max     0.012538599 RMS     0.003698479

 GradGradGradGradGradGradGradGradGradGradGradGradGradGradGradGradGradGrad
 Berny optimization.
 Internal  Forces:  Max     0.012606583 RMS     0.002958154
 Search for a saddle point.
 Step number   1 out of a maximum of   30
 All quantities printed in internal units (Hartrees-Bohrs-Radians)
 Swaping is turned off.
 Second derivative matrix not updated -- analytic derivatives used.
 The second derivative matrix:
                          R1        R2        R3        R4        R5
           R1           0.20638
           R2           0.09563   1.05811
           R3           0.00522   0.02249   0.04518
           R4           0.08225  -0.01132   0.00056   0.43557
           R5          -0.00136  -0.01511   0.12776  -0.00149   0.02119
           R6           0.01241   0.02260  -0.03058   0.00733   0.07153
           R7          -0.00173  -0.00283   0.00342  -0.00089  -0.00629
           A1           0.04654   0.03031  -0.01396  -0.02643   0.01008
           A2          -0.00753  -0.02812   0.00929   0.01643  -0.00529
           A3          -0.03901  -0.00218   0.00467   0.01001  -0.00479
           A4           0.05396  -0.02062   0.00678   0.05250  -0.00605
           A5          -0.00193   0.00329   0.00801   0.00066   0.00588
           A6           0.00059  -0.00068   0.00003   0.00040  -0.00010
           A7          -0.00023  -0.00740   0.00574  -0.00060  -0.01532
           D1           0.00132  -0.00107  -0.00018  -0.00047  -0.00053
           D2           0.00014   0.00070   0.00001   0.00016   0.00001
           D3           0.00115  -0.00080   0.00010  -0.00079  -0.00081
           D4           0.00032   0.00125   0.00022  -0.00029  -0.00016
           D5           0.00163   0.00075  -0.00015  -0.00078  -0.00052
           D6           0.00081  -0.00284  -0.00203   0.00127   0.00075
                          R6        R7        A1        A2        A3
           R6           0.37952
           R7           0.01074   0.51090
           A1          -0.01757   0.00218   0.15229
           A2           0.00515   0.00011  -0.08174   0.08193
           A3           0.01242  -0.00230  -0.07055  -0.00019   0.07075
           A4           0.01309  -0.00179  -0.00125   0.01109  -0.00984
           A5           0.00108   0.00151  -0.00103  -0.00564   0.00667
           A6           0.07885  -0.00526   0.00049  -0.00164   0.00115
           A7           0.05619  -0.00064   0.00484  -0.00380  -0.00102
           D1           0.00009  -0.00003  -0.00031  -0.00009   0.00026
           D2           0.00033  -0.00037  -0.00049  -0.00013   0.00076
           D3           0.00034   0.00079  -0.00028  -0.00004   0.00015
           D4           0.00044   0.00044   0.00062  -0.00047  -0.00002
           D5           0.00029   0.00140  -0.00013  -0.00010   0.00021
           D6           0.00176   0.00300   0.00232  -0.00674   0.00442
                          A4        A5        A6        A7        D1
           A4           0.34752
           A5          -0.00059   0.02506
           A6           0.00173  -0.00245   0.24261
           A7          -0.00350   0.00215   0.00783   0.17178
           D1          -0.00001  -0.00051  -0.00019  -0.00131   0.01651
           D2           0.00060   0.00014  -0.00013   0.00215  -0.00651
           D3          -0.00023  -0.00114   0.00030  -0.00255   0.01323
           D4           0.00046  -0.00048   0.00036   0.00118  -0.01139
           D5           0.00069  -0.00267   0.00062  -0.00365   0.00116
           D6           0.00156  -0.00075   0.00532   0.00532   0.00015
                          D2        D3        D4        D5        D6
           D2           0.01645
           D3          -0.01438   0.01889
           D4           0.01016  -0.01063   0.01241
           D5          -0.00311   0.00727   0.00271   0.01218
           D6           0.00011   0.00109   0.00103   0.00355   0.02011
 ITU=  0
     Eigenvalues ---   -0.11206   0.00060   0.00914   0.01349   0.01883
     Eigenvalues ---    0.02522   0.05028   0.06969   0.13408   0.14794
     Eigenvalues ---    0.17202   0.21348   0.25766   0.32875   0.43396
     Eigenvalues ---    0.49751   0.51190   1.07284
 Eigenvectors required to have negative eigenvalues:
                          R5        R3        R6        A7        A1
   1                   -0.73241   0.64614   0.16873  -0.08805   0.06397
                          A6        A2        A3        R2        R1
   1                   -0.03635  -0.03400  -0.02994  -0.02667  -0.02351
 RFO step:  Lambda0=4.492040808D-04 Lambda=-1.34909794D-03.
 Linear search not attempted -- option 19 set.
 Iteration  1 RMS(Cart)=  0.09199407 RMS(Int)=  0.00760640
 Iteration  2 RMS(Cart)=  0.00611271 RMS(Int)=  0.00007770
 Iteration  3 RMS(Cart)=  0.00006394 RMS(Int)=  0.00000633
 Iteration  4 RMS(Cart)=  0.00000001 RMS(Int)=  0.00000633
 Variable       Old X    -DE/DX   Delta X   Delta X   Delta X     New X
                                 (Linear)    (Quad)   (Total)
    R1        2.67836   0.00023   0.00000  -0.00431  -0.00431   2.67405
    R2        2.19767   0.00021   0.00000  -0.00164  -0.00164   2.19603
    R3        2.60179  -0.01261   0.00000  -0.01703  -0.01703   2.58476
    R4        2.46994   0.00016   0.00000   0.00081   0.00081   2.47075
    R5        2.26193  -0.00132   0.00000  -0.09378  -0.09378   2.16816
    R6        2.57045   0.00010   0.00000   0.02115   0.02115   2.59160
    R7        1.82810  -0.00007   0.00000  -0.00247  -0.00247   1.82563
    A1        2.19955   0.00045   0.00000   0.00956   0.00956   2.20911
    A2        1.80004  -0.00076   0.00000   0.00397   0.00397   1.80400
    A3        2.28358   0.00030   0.00000  -0.01351  -0.01351   2.27006
    A4        1.97175   0.00150   0.00000   0.00202   0.00202   1.97376
    A5        2.79060   0.00314   0.00000   0.15681   0.15681   2.94740
    A6        1.81603  -0.00002   0.00000  -0.00504  -0.00504   1.81099
    A7        1.85028  -0.00085   0.00000  -0.02078  -0.02078   1.82950
    D1       -0.04649   0.00037   0.00000   0.03238   0.03237  -0.01412
    D2        3.08919   0.00024   0.00000   0.03524   0.03525   3.12444
    D3       -0.01995   0.00026   0.00000  -0.00453  -0.00452  -0.02446
    D4        3.11532   0.00012   0.00000  -0.00136  -0.00137   3.11395
    D5       -0.98269   0.00048   0.00000   0.06326   0.06326  -0.91944
    D6        1.73572   0.00011   0.00000   0.00972   0.00972   1.74544
         Item               Value     Threshold  Converged?
 Maximum Force            0.012607     0.000450     NO 
 RMS     Force            0.002958     0.000300     NO 
 Maximum Displacement     0.228525     0.001800     NO 
 RMS     Displacement     0.095006     0.001200     NO 
 Predicted change in Energy=-4.742219D-04
 GradGradGradGradGradGradGradGradGradGradGradGradGradGradGradGradGradGrad

                          Input orientation:                          
 ---------------------------------------------------------------------
 Center     Atomic      Atomic             Coordinates (Angstroms)
 Number     Number       Type             X           Y           Z
 ---------------------------------------------------------------------
      1          6           0       -0.548885    0.613774   -0.031679
      2          8           0       -0.853059   -0.760506   -0.177246
      3          8           0       -1.300264    1.467901    0.205687
      4          1           0        0.803316    0.661190   -0.232117
      5          8           0       -2.120708   -1.026712    0.000716
      6          8           0        2.279839   -0.482259    0.485276
      7          8           0        1.920139    0.480358   -0.422892
      8          1           0        2.281641   -1.297722   -0.032732
 ---------------------------------------------------------------------
                    Distance matrix (angstroms):
                    1          2          3          4          5
     1  C    0.000000
     2  O    1.415046   0.000000
     3  O    1.162088   2.304870   0.000000
     4  H    1.367798   2.183532   2.295105   0.000000
     5  O    2.272195   1.307467   2.634053   3.384249   0.000000
     6  O    3.077370   3.214251   4.086371   2.000562   4.460497
     7  O    2.503383   3.048067   3.426565   1.147340   4.333491
     8  H    3.415507   3.183682   4.531618   2.462221   4.410810
                    6          7          8
     6  O    0.000000
     7  O    1.371417   0.000000
     8  H    0.966082   1.855930   0.000000
 Stoichiometry    CH2O5(3)
 Framework group  C1[X(CH2O5)]
 Deg. of freedom    18
 Full point group                 C1      NOp   1
 Largest Abelian subgroup         C1      NOp   1
 Largest concise Abelian subgroup C1      NOp   1
                         Standard orientation:                         
 ---------------------------------------------------------------------
 Center     Atomic      Atomic             Coordinates (Angstroms)
 Number     Number       Type             X           Y           Z
 ---------------------------------------------------------------------
      1          6           0       -0.523156    0.612218   -0.027796
      2          8           0       -0.849895   -0.756091   -0.180529
      3          8           0       -1.258938    1.475973    0.223202
      4          1           0        0.827617    0.640368   -0.241081
      5          8           0       -2.119723   -1.004129    0.007841
      6          8           0        2.293176   -0.530999    0.453386
      7          8           0        1.939621    0.443845   -0.444091
      8          1           0        2.277391   -1.342467   -0.070623
 ---------------------------------------------------------------------
 Rotational constants (GHZ):      6.1408566      1.8715820      1.5011555
 Standard basis: 6-311+G(2df,2p) (5D, 7F)
 There are   222 symmetry adapted basis functions of A   symmetry.
 Integral buffers will be    131072 words long.
 Raffenetti 2 integral format.
 Two-electron integral symmetry is turned on.
   222 basis functions,   334 primitive gaussians,   252 cartesian basis functions
    25 alpha electrons       23 beta electrons
       nuclear repulsion energy       226.9567727817 Hartrees.
 NAtoms=    8 NActive=    8 NUniq=    8 SFac= 1.00D+00 NAtFMM=   50 NAOKFM=F Big=F
 One-electron integrals computed using PRISM.
 NBasis=   222 RedAO= T  NBF=   222
 NBsUse=   222 1.00D-06 NBFU=   222
 Initial guess read from the read-write file.
 B after Tr=     0.000000    0.000000    0.000000
         Rot=    1.000000    0.000000    0.000000    0.000000 Ang=   0.00 deg.
 Initial guess orbital symmetries:
 Alpha Orbitals:
       Occupied  (A) (A) (A) (A) (A) (A) (A) (A) (A) (A) (A) (A)
                 (A) (A) (A) (A) (A) (A) (A) (A) (A) (A) (A) (A)
                 (A)
       Virtual   (A) (A) (A) (A) (A) (A) (A) (A) (A) (A) (A) (A)
                 (A) (A) (A) (A) (A) (A) (A) (A) (A) (A) (A) (A)
                 (A) (A) (A) (A) (A) (A) (A) (A) (A) (A) (A) (A)
                 (A) (A) (A) (A) (A) (A) (A) (A) (A) (A) (A) (A)
                 (A) (A) (A) (A) (A) (A) (A) (A) (A) (A) (A) (A)
                 (A) (A) (A) (A) (A) (A) (A) (A) (A) (A) (A) (A)
                 (A) (A) (A) (A) (A) (A) (A) (A) (A) (A) (A) (A)
                 (A) (A) (A) (A) (A) (A) (A) (A) (A) (A) (A) (A)
                 (A) (A) (A) (A) (A) (A) (A) (A) (A) (A) (A) (A)
                 (A) (A) (A) (A) (A) (A) (A) (A) (A) (A) (A) (A)
                 (A) (A) (A) (A) (A) (A) (A) (A) (A) (A) (A) (A)
                 (A) (A) (A) (A) (A) (A) (A) (A) (A) (A) (A) (A)
                 (A) (A) (A) (A) (A) (A) (A) (A) (A) (A) (A) (A)
                 (A) (A) (A) (A) (A) (A) (A) (A) (A) (A) (A) (A)
                 (A) (A) (A) (A) (A) (A) (A) (A) (A) (A) (A) (A)
                 (A) (A) (A) (A) (A) (A) (A) (A) (A) (A) (A) (A)
                 (A) (A) (A) (A) (A)
 Beta  Orbitals:
       Occupied  (A) (A) (A) (A) (A) (A) (A) (A) (A) (A) (A) (A)
                 (A) (A) (A) (A) (A) (A) (A) (A) (A) (A) (A)
       Virtual   (A) (A) (A) (A) (A) (A) (A) (A) (A) (A) (A) (A)
                 (A) (A) (A) (A) (A) (A) (A) (A) (A) (A) (A) (A)
                 (A) (A) (A) (A) (A) (A) (A) (A) (A) (A) (A) (A)
                 (A) (A) (A) (A) (A) (A) (A) (A) (A) (A) (A) (A)
                 (A) (A) (A) (A) (A) (A) (A) (A) (A) (A) (A) (A)
                 (A) (A) (A) (A) (A) (A) (A) (A) (A) (A) (A) (A)
                 (A) (A) (A) (A) (A) (A) (A) (A) (A) (A) (A) (A)
                 (A) (A) (A) (A) (A) (A) (A) (A) (A) (A) (A) (A)
                 (A) (A) (A) (A) (A) (A) (A) (A) (A) (A) (A) (A)
                 (A) (A) (A) (A) (A) (A) (A) (A) (A) (A) (A) (A)
                 (A) (A) (A) (A) (A) (A) (A) (A) (A) (A) (A) (A)
                 (A) (A) (A) (A) (A) (A) (A) (A) (A) (A) (A) (A)
                 (A) (A) (A) (A) (A) (A) (A) (A) (A) (A) (A) (A)
                 (A) (A) (A) (A) (A) (A) (A) (A) (A) (A) (A) (A)
                 (A) (A) (A) (A) (A) (A) (A) (A) (A) (A) (A) (A)
                 (A) (A) (A) (A) (A) (A) (A) (A) (A) (A) (A) (A)
                 (A) (A) (A) (A) (A) (A) (A)
 Initial guess <Sx>= 0.0000 <Sy>= 0.0000 <Sz>= 1.0000 <S**2>= 2.0156 S= 1.0052
 Harris functional with IExCor= 1009 diagonalized for initial guess.
 ExpMin= 4.38D-02 ExpMax= 8.59D+03 ExpMxC= 1.30D+03 IAcc=2 IRadAn=         0 AccDes= 0.00D+00
 HarFok:  IExCor= 1009 AccDes= 0.00D+00 IRadAn=         0 IDoV= 1
 ScaDFX=  1.000000  1.000000  1.000000  1.000000
 FoFCou: FMM=F IPFlag=           0 FMFlag=      100000 FMFlg1=           0
         NFxFlg=           0 DoJE=T BraDBF=F KetDBF=T FulRan=T
         Omega=  0.000000  0.000000  1.000000  0.000000  0.000000 ICntrl=     500 IOpCl=  0
         NMat0=    1 NMatS0=    1 NMatT0=    0 NMatD0=    1 NMtDS0=    0 NMtDT0=    0
         I1Cent=           4 NGrid=           0.
 Petite list used in FoFCou.
 Requested convergence on RMS density matrix=1.00D-08 within 128 cycles.
 Requested convergence on MAX density matrix=1.00D-06.
 Requested convergence on             energy=1.00D-06.
 No special actions if energy rises.
 Restarting incremental Fock formation.
 SCF Done:  E(UM062X) =  -415.087903178     A.U. after   20 cycles
             Convg  =    0.3398D-08             -V/T =  2.0026
 <Sx>= 0.0000 <Sy>= 0.0000 <Sz>= 1.0000 <S**2>= 2.0150 S= 1.0050
 <L.S>= 0.000000000000E+00
 Annihilation of the first spin contaminant:
 S**2 before annihilation     2.0150,   after     2.0001
 Calling FoFJK, ICntrl=      2127 FMM=F ISym2X=0 I1Cent= 0 IOpClX= 1 NMat=1 NMatS=1 NMatT=0.
 ***** Axes restored to original set *****
 -------------------------------------------------------------------
 Center     Atomic                   Forces (Hartrees/Bohr)
 Number     Number              X              Y              Z
 -------------------------------------------------------------------
      1        6          -0.000413633    0.000091757    0.000251055
      2        8           0.000134629    0.000004640    0.000080054
      3        8          -0.000003348    0.000015750   -0.000071239
      4        1          -0.001955892    0.000540132   -0.000202882
      5        8          -0.000130724   -0.000160195    0.000015495
      6        8           0.000139563    0.000252778    0.000177184
      7        8           0.002345428   -0.000450261   -0.000063594
      8        1          -0.000116024   -0.000294601   -0.000186073
 -------------------------------------------------------------------
 Cartesian Forces:  Max     0.002345428 RMS     0.000659270

 GradGradGradGradGradGradGradGradGradGradGradGradGradGradGradGradGradGrad
 Berny optimization.
 Internal  Forces:  Max     0.002400256 RMS     0.000575490
 Search for a saddle point.
 Step number   2 out of a maximum of   30
 All quantities printed in internal units (Hartrees-Bohrs-Radians)
 Swaping is turned off.
 Update second derivatives using D2CorX and points    1    2
 The second derivative matrix:
                          R1        R2        R3        R4        R5
           R1           0.20642
           R2           0.09563   1.05811
           R3           0.00537   0.02251   0.04577
           R4           0.08228  -0.01132   0.00069   0.43560
           R5          -0.00067  -0.01506   0.13049  -0.00086   0.03382
           R6           0.01238   0.02260  -0.03071   0.00728   0.07099
           R7          -0.00165  -0.00282   0.00376  -0.00082  -0.00467
           A1           0.04655   0.03031  -0.01391  -0.02644   0.01037
           A2          -0.00760  -0.02812   0.00904   0.01638  -0.00648
           A3          -0.03896  -0.00218   0.00487   0.01006  -0.00388
           A4           0.05402  -0.02061   0.00705   0.05255  -0.00477
           A5          -0.00232   0.00330   0.00650   0.00017  -0.00066
           A6           0.00057  -0.00068  -0.00003   0.00039  -0.00041
           A7          -0.00018  -0.00740   0.00595  -0.00054  -0.01441
           D1           0.00126  -0.00107  -0.00039  -0.00056  -0.00142
           D2           0.00007   0.00070  -0.00024   0.00006  -0.00106
           D3           0.00118  -0.00080   0.00022  -0.00076  -0.00027
           D4           0.00033   0.00125   0.00029  -0.00028   0.00019
           D5           0.00157   0.00076  -0.00040  -0.00091  -0.00144
           D6           0.00075  -0.00285  -0.00226   0.00121  -0.00034
                          R6        R7        A1        A2        A3
           R6           0.37946
           R7           0.01063   0.51108
           A1          -0.01764   0.00219   0.15226
           A2           0.00522  -0.00003  -0.08175   0.08204
           A3           0.01242  -0.00217  -0.07051  -0.00029   0.07080
           A4           0.01298  -0.00166  -0.00126   0.01098  -0.00972
           A5           0.00086   0.00040  -0.00152  -0.00487   0.00639
           A6           0.07889  -0.00528   0.00051  -0.00162   0.00111
           A7           0.05622  -0.00049   0.00491  -0.00391  -0.00098
           D1           0.00001  -0.00021  -0.00042   0.00003   0.00024
           D2           0.00025  -0.00058  -0.00060   0.00001   0.00074
           D3           0.00032   0.00086  -0.00027  -0.00009   0.00019
           D4           0.00042   0.00048   0.00062  -0.00050   0.00001
           D5           0.00007   0.00114  -0.00033   0.00006   0.00024
           D6           0.00180   0.00285   0.00229  -0.00664   0.00434
                          A4        A5        A6        A7        D1
           A4           0.34761
           A5          -0.00159   0.02527
           A6           0.00172  -0.00207   0.24260
           A7          -0.00336   0.00209   0.00778   0.17179
           D1          -0.00018  -0.00080  -0.00012  -0.00127   0.01640
           D2           0.00041  -0.00011  -0.00005   0.00218  -0.00663
           D3          -0.00018  -0.00140   0.00029  -0.00251   0.01320
           D4           0.00049  -0.00070   0.00035   0.00121  -0.01142
           D5           0.00042  -0.00386   0.00075  -0.00350   0.00083
           D6           0.00145  -0.00024   0.00535   0.00525   0.00022
                          D2        D3        D4        D5        D6
           D2           0.01634
           D3          -0.01442   0.01891
           D4           0.01012  -0.01061   0.01242
           D5          -0.00345   0.00724   0.00267   0.01138
           D6           0.00019   0.00104   0.00100   0.00361   0.02021
 ITU=  0  0
     Eigenvalues ---   -0.10770   0.00042   0.00831   0.01323   0.01932
     Eigenvalues ---    0.02627   0.05030   0.06964   0.13413   0.15119
     Eigenvalues ---    0.17632   0.21387   0.25767   0.32879   0.43402
     Eigenvalues ---    0.49764   0.51205   1.07284
 Eigenvectors required to have negative eigenvalues:
                          R5        R3        R6        A7        A1
   1                   -0.71641   0.66294   0.16837  -0.08675   0.06526
                          A2        A6        A5        R2        A3
   1                   -0.03942  -0.03743  -0.03606  -0.02693  -0.02584
 RFO step:  Lambda0=1.849045132D-05 Lambda=-4.65037274D-05.
 Linear search not attempted -- option 19 set.
 Iteration  1 RMS(Cart)=  0.02313060 RMS(Int)=  0.00168375
 Iteration  2 RMS(Cart)=  0.00043764 RMS(Int)=  0.00000059
 Iteration  3 RMS(Cart)=  0.00000158 RMS(Int)=  0.00000014
 Iteration  4 RMS(Cart)=  0.00000000 RMS(Int)=  0.00000014
 Variable       Old X    -DE/DX   Delta X   Delta X   Delta X     New X
                                 (Linear)    (Quad)   (Total)
    R1        2.67405   0.00014   0.00000  -0.00023  -0.00023   2.67382
    R2        2.19603   0.00000   0.00000  -0.00064  -0.00064   2.19539
    R3        2.58476   0.00045   0.00000   0.01795   0.01795   2.60271
    R4        2.47075   0.00016   0.00000   0.00060   0.00060   2.47135
    R5        2.16816   0.00240   0.00000  -0.00096  -0.00096   2.16719
    R6        2.59160   0.00001   0.00000   0.00202   0.00202   2.59362
    R7        1.82563   0.00037   0.00000   0.00064   0.00064   1.82627
    A1        2.20911   0.00013   0.00000   0.00209   0.00209   2.21120
    A2        1.80400  -0.00025   0.00000  -0.00644  -0.00644   1.79757
    A3        2.27006   0.00012   0.00000   0.00435   0.00435   2.27441
    A4        1.97376   0.00033   0.00000   0.00070   0.00070   1.97447
    A5        2.94740  -0.00037   0.00000  -0.01524  -0.01524   2.93217
    A6        1.81099  -0.00011   0.00000  -0.00099  -0.00099   1.81001
    A7        1.82950   0.00007   0.00000   0.00066   0.00066   1.83016
    D1       -0.01412   0.00003   0.00000   0.00537   0.00537  -0.00876
    D2        3.12444   0.00001   0.00000   0.00480   0.00480   3.12925
    D3       -0.02446   0.00010   0.00000  -0.05062  -0.05062  -0.07508
    D4        3.11395   0.00007   0.00000  -0.05122  -0.05122   3.06274
    D5       -0.91944   0.00026   0.00000   0.06964   0.06964  -0.84980
    D6        1.74544  -0.00019   0.00000  -0.01854  -0.01854   1.72690
         Item               Value     Threshold  Converged?
 Maximum Force            0.002400     0.000450     NO 
 RMS     Force            0.000575     0.000300     NO 
 Maximum Displacement     0.062767     0.001800     NO 
 RMS     Displacement     0.023072     0.001200     NO 
 Predicted change in Energy=-1.426125D-05
 GradGradGradGradGradGradGradGradGradGradGradGradGradGradGradGradGradGrad

                          Input orientation:                          
 ---------------------------------------------------------------------
 Center     Atomic      Atomic             Coordinates (Angstroms)
 Number     Number       Type             X           Y           Z
 ---------------------------------------------------------------------
      1          6           0       -0.549134    0.620801   -0.032484
      2          8           0       -0.835103   -0.758043   -0.170413
      3          8           0       -1.309495    1.467430    0.201468
      4          1           0        0.811719    0.676796   -0.237138
      5          8           0       -2.100022   -1.040332    0.004493
      6          8           0        2.267907   -0.491250    0.484994
      7          8           0        1.927719    0.484535   -0.418237
      8          1           0        2.248426   -1.303911   -0.037668
 ---------------------------------------------------------------------
                    Distance matrix (angstroms):
                    1          2          3          4          5
     1  C    0.000000
     2  O    1.414925   0.000000
     3  O    1.161750   2.305661   0.000000
     4  H    1.377294   2.185232   2.305868   0.000000
     5  O    2.272880   1.307784   2.636778   3.388974   0.000000
     6  O    3.072484   3.182673   4.088351   2.001571   4.428450
     7  O    2.510413   3.039508   3.439429   1.146829   4.327426
     8  H    3.395716   3.134286   4.516228   2.455018   4.356633
                    6          7          8
     6  O    0.000000
     7  O    1.372483   0.000000
     8  H    0.966422   1.856401   0.000000
 Stoichiometry    CH2O5(3)
 Framework group  C1[X(CH2O5)]
 Deg. of freedom    18
 Full point group                 C1      NOp   1
 Largest Abelian subgroup         C1      NOp   1
 Largest concise Abelian subgroup C1      NOp   1
                         Standard orientation:                         
 ---------------------------------------------------------------------
 Center     Atomic      Atomic             Coordinates (Angstroms)
 Number     Number       Type             X           Y           Z
 ---------------------------------------------------------------------
      1          6           0       -0.527889    0.620270   -0.027709
      2          8           0       -0.834087   -0.752774   -0.179398
      3          8           0       -1.274398    1.474389    0.223025
      4          1           0        0.831763    0.660037   -0.243818
      5          8           0       -2.101206   -1.019757    0.003430
      6          8           0        2.277935   -0.536428    0.451413
      7          8           0        1.943371    0.454667   -0.437130
      8          1           0        2.242648   -1.342435   -0.080640
 ---------------------------------------------------------------------
 Rotational constants (GHZ):      6.0954482      1.8866343      1.5068676
 Standard basis: 6-311+G(2df,2p) (5D, 7F)
 There are   222 symmetry adapted basis functions of A   symmetry.
 Integral buffers will be    131072 words long.
 Raffenetti 2 integral format.
 Two-electron integral symmetry is turned on.
   222 basis functions,   334 primitive gaussians,   252 cartesian basis functions
    25 alpha electrons       23 beta electrons
       nuclear repulsion energy       227.0756675097 Hartrees.
 NAtoms=    8 NActive=    8 NUniq=    8 SFac= 1.00D+00 NAtFMM=   50 NAOKFM=F Big=F
 One-electron integrals computed using PRISM.
 NBasis=   222 RedAO= T  NBF=   222
 NBsUse=   222 1.00D-06 NBFU=   222
 Initial guess read from the read-write file.
 B after Tr=     0.000000    0.000000    0.000000
         Rot=    1.000000    0.000000    0.000000    0.000000 Ang=   0.00 deg.
 Initial guess orbital symmetries:
 Alpha Orbitals:
       Occupied  (A) (A) (A) (A) (A) (A) (A) (A) (A) (A) (A) (A)
                 (A) (A) (A) (A) (A) (A) (A) (A) (A) (A) (A) (A)
                 (A)
       Virtual   (A) (A) (A) (A) (A) (A) (A) (A) (A) (A) (A) (A)
                 (A) (A) (A) (A) (A) (A) (A) (A) (A) (A) (A) (A)
                 (A) (A) (A) (A) (A) (A) (A) (A) (A) (A) (A) (A)
                 (A) (A) (A) (A) (A) (A) (A) (A) (A) (A) (A) (A)
                 (A) (A) (A) (A) (A) (A) (A) (A) (A) (A) (A) (A)
                 (A) (A) (A) (A) (A) (A) (A) (A) (A) (A) (A) (A)
                 (A) (A) (A) (A) (A) (A) (A) (A) (A) (A) (A) (A)
                 (A) (A) (A) (A) (A) (A) (A) (A) (A) (A) (A) (A)
                 (A) (A) (A) (A) (A) (A) (A) (A) (A) (A) (A) (A)
                 (A) (A) (A) (A) (A) (A) (A) (A) (A) (A) (A) (A)
                 (A) (A) (A) (A) (A) (A) (A) (A) (A) (A) (A) (A)
                 (A) (A) (A) (A) (A) (A) (A) (A) (A) (A) (A) (A)
                 (A) (A) (A) (A) (A) (A) (A) (A) (A) (A) (A) (A)
                 (A) (A) (A) (A) (A) (A) (A) (A) (A) (A) (A) (A)
                 (A) (A) (A) (A) (A) (A) (A) (A) (A) (A) (A) (A)
                 (A) (A) (A) (A) (A) (A) (A) (A) (A) (A) (A) (A)
                 (A) (A) (A) (A) (A)
 Beta  Orbitals:
       Occupied  (A) (A) (A) (A) (A) (A) (A) (A) (A) (A) (A) (A)
                 (A) (A) (A) (A) (A) (A) (A) (A) (A) (A) (A)
       Virtual   (A) (A) (A) (A) (A) (A) (A) (A) (A) (A) (A) (A)
                 (A) (A) (A) (A) (A) (A) (A) (A) (A) (A) (A) (A)
                 (A) (A) (A) (A) (A) (A) (A) (A) (A) (A) (A) (A)
                 (A) (A) (A) (A) (A) (A) (A) (A) (A) (A) (A) (A)
                 (A) (A) (A) (A) (A) (A) (A) (A) (A) (A) (A) (A)
                 (A) (A) (A) (A) (A) (A) (A) (A) (A) (A) (A) (A)
                 (A) (A) (A) (A) (A) (A) (A) (A) (A) (A) (A) (A)
                 (A) (A) (A) (A) (A) (A) (A) (A) (A) (A) (A) (A)
                 (A) (A) (A) (A) (A) (A) (A) (A) (A) (A) (A) (A)
                 (A) (A) (A) (A) (A) (A) (A) (A) (A) (A) (A) (A)
                 (A) (A) (A) (A) (A) (A) (A) (A) (A) (A) (A) (A)
                 (A) (A) (A) (A) (A) (A) (A) (A) (A) (A) (A) (A)
                 (A) (A) (A) (A) (A) (A) (A) (A) (A) (A) (A) (A)
                 (A) (A) (A) (A) (A) (A) (A) (A) (A) (A) (A) (A)
                 (A) (A) (A) (A) (A) (A) (A) (A) (A) (A) (A) (A)
                 (A) (A) (A) (A) (A) (A) (A) (A) (A) (A) (A) (A)
                 (A) (A) (A) (A) (A) (A) (A)
 Initial guess <Sx>= 0.0000 <Sy>= 0.0000 <Sz>= 1.0000 <S**2>= 2.0151 S= 1.0050
 Harris functional with IExCor= 1009 diagonalized for initial guess.
 ExpMin= 4.38D-02 ExpMax= 8.59D+03 ExpMxC= 1.30D+03 IAcc=2 IRadAn=         0 AccDes= 0.00D+00
 HarFok:  IExCor= 1009 AccDes= 0.00D+00 IRadAn=         0 IDoV= 1
 ScaDFX=  1.000000  1.000000  1.000000  1.000000
 FoFCou: FMM=F IPFlag=           0 FMFlag=      100000 FMFlg1=           0
         NFxFlg=           0 DoJE=T BraDBF=F KetDBF=T FulRan=T
         Omega=  0.000000  0.000000  1.000000  0.000000  0.000000 ICntrl=     500 IOpCl=  0
         NMat0=    1 NMatS0=    1 NMatT0=    0 NMatD0=    1 NMtDS0=    0 NMtDT0=    0
         I1Cent=           4 NGrid=           0.
 Petite list used in FoFCou.
 Requested convergence on RMS density matrix=1.00D-08 within 128 cycles.
 Requested convergence on MAX density matrix=1.00D-06.
 Requested convergence on             energy=1.00D-06.
 No special actions if energy rises.
 SCF Done:  E(UM062X) =  -415.087912577     A.U. after   18 cycles
             Convg  =    0.6992D-08             -V/T =  2.0027
 <Sx>= 0.0000 <Sy>= 0.0000 <Sz>= 1.0000 <S**2>= 2.0151 S= 1.0050
 <L.S>= 0.000000000000E+00
 Annihilation of the first spin contaminant:
 S**2 before annihilation     2.0151,   after     2.0001
 Calling FoFJK, ICntrl=      2127 FMM=F ISym2X=0 I1Cent= 0 IOpClX= 1 NMat=1 NMatS=1 NMatT=0.
 ***** Axes restored to original set *****
 -------------------------------------------------------------------
 Center     Atomic                   Forces (Hartrees/Bohr)
 Number     Number              X              Y              Z
 -------------------------------------------------------------------
      1        6           0.000406919   -0.000044052    0.000020346
      2        8          -0.000052728   -0.000040062    0.000002394
      3        8          -0.000103103    0.000056402   -0.000058842
      4        1          -0.000291213    0.000008987   -0.000070746
      5        8           0.000006345    0.000032318    0.000067327
      6        8          -0.000115595    0.000038919   -0.000084309
      7        8           0.000085590   -0.000044204    0.000059909
      8        1           0.000063785   -0.000008308    0.000063921
 -------------------------------------------------------------------
 Cartesian Forces:  Max     0.000406919 RMS     0.000116938

 GradGradGradGradGradGradGradGradGradGradGradGradGradGradGradGradGradGrad
 Berny optimization.
 Internal  Forces:  Max     0.000249303 RMS     0.000078694
 Search for a saddle point.
 Step number   3 out of a maximum of   30
 All quantities printed in internal units (Hartrees-Bohrs-Radians)
 Swaping is turned off.
 Update second derivatives using D2CorX and points    1    2    3
 The second derivative matrix:
                          R1        R2        R3        R4        R5
           R1           0.20643
           R2           0.09565   1.05815
           R3           0.00532   0.02231   0.04650
           R4           0.08228  -0.01133   0.00073   0.43560
           R5          -0.00063  -0.01488   0.13002  -0.00088   0.03394
           R6           0.01236   0.02253  -0.03046   0.00729   0.07085
           R7          -0.00165  -0.00283   0.00379  -0.00082  -0.00469
           A1           0.04653   0.03025  -0.01366  -0.02643   0.01019
           A2          -0.00758  -0.02805   0.00878   0.01637  -0.00633
           A3          -0.03896  -0.00219   0.00488   0.01006  -0.00386
           A4           0.05401  -0.02064   0.00719   0.05256  -0.00490
           A5          -0.00234   0.00317   0.00678   0.00018  -0.00068
           A6           0.00059  -0.00064  -0.00020   0.00038  -0.00028
           A7          -0.00018  -0.00739   0.00597  -0.00054  -0.01449
           D1           0.00124  -0.00118  -0.00009  -0.00054  -0.00151
           D2           0.00005   0.00060   0.00003   0.00007  -0.00111
           D3           0.00126  -0.00035  -0.00087  -0.00081  -0.00016
           D4           0.00042   0.00170  -0.00083  -0.00032   0.00034
           D5           0.00145   0.00007   0.00121  -0.00085  -0.00151
           D6           0.00079  -0.00268  -0.00279   0.00119  -0.00013
                          R6        R7        A1        A2        A3
           R6           0.37955
           R7           0.01063   0.51108
           A1          -0.01755   0.00220   0.15234
           A2           0.00514  -0.00003  -0.08184   0.08213
           A3           0.01242  -0.00217  -0.07050  -0.00029   0.07080
           A4           0.01304  -0.00165  -0.00121   0.01093  -0.00972
           A5           0.00094   0.00041  -0.00140  -0.00496   0.00637
           A6           0.07883  -0.00529   0.00045  -0.00156   0.00111
           A7           0.05623  -0.00049   0.00491  -0.00392  -0.00097
           D1           0.00010  -0.00020  -0.00031  -0.00007   0.00023
           D2           0.00033  -0.00057  -0.00050  -0.00008   0.00072
           D3           0.00002   0.00081  -0.00067   0.00026   0.00025
           D4           0.00011   0.00043   0.00020  -0.00013   0.00006
           D5           0.00051   0.00122   0.00028  -0.00045   0.00014
           D6           0.00163   0.00283   0.00211  -0.00646   0.00435
                          A4        A5        A6        A7        D1
           A4           0.34763
           A5          -0.00150   0.02524
           A6           0.00169  -0.00216   0.24264
           A7          -0.00337   0.00216   0.00779   0.17176
           D1          -0.00010  -0.00079  -0.00020  -0.00123   0.01646
           D2           0.00048  -0.00012  -0.00013   0.00223  -0.00659
           D3          -0.00049  -0.00124   0.00061  -0.00275   0.01308
           D4           0.00018  -0.00057   0.00068   0.00097  -0.01156
           D5           0.00090  -0.00418   0.00026  -0.00311   0.00094
           D6           0.00133  -0.00032   0.00549   0.00519   0.00007
                          D2        D3        D4        D5        D6
           D2           0.01636
           D3          -0.01445   0.01886
           D4           0.01007  -0.01058   0.01255
           D5          -0.00347   0.00763   0.00292   0.01027
           D6           0.00007   0.00147   0.00146   0.00304   0.02051
 ITU=  0  0  0
     Eigenvalues ---   -0.10679  -0.00025   0.00835   0.01315   0.01939
     Eigenvalues ---    0.02634   0.05030   0.06964   0.13420   0.15114
     Eigenvalues ---    0.17633   0.21392   0.25768   0.32882   0.43402
     Eigenvalues ---    0.49765   0.51205   1.07285
 Eigenvectors required to have negative eigenvalues:
                          R5        R3        R6        A7        A1
   1                   -0.71701   0.66189   0.16807  -0.08735   0.06444
                          A2        A5        A6        R2        A3
   1                   -0.03821  -0.03814  -0.03692  -0.02668  -0.02622
 RFO step:  Lambda0=4.115845292D-07 Lambda=-2.53394724D-04.
 Linear search not attempted -- option 19 set.
 Iteration  1 RMS(Cart)=  0.02790347 RMS(Int)=  0.09238735
 Iteration  2 RMS(Cart)=  0.01456954 RMS(Int)=  0.01514646
 Iteration  3 RMS(Cart)=  0.00598000 RMS(Int)=  0.00007454
 Iteration  4 RMS(Cart)=  0.00018666 RMS(Int)=  0.00001098
 Iteration  5 RMS(Cart)=  0.00000002 RMS(Int)=  0.00001098
 Variable       Old X    -DE/DX   Delta X   Delta X   Delta X     New X
                                 (Linear)    (Quad)   (Total)
    R1        2.67382   0.00002   0.00000   0.00043   0.00043   2.67425
    R2        2.19539   0.00010   0.00000   0.00008   0.00008   2.19547
    R3        2.60271  -0.00025   0.00000   0.00880   0.00880   2.61151
    R4        2.47135  -0.00001   0.00000  -0.00027  -0.00027   2.47108
    R5        2.16719   0.00003   0.00000  -0.01627  -0.01627   2.15093
    R6        2.59362  -0.00007   0.00000   0.00282   0.00282   2.59644
    R7        1.82627  -0.00001   0.00000  -0.00039  -0.00039   1.82588
    A1        2.21120  -0.00009   0.00000  -0.00007  -0.00009   2.21111
    A2        1.79757   0.00008   0.00000   0.00492   0.00489   1.80246
    A3        2.27441   0.00001   0.00000  -0.00489  -0.00492   2.26949
    A4        1.97447  -0.00007   0.00000  -0.00237  -0.00237   1.97210
    A5        2.93217   0.00003   0.00000   0.04210   0.04210   2.97427
    A6        1.81001   0.00007   0.00000   0.00150   0.00150   1.81150
    A7        1.83016  -0.00005   0.00000   0.00024   0.00024   1.83040
    D1       -0.00876  -0.00003   0.00000  -0.00187  -0.00186  -0.01061
    D2        3.12925  -0.00001   0.00000  -0.01384  -0.01386   3.11539
    D3       -0.07508   0.00000   0.00000  -0.42193  -0.42194  -0.49702
    D4        3.06274   0.00003   0.00000  -0.43450  -0.43449   2.62825
    D5       -0.84980   0.00006   0.00000   0.43971   0.43971  -0.41009
    D6        1.72690   0.00010   0.00000   0.00476   0.00476   1.73166
         Item               Value     Threshold  Converged?
 Maximum Force            0.000249     0.000450     YES
 RMS     Force            0.000079     0.000300     YES
 Maximum Displacement     0.101171     0.001800     NO 
 RMS     Displacement     0.043586     0.001200     NO 
 Predicted change in Energy=-8.459005D-05
 GradGradGradGradGradGradGradGradGradGradGradGradGradGradGradGradGradGrad

                          Input orientation:                          
 ---------------------------------------------------------------------
 Center     Atomic      Atomic             Coordinates (Angstroms)
 Number     Number       Type             X           Y           Z
 ---------------------------------------------------------------------
      1          6           0       -0.552108    0.608329   -0.045786
      2          8           0       -0.866918   -0.763913   -0.188996
      3          8           0       -1.290056    1.465860    0.218474
      4          1           0        0.810439    0.646703   -0.273358
      5          8           0       -2.131137   -1.022710    0.022411
      6          8           0        2.257072   -0.491044    0.500615
      7          8           0        1.932764    0.500282   -0.393761
      8          1           0        2.301963   -1.287482   -0.044583
 ---------------------------------------------------------------------
                    Distance matrix (angstroms):
                    1          2          3          4          5
     1  C    0.000000
     2  O    1.415155   0.000000
     3  O    1.161792   2.305854   0.000000
     4  H    1.381953   2.193281   2.307595   0.000000
     5  O    2.271182   1.307638   2.634167   3.395186   0.000000
     6  O    3.065725   3.210816   4.060935   1.996560   4.446091
     7  O    2.511443   3.078691   3.419611   1.138222   4.359815
     8  H    3.426342   3.215088   4.533507   2.453172   4.441506
                    6          7          8
     6  O    0.000000
     7  O    1.373977   0.000000
     8  H    0.966214   1.858583   0.000000
 Stoichiometry    CH2O5(3)
 Framework group  C1[X(CH2O5)]
 Deg. of freedom    18
 Full point group                 C1      NOp   1
 Largest Abelian subgroup         C1      NOp   1
 Largest concise Abelian subgroup C1      NOp   1
                         Standard orientation:                         
 ---------------------------------------------------------------------
 Center     Atomic      Atomic             Coordinates (Angstroms)
 Number     Number       Type             X           Y           Z
 ---------------------------------------------------------------------
      1          6           0       -0.519418    0.609180   -0.048172
      2          8           0       -0.864812   -0.754671   -0.200742
      3          8           0       -1.236026    1.479470    0.232590
      4          1           0        0.840997    0.621035   -0.290914
      5          8           0       -2.131778   -0.988804    0.022632
      6          8           0        2.271796   -0.554393    0.455702
      7          8           0        1.958548    0.452168   -0.425504
      8          1           0        2.293689   -1.346279   -0.097477
 ---------------------------------------------------------------------
 Rotational constants (GHZ):      6.1311192      1.8715342      1.5007472
 Standard basis: 6-311+G(2df,2p) (5D, 7F)
 There are   222 symmetry adapted basis functions of A   symmetry.
 Integral buffers will be    131072 words long.
 Raffenetti 2 integral format.
 Two-electron integral symmetry is turned on.
   222 basis functions,   334 primitive gaussians,   252 cartesian basis functions
    25 alpha electrons       23 beta electrons
       nuclear repulsion energy       226.8200599270 Hartrees.
 NAtoms=    8 NActive=    8 NUniq=    8 SFac= 1.00D+00 NAtFMM=   50 NAOKFM=F Big=F
 One-electron integrals computed using PRISM.
 NBasis=   222 RedAO= T  NBF=   222
 NBsUse=   222 1.00D-06 NBFU=   222
 Initial guess read from the read-write file.
 B after Tr=     0.000000    0.000000    0.000000
         Rot=    1.000000    0.000000    0.000000    0.000000 Ang=   0.00 deg.
 Initial guess orbital symmetries:
 Alpha Orbitals:
       Occupied  (A) (A) (A) (A) (A) (A) (A) (A) (A) (A) (A) (A)
                 (A) (A) (A) (A) (A) (A) (A) (A) (A) (A) (A) (A)
                 (A)
       Virtual   (A) (A) (A) (A) (A) (A) (A) (A) (A) (A) (A) (A)
                 (A) (A) (A) (A) (A) (A) (A) (A) (A) (A) (A) (A)
                 (A) (A) (A) (A) (A) (A) (A) (A) (A) (A) (A) (A)
                 (A) (A) (A) (A) (A) (A) (A) (A) (A) (A) (A) (A)
                 (A) (A) (A) (A) (A) (A) (A) (A) (A) (A) (A) (A)
                 (A) (A) (A) (A) (A) (A) (A) (A) (A) (A) (A) (A)
                 (A) (A) (A) (A) (A) (A) (A) (A) (A) (A) (A) (A)
                 (A) (A) (A) (A) (A) (A) (A) (A) (A) (A) (A) (A)
                 (A) (A) (A) (A) (A) (A) (A) (A) (A) (A) (A) (A)
[...]
 ---------------------------------------------------------------------
 Rotational constants (GHZ):      6.0960715      1.8877637      1.5069818

 **********************************************************************

            Population analysis using the SCF density.

 **********************************************************************

 Orbital symmetries:
 Alpha Orbitals:
       Occupied  (A) (A) (A) (A) (A) (A) (A) (A) (A) (A) (A) (A)
                 (A) (A) (A) (A) (A) (A) (A) (A) (A) (A) (A) (A)
                 (A)
       Virtual   (A) (A) (A) (A) (A) (A) (A) (A) (A) (A) (A) (A)
                 (A) (A) (A) (A) (A) (A) (A) (A) (A) (A) (A) (A)
                 (A) (A) (A) (A) (A) (A) (A) (A) (A) (A) (A) (A)
                 (A) (A) (A) (A) (A) (A) (A) (A) (A) (A) (A) (A)
                 (A) (A) (A) (A) (A) (A) (A) (A) (A) (A) (A) (A)
                 (A) (A) (A) (A) (A) (A) (A) (A) (A) (A) (A) (A)
                 (A) (A) (A) (A) (A) (A) (A) (A) (A) (A) (A) (A)
                 (A) (A) (A) (A) (A) (A) (A) (A) (A) (A) (A) (A)
                 (A) (A) (A) (A) (A) (A) (A) (A) (A) (A) (A) (A)
                 (A) (A) (A) (A) (A) (A) (A) (A) (A) (A) (A) (A)
                 (A) (A) (A) (A) (A) (A) (A) (A) (A) (A) (A) (A)
                 (A) (A) (A) (A) (A) (A) (A) (A) (A) (A) (A) (A)
                 (A) (A) (A) (A) (A) (A) (A) (A) (A) (A) (A) (A)
                 (A) (A) (A) (A) (A) (A) (A) (A) (A) (A) (A) (A)
                 (A) (A) (A) (A) (A) (A) (A) (A) (A) (A) (A) (A)
                 (A) (A) (A) (A) (A) (A) (A) (A) (A) (A) (A) (A)
                 (A) (A) (A) (A) (A)
 Beta  Orbitals:
       Occupied  (A) (A) (A) (A) (A) (A) (A) (A) (A) (A) (A) (A)
                 (A) (A) (A) (A) (A) (A) (A) (A) (A) (A) (A)
       Virtual   (A) (A) (A) (A) (A) (A) (A) (A) (A) (A) (A) (A)
                 (A) (A) (A) (A) (A) (A) (A) (A) (A) (A) (A) (A)
                 (A) (A) (A) (A) (A) (A) (A) (A) (A) (A) (A) (A)
                 (A) (A) (A) (A) (A) (A) (A) (A) (A) (A) (A) (A)
                 (A) (A) (A) (A) (A) (A) (A) (A) (A) (A) (A) (A)
                 (A) (A) (A) (A) (A) (A) (A) (A) (A) (A) (A) (A)
                 (A) (A) (A) (A) (A) (A) (A) (A) (A) (A) (A) (A)
                 (A) (A) (A) (A) (A) (A) (A) (A) (A) (A) (A) (A)
                 (A) (A) (A) (A) (A) (A) (A) (A) (A) (A) (A) (A)
                 (A) (A) (A) (A) (A) (A) (A) (A) (A) (A) (A) (A)
                 (A) (A) (A) (A) (A) (A) (A) (A) (A) (A) (A) (A)
                 (A) (A) (A) (A) (A) (A) (A) (A) (A) (A) (A) (A)
                 (A) (A) (A) (A) (A) (A) (A) (A) (A) (A) (A) (A)
                 (A) (A) (A) (A) (A) (A) (A) (A) (A) (A) (A) (A)
                 (A) (A) (A) (A) (A) (A) (A) (A) (A) (A) (A) (A)
                 (A) (A) (A) (A) (A) (A) (A) (A) (A) (A) (A) (A)
                 (A) (A) (A) (A) (A) (A) (A)
 The electronic state is 3-A.
 Alpha  occ. eigenvalues --  -19.80514 -19.76024 -19.72872 -19.72794 -19.71437
 Alpha  occ. eigenvalues --  -10.72710  -1.40221  -1.31795  -1.27401  -1.05989
 Alpha  occ. eigenvalues --   -1.02728  -0.75523  -0.69562  -0.66312  -0.64612
 Alpha  occ. eigenvalues --   -0.64487  -0.61568  -0.56517  -0.54652  -0.54170
 Alpha  occ. eigenvalues --   -0.45449  -0.43082  -0.42507  -0.41440  -0.35654
 Alpha virt. eigenvalues --   -0.01390   0.01694   0.02776   0.04799   0.05403
 Alpha virt. eigenvalues --    0.08061   0.10425   0.11841   0.15123   0.16268
 Alpha virt. eigenvalues --    0.17035   0.17821   0.19067   0.20230   0.20714
 Alpha virt. eigenvalues --    0.21168   0.21877   0.22450   0.24864   0.26398
 Alpha virt. eigenvalues --    0.27276   0.27424   0.28772   0.29357   0.30271
 Alpha virt. eigenvalues --    0.32316   0.33947   0.34302   0.39004   0.40349
 Alpha virt. eigenvalues --    0.46059   0.50595   0.55177   0.56667   0.63823
 Alpha virt. eigenvalues --    0.66535   0.70466   0.75321   0.77265   0.78713
 Alpha virt. eigenvalues --    0.80640   0.85385   0.88304   0.93598   0.94254
 Alpha virt. eigenvalues --    0.98138   1.00656   1.02132   1.03554   1.04694
 Alpha virt. eigenvalues --    1.05677   1.07340   1.09344   1.10952   1.12935
 Alpha virt. eigenvalues --    1.13381   1.14777   1.17470   1.18359   1.30880
 Alpha virt. eigenvalues --    1.33747   1.34876   1.39322   1.42303   1.42768
 Alpha virt. eigenvalues --    1.50023   1.52356   1.53363   1.53952   1.55789
 Alpha virt. eigenvalues --    1.58883   1.59889   1.62728   1.68550   1.70716
 Alpha virt. eigenvalues --    1.77509   1.88324   1.93359   1.97095   1.98620
 Alpha virt. eigenvalues --    1.98983   2.11061   2.16995   2.17813   2.23113
 Alpha virt. eigenvalues --    2.25055   2.26691   2.34945   2.42085   2.50611
 Alpha virt. eigenvalues --    2.51999   2.57287   2.61696   2.64875   2.74092
 Alpha virt. eigenvalues --    2.77795   2.95604   2.98193   3.01131   3.11038
 Alpha virt. eigenvalues --    3.17562   3.26092   3.32028   3.35970   3.46221
 Alpha virt. eigenvalues --    3.55018   3.56061   3.58789   3.63990   3.67222
 Alpha virt. eigenvalues --    3.72811   3.78910   3.98016   4.09513   4.11024
 Alpha virt. eigenvalues --    4.25625   4.43797   4.56131   4.57831   4.60862
 Alpha virt. eigenvalues --    4.62029   4.67896   4.71383   4.77051   4.86160
 Alpha virt. eigenvalues --    4.90698   4.94857   4.95412   4.96430   4.99301
 Alpha virt. eigenvalues --    5.00399   5.05123   5.05666   5.07301   5.08152
 Alpha virt. eigenvalues --    5.09611   5.10500   5.12573   5.14530   5.15918
 Alpha virt. eigenvalues --    5.16862   5.20472   5.24517   5.29259   5.30669
 Alpha virt. eigenvalues --    5.31620   5.37154   5.38996   5.43312   5.48353
 Alpha virt. eigenvalues --    5.53496   5.60084   5.65482   5.80491   6.09619
 Alpha virt. eigenvalues --    6.11776   6.24891   6.31680   6.35976   6.42170
 Alpha virt. eigenvalues --    6.47197   6.61884   6.69057   6.71617   6.75666
 Alpha virt. eigenvalues --    6.77440   6.80408   6.81211   6.83706   6.86029
 Alpha virt. eigenvalues --    6.87836   6.92425   6.97042   7.00661   7.01267
 Alpha virt. eigenvalues --    7.06245   7.11165   7.11565   7.22602   7.22998
 Alpha virt. eigenvalues --    7.23927   7.25977   7.36705   7.44767   7.49607
 Alpha virt. eigenvalues --    7.58093   7.64777   7.77926   7.84523   7.86267
 Alpha virt. eigenvalues --    7.91395  24.59164  49.90377  49.94065  49.98233
 Alpha virt. eigenvalues --   49.99511  50.23864
  Beta  occ. eigenvalues --  -19.79779 -19.74420 -19.72553 -19.71988 -19.70995
  Beta  occ. eigenvalues --  -10.72162  -1.36745  -1.30006  -1.25756  -1.01051
  Beta  occ. eigenvalues --   -0.99634  -0.72144  -0.66821  -0.62924  -0.62539
  Beta  occ. eigenvalues --   -0.59628  -0.58399  -0.54142  -0.50527  -0.50084
  Beta  occ. eigenvalues --   -0.41337  -0.40255  -0.37178
  Beta virt. eigenvalues --   -0.14519  -0.12258   0.00848   0.01665   0.03001
  Beta virt. eigenvalues --    0.05091   0.05654   0.08189   0.11126   0.12235
  Beta virt. eigenvalues --    0.15219   0.16187   0.17284   0.18221   0.19577
  Beta virt. eigenvalues --    0.20478   0.21008   0.21709   0.21987   0.23356
  Beta virt. eigenvalues --    0.25354   0.26375   0.27502   0.28011   0.28974
  Beta virt. eigenvalues --    0.29498   0.30272   0.31765   0.34195   0.35153
  Beta virt. eigenvalues --    0.39870   0.40899   0.46284   0.50831   0.55271
  Beta virt. eigenvalues --    0.56738   0.63920   0.67162   0.71545   0.75361
  Beta virt. eigenvalues --    0.77408   0.79103   0.80966   0.85469   0.88497
  Beta virt. eigenvalues --    0.94485   0.95195   0.98304   1.01604   1.03925
  Beta virt. eigenvalues --    1.04279   1.05827   1.06258   1.09025   1.10359
  Beta virt. eigenvalues --    1.11448   1.13619   1.14095   1.15329   1.17950
  Beta virt. eigenvalues --    1.18987   1.32158   1.34853   1.36092   1.40038
  Beta virt. eigenvalues --    1.43867   1.44556   1.50788   1.53198   1.53847
  Beta virt. eigenvalues --    1.54697   1.56576   1.59639   1.60842   1.65103
  Beta virt. eigenvalues --    1.69610   1.71274   1.77902   1.89042   1.94020
  Beta virt. eigenvalues --    1.97848   1.99406   1.99739   2.12133   2.18242
  Beta virt. eigenvalues --    2.18368   2.24212   2.25141   2.27460   2.35376
  Beta virt. eigenvalues --    2.42856   2.50892   2.51547   2.57459   2.61955
  Beta virt. eigenvalues --    2.64325   2.73071   2.77730   2.96564   2.99729
  Beta virt. eigenvalues --    3.02532   3.12934   3.20261   3.27899   3.34349
  Beta virt. eigenvalues --    3.38380   3.47692   3.56165   3.57074   3.60182
  Beta virt. eigenvalues --    3.64130   3.68432   3.72947   3.78939   3.98295
  Beta virt. eigenvalues --    4.09771   4.12366   4.24554   4.47025   4.56379
  Beta virt. eigenvalues --    4.58862   4.60809   4.62576   4.69402   4.71754
  Beta virt. eigenvalues --    4.77210   4.86392   4.91757   4.97626   4.98493
  Beta virt. eigenvalues --    4.99899   5.00902   5.03628   5.06250   5.07695
  Beta virt. eigenvalues --    5.08157   5.09409   5.10233   5.11577   5.14540
  Beta virt. eigenvalues --    5.14988   5.16402   5.17867   5.21318   5.25600
  Beta virt. eigenvalues --    5.29640   5.31066   5.32598   5.37639   5.40380
  Beta virt. eigenvalues --    5.43788   5.48741   5.54110   5.60196   5.66254
  Beta virt. eigenvalues --    5.81354   6.10278   6.12105   6.27372   6.32251
  Beta virt. eigenvalues --    6.36589   6.43890   6.47329   6.70539   6.76275
  Beta virt. eigenvalues --    6.76474   6.79667   6.80916   6.82442   6.83255
  Beta virt. eigenvalues --    6.84489   6.87107   6.89625   6.95118   6.99894
  Beta virt. eigenvalues --    7.02490   7.04262   7.06794   7.12819   7.14001
  Beta virt. eigenvalues --    7.23434   7.24036   7.26257   7.29805   7.38164
  Beta virt. eigenvalues --    7.44704   7.51233   7.58724   7.64668   7.79898
  Beta virt. eigenvalues --    7.84794   7.86364   7.93596  24.59719  49.89982
  Beta virt. eigenvalues --   49.93691  49.97704  49.99092  50.23434
          Condensed to atoms (all electrons):
              1          2          3          4          5          6
     1  C    5.165527   0.089631   0.421893   0.253492  -0.046585   0.031180
     2  O    0.089631   7.778958  -0.055505  -0.028432   0.195393   0.009869
     3  O    0.421893  -0.055505   7.853970   0.004714   0.007287  -0.000699
     4  H    0.253492  -0.028432   0.004714   0.355142   0.000837  -0.042892
     5  O   -0.046585   0.195393   0.007287   0.000837   7.906460   0.001763
     6  O    0.031180   0.009869  -0.000699  -0.042892   0.001763   7.780210
     7  O   -0.038170   0.017933  -0.003765   0.109502   0.001791   0.130660
     8  H   -0.008236   0.002154  -0.000179   0.004796  -0.001220   0.248095
              7          8
     1  C   -0.038170  -0.008236
     2  O    0.017933   0.002154
     3  O   -0.003765  -0.000179
     4  H    0.109502   0.004796
     5  O    0.001791  -0.001220
     6  O    0.130660   0.248095
     7  O    8.097256  -0.043364
     8  H   -0.043364   0.538594
 Mulliken atomic charges:
              1
     1  C    0.131267
     2  O   -0.010002
     3  O   -0.227714
     4  H    0.342842
     5  O   -0.065725
     6  O   -0.158185
     7  O   -0.271844
     8  H    0.259361
 Sum of Mulliken atomic charges =   0.00000
 Mulliken charges with hydrogens summed into heavy atoms:
              1
     1  C    0.131267
     2  O   -0.010002
     3  O   -0.227714
     5  O   -0.065725
     6  O    0.101176
     7  O    0.070998
 Sum of Mulliken charges with hydrogens summed into heavy atoms =   0.00000
          Atomic-Atomic Spin Densities.
              1          2          3          4          5          6
     1  C    0.557711  -0.082373  -0.084357   0.004178   0.021010   0.039980
     2  O   -0.082373   0.440823  -0.006005   0.004377  -0.165043  -0.009471
     3  O   -0.084357  -0.006005   0.251414   0.000258   0.013056  -0.001435
     4  H    0.004178   0.004377   0.000258  -0.095154  -0.000183   0.006508
     5  O    0.021010  -0.165043   0.013056  -0.000183   0.976936   0.002340
     6  O    0.039980  -0.009471  -0.001435   0.006508   0.002340   0.132716
     7  O   -0.085362   0.016078   0.004652   0.025173  -0.004817  -0.065845
     8  H   -0.001525  -0.000096   0.000037   0.001206   0.000030  -0.004625
              7          8
     1  C   -0.085362  -0.001525
     2  O    0.016078  -0.000096
     3  O    0.004652   0.000037
     4  H    0.025173   0.001206
     5  O   -0.004817   0.000030
     6  O   -0.065845  -0.004625
     7  O    0.476746   0.002814
     8  H    0.002814  -0.002311
 Mulliken atomic spin densities:
              1
     1  C    0.369261
     2  O    0.198289
     3  O    0.177619
     4  H   -0.053637
     5  O    0.843330
     6  O    0.100167
     7  O    0.369440
     8  H   -0.004470
 Sum of Mulliken atomic spin densities =   2.00000
 Electronic spatial extent (au):  <R**2>=            704.7068
 Charge=              0.0000 electrons
 Dipole moment (field-independent basis, Debye):
    X=              0.6829    Y=             -1.5523    Z=             -0.7833  Tot=              1.8680
 Quadrupole moment (field-independent basis, Debye-Ang):
   XX=            -38.2044   YY=            -33.1455   ZZ=            -33.0999
   XY=             -3.4842   XZ=             -0.7354   YZ=              0.1190
 Traceless Quadrupole moment (field-independent basis, Debye-Ang):
   XX=             -3.3878   YY=              1.6711   ZZ=              1.7167
   XY=             -3.4842   XZ=             -0.7354   YZ=              0.1190
 Octapole moment (field-independent basis, Debye-Ang**2):
  XXX=              1.2191  YYY=            -10.2742  ZZZ=              0.1737  XYY=             11.2989
  XXY=            -11.5854  XXZ=             -4.2146  XZZ=             -3.0630  YZZ=             -0.7395
  YYZ=             -1.2195  XYZ=              3.0021
 Hexadecapole moment (field-independent basis, Debye-Ang**3):
 XXXX=           -585.1006 YYYY=           -183.1143 ZZZZ=            -42.4785 XXXY=            -21.0861
 XXXZ=             -7.2066 YYYX=            -10.4971 YYYZ=             -1.0114 ZZZX=              0.0944
 ZZZY=              0.4792 XXYY=           -116.0909 XXZZ=           -102.8194 YYZZ=            -36.2341
 XXYZ=              3.9038 YYXZ=             -1.0478 ZZXY=              0.7595
 N-N= 2.270864406501D+02 E-N=-2.131889018011D+03  KE= 6.177604043529D+02
                          Isotropic Fermi Contact Couplings
        Atom                 a.u.       MegaHertz       Gauss      10(-4) cm-1
     1  C(13)              0.37275     209.52085      74.76225      69.88863
     2  O(17)              0.20076     -60.85056     -21.71299     -20.29756
     3  O(17)              0.05971     -18.09858      -6.45802      -6.03704
     4  H(1)              -0.03822     -85.41656     -30.47875     -28.49190
     5  O(17)              0.10449     -31.67060     -11.30086     -10.56417
     6  O(17)              0.01652      -5.00801      -1.78698      -1.67049
     7  O(17)              0.04387     -13.29599      -4.74434      -4.43506
     8  H(1)              -0.00185      -4.12376      -1.47146      -1.37554
 --------------------------------------------------------
       Center         ----  Spin Dipole Couplings  ----
                      3XX-RR        3YY-RR        3ZZ-RR
 --------------------------------------------------------
     1   Atom        0.378223     -0.206652     -0.171572
     2   Atom       -0.733071     -0.126283      0.859354
     3   Atom        0.594123     -0.280081     -0.314042
     4   Atom        0.214713     -0.105423     -0.109290
     5   Atom       -1.532725     -1.445761      2.978486
     6   Atom        0.516173     -0.253892     -0.262281
     7   Atom        1.740637     -0.943229     -0.797408
     8   Atom       -0.003096      0.017767     -0.014671
 --------------------------------------------------------
                        XY            XZ            YZ
 --------------------------------------------------------
     1   Atom       -0.004702     -0.092389     -0.002158
     2   Atom        0.009576      0.308977     -0.161245
     3   Atom        0.411553     -0.078330     -0.053231
     4   Atom       -0.033297     -0.052345      0.003413
     5   Atom        0.038919      0.879525     -0.799132
     6   Atom        0.017413     -0.101576      0.035695
     7   Atom        0.261178     -0.648854     -0.061127
     8   Atom       -0.004920      0.000372      0.010826
 --------------------------------------------------------


 ---------------------------------------------------------------------------------
              Anisotropic Spin Dipole Couplings in Principal Axis System
 ---------------------------------------------------------------------------------

       Atom             a.u.   MegaHertz   Gauss  10(-4) cm-1        Axes

              Baa    -0.2071   -27.790    -9.916    -9.270  0.0296  0.9901  0.1372
     1 C(13)  Bbb    -0.1863   -24.996    -8.919    -8.338  0.1588 -0.1401  0.9773
              Bcc     0.3934    52.786    18.835    17.607  0.9869 -0.0072 -0.1614
 
              Baa    -0.7933    57.400    20.482    19.147  0.9801 -0.0598 -0.1891
     2 O(17)  Bbb    -0.1470    10.636     3.795     3.548  0.0857  0.9875  0.1319
              Bcc     0.9403   -68.036   -24.277   -22.694  0.1788 -0.1455  0.9731
 
              Baa    -0.4467    32.324    11.534    10.782 -0.3523  0.9218  0.1618
     3 O(17)  Bbb    -0.3186    23.052     8.226     7.689  0.1384 -0.1197  0.9831
              Bcc     0.7653   -55.377   -19.760   -18.472  0.9256  0.3687 -0.0854
 
              Baa    -0.1179   -62.902   -22.445   -20.982  0.1714  0.1932  0.9661
     4 H(1)   Bbb    -0.1084   -57.855   -20.644   -19.298  0.0670  0.9760 -0.2071
              Bcc     0.2263   120.757    43.089    40.280  0.9829 -0.1002 -0.1543
 
              Baa    -1.8299   132.411    47.248    44.168  0.7819 -0.5758 -0.2387
     5 O(17)  Bbb    -1.4425   104.380    37.245    34.817  0.5979  0.8012  0.0259
              Bcc     3.2724  -236.791   -84.493   -78.985  0.1764 -0.1630  0.9707
 
              Baa    -0.3038    21.982     7.844     7.332  0.1106 -0.6035  0.7897
     6 O(17)  Bbb    -0.2256    16.326     5.826     5.446  0.0635  0.7972  0.6004
              Bcc     0.5294   -38.308   -13.669   -12.778  0.9918  0.0163 -0.1265
 
              Baa    -0.9685    70.083    25.007    23.377 -0.1168  0.9891 -0.0896
     7 O(17)  Bbb    -0.9535    68.992    24.618    23.013  0.2222  0.1140  0.9683
              Bcc     1.9220  -139.075   -49.625   -46.390  0.9680  0.0932 -0.2331
 
              Baa    -0.0182    -9.695    -3.459    -3.234 -0.1217 -0.3015  0.9456
     8 H(1)   Bbb    -0.0037    -1.988    -0.710    -0.663  0.9758  0.1379  0.1696
              Bcc     0.0219    11.683     4.169     3.897 -0.1816  0.9434  0.2775
 

 ---------------------------------------------------------------------------------

 1\1\GINC-COMPUTE-3-046\FTS\UM062X\6-311+G(2df,2p)\C1H2O5(3)\ROOT\03-Au
 g-2017\0\\# m062x/6-311+g(2df,2p) opt=(ts,calcfc,noeigentest)\\[O]O+[O
 ]OC=O_OO+[O]O[C]=O\\0,3\C,-0.5492618996,0.6200245078,-0.0341933332\O,-
 0.8366312097,-0.7587332742,-0.1699440715\O,-1.3089466091,1.4677127171,
 0.1982460318\H,0.8122539516,0.6759496274,-0.2383922109\O,-2.1014349855
 ,-1.0393384131,0.0083552639\O,2.2640916887,-0.4938355539,0.4863879321\
 O,1.9285742557,0.4870800121,-0.4133498372\H,2.2533738081,-1.3028346231
 ,-0.0420947752\\Version=EM64L-G09RevB.01\State=3-A\HF=-415.0879125\S2=
 2.015117\S2-1=0.\S2A=2.000117\RMSD=5.976e-09\RMSF=2.037e-05\Dipole=0.2
 799895,-0.6111525,-0.2970204\Quadrupole=-2.4353976,1.1712074,1.2641902
 ,-2.6503403,-0.5452581,0.0575688\PG=C01 [X(C1H2O5)]\\@


 DEMOCRATS BUY MOST OF THE BOOKS THAT HAVE BEEN
 BANNED; REPUBLICANS FORM CENSORSHIP COMMITTEES AND
 READ THEM AS A GROUP.
 Job cpu time:  0 days  4 hours 38 minutes 30.2 seconds.
 File lengths (MBytes):  RWF=   2416 Int=      0 D2E=      0 Chk=     32 Scr=     32
 Normal termination of Gaussian 09 at Thu Aug  3 16:39:28 2017.
