 Entering Gaussian System, Link 0=/shared/apps/gaussian/G09_LINUX_LINDA/g09/g09
 Input=/gss_gpfs_scratch/harms.n/QMscratch/[O]O+[O]OCO_OO+[O]O[CH]O.gjf
 Output=/gss_gpfs_scratch/harms.n/QMscratch/[O]O+[O]OCO_OO+[O]O[CH]O.log
 Initial command:
 /shared/apps/gaussian/G09_LINUX_LINDA/g09/l1.exe /gss_gpfs_scratch/harms.n/comparerTST/Gau-21732.inp -scrdir=/gss_gpfs_scratch/harms.n/comparerTST/
 Entering Link 1 = /shared/apps/gaussian/G09_LINUX_LINDA/g09/l1.exe PID=     21734.
  
 Copyright (c) 1988,1990,1992,1993,1995,1998,2003,2009,2010,
            Gaussian, Inc.  All Rights Reserved.
  
 This is part of the Gaussian(R) 09 program.  It is based on
 the Gaussian(R) 03 system (copyright 2003, Gaussian, Inc.),
 the Gaussian(R) 98 system (copyright 1998, Gaussian, Inc.),
 the Gaussian(R) 94 system (copyright 1995, Gaussian, Inc.),
 the Gaussian 92(TM) system (copyright 1992, Gaussian, Inc.),
 the Gaussian 90(TM) system (copyright 1990, Gaussian, Inc.),
 the Gaussian 88(TM) system (copyright 1988, Gaussian, Inc.),
 the Gaussian 86(TM) system (copyright 1986, Carnegie Mellon
 University), and the Gaussian 82(TM) system (copyright 1983,
 Carnegie Mellon University). Gaussian is a federally registered
 trademark of Gaussian, Inc.
  
 This software contains proprietary and confidential information,
 including trade secrets, belonging to Gaussian, Inc.
  
 This software is provided under written license and may be
 used, copied, transmitted, or stored only in accord with that
 written license.
  
 The following legend is applicable only to US Government
 contracts under FAR:
  
                    RESTRICTED RIGHTS LEGEND
  
 Use, reproduction and disclosure by the US Government is
 subject to restrictions as set forth in subparagraphs (a)
 and (c) of the Commercial Computer Software - Restricted
 Rights clause in FAR 52.227-19.
  
 Gaussian, Inc.
 340 Quinnipiac St., Bldg. 40, Wallingford CT 06492
  
  
 ---------------------------------------------------------------
 Warning -- This program may not be used in any manner that
 competes with the business of Gaussian, Inc. or will provide
 assistance to any competitor of Gaussian, Inc.  The licensee
 of this program is prohibited from giving any competitor of
 Gaussian, Inc. access to this program.  By using this program,
 the user acknowledges that Gaussian, Inc. is engaged in the
 business of creating and licensing software in the field of
 computational chemistry and represents and warrants to the
 licensee that it is not a competitor of Gaussian, Inc. and that
 it will not use this program in any manner prohibited above.
 ---------------------------------------------------------------
  

 Cite this work as:
 Gaussian 09, Revision B.01,
 M. J. Frisch, G. W. Trucks, H. B. Schlegel, G. E. Scuseria, 
 M. A. Robb, J. R. Cheeseman, G. Scalmani, V. Barone, B. Mennucci, 
 G. A. Petersson, H. Nakatsuji, M. Caricato, X. Li, H. P. Hratchian, 
 A. F. Izmaylov, J. Bloino, G. Zheng, J. L. Sonnenberg, M. Hada, 
 M. Ehara, K. Toyota, R. Fukuda, J. Hasegawa, M. Ishida, T. Nakajima, 
 Y. Honda, O. Kitao, H. Nakai, T. Vreven, J. A. Montgomery, Jr., 
 J. E. Peralta, F. Ogliaro, M. Bearpark, J. J. Heyd, E. Brothers, 
 K. N. Kudin, V. N. Staroverov, T. Keith, R. Kobayashi, J. Normand, 
 K. Raghavachari, A. Rendell, J. C. Burant, S. S. Iyengar, J. Tomasi, 
 M. Cossi, N. Rega, J. M. Millam, M. Klene, J. E. Knox, J. B. Cross, 
 V. Bakken, C. Adamo, J. Jaramillo, R. Gomperts, R. E. Stratmann, 
 O. Yazyev, A. J. Austin, R. Cammi, C. Pomelli, J. W. Ochterski, 
 R. L. Martin, K. Morokuma, V. G. Zakrzewski, G. A. Voth, 
 P. Salvador, J. J. Dannenberg, S. Dapprich, A. D. Daniels, 
 O. Farkas, J. B. Foresman, J. V. Ortiz, J. Cioslowski, 
 and D. J. Fox, Gaussian, Inc., Wallingford CT, 2010.
 
 ******************************************
 Gaussian 09:  EM64L-G09RevB.01 12-Aug-2010
                 3-Aug-2017 
 ******************************************
 %nprocshared=20
 Will use up to   20 processors via shared memory.
 %mem=5GB
 %chk=/gss_gpfs_scratch/harms.n/QMscratch/[O]O+[O]OCO_OO+[O]O[CH]O
 --------------------------------------------------------
 # m062x/6-311+g(2df,2p) opt=(ts,calcfc,noeigentest) freq
 --------------------------------------------------------
 1/5=1,10=4,11=1,14=-1,18=20,26=3,38=1/1,3;
 2/9=110,12=2,17=6,18=5,40=1/2;
 3/5=4,6=6,7=214,11=2,16=1,25=1,30=1,71=2,74=-55/1,2,3;
 4//1;
 5/5=2,38=5/2;
 8/6=4,10=90,11=11/1;
 11/6=1,8=1,9=11,15=111,16=1/1,2,10;
 10/6=1,7=6,13=1/2;
 6/7=2,8=2,9=2,10=2,28=1/1;
 7/10=1,18=20,25=1/1,2,3,16;
 1/5=1,10=4,11=1,14=-1,18=20/3(2);
 2/9=110/2;
 99//99;
 2/9=110/2;
 3/5=4,6=6,7=214,11=2,16=1,25=1,30=1,71=1,74=-55/1,2,3;
 4/5=5,16=3/1;
 5/5=2,38=5/2;
 7//1,2,3,16;
 1/5=1,11=1,14=-1,18=20/3(-5);
 2/9=110/2;
 6/7=2,8=2,9=2,10=2,19=2,28=1/1;
 99/9=1/99;
 ------------------------
 [O]O+[O]OCO_OO+[O]O[CH]O
 ------------------------
 Symbolic Z-matrix:
 Charge =  0 Multiplicity = 3
 C                    -0.74103   0.71049   0.50125 
 O                    -1.52617  -0.4807    0.30396 
 O                    -0.50929   1.40196  -0.6172 
 H                     0.46665   0.26323   0.91728 
 H                    -1.23511   1.2844    1.27958 
 O                    -0.88855  -1.35715  -0.415 
 H                     0.1991    0.9659   -1.12216 
 O                     1.79339  -0.15775  -0.5255 
 O                     1.56992  -0.1225    0.83984 
 H                     1.50122  -1.04733  -0.77104 
 

 GradGradGradGradGradGradGradGradGradGradGradGradGradGradGradGradGradGrad
 Berny optimization.
 Initialization pass.
                           ----------------------------
                           !    Initial Parameters    !
                           ! (Angstroms and Degrees)  !
 --------------------------                            --------------------------
 ! Name  Definition              Value          Derivative Info.                !
 --------------------------------------------------------------------------------
 ! R1    R(1,2)                  1.4402         calculate D2E/DX2 analytically  !
 ! R2    R(1,3)                  1.3352         calculate D2E/DX2 analytically  !
 ! R3    R(1,4)                  1.3534         calculate D2E/DX2 analytically  !
 ! R4    R(1,5)                  1.0859         calculate D2E/DX2 analytically  !
 ! R5    R(2,6)                  1.3006         calculate D2E/DX2 analytically  !
 ! R6    R(3,7)                  0.9731         calculate D2E/DX2 analytically  !
 ! R7    R(4,9)                  1.1713         calculate D2E/DX2 analytically  !
 ! R8    R(8,9)                  1.384          calculate D2E/DX2 analytically  !
 ! R9    R(8,10)                 0.968          calculate D2E/DX2 analytically  !
 ! A1    A(2,1,3)              114.0916         calculate D2E/DX2 analytically  !
 ! A2    A(2,1,4)              104.7873         calculate D2E/DX2 analytically  !
 ! A3    A(2,1,5)              106.6937         calculate D2E/DX2 analytically  !
 ! A4    A(3,1,4)              105.8883         calculate D2E/DX2 analytically  !
 ! A5    A(3,1,5)              113.9322         calculate D2E/DX2 analytically  !
 ! A6    A(4,1,5)              111.1204         calculate D2E/DX2 analytically  !
 ! A7    A(1,2,6)              111.4578         calculate D2E/DX2 analytically  !
 ! A8    A(1,3,7)              109.2055         calculate D2E/DX2 analytically  !
 ! A9    A(1,4,9)              158.282          calculate D2E/DX2 analytically  !
 ! A10   A(9,8,10)             102.9983         calculate D2E/DX2 analytically  !
 ! A11   A(4,9,8)              103.0442         calculate D2E/DX2 analytically  !
 ! D1    D(3,1,2,6)             65.7852         calculate D2E/DX2 analytically  !
 ! D2    D(4,1,2,6)            -49.5676         calculate D2E/DX2 analytically  !
 ! D3    D(5,1,2,6)           -167.4873         calculate D2E/DX2 analytically  !
 ! D4    D(2,1,3,7)            -78.0066         calculate D2E/DX2 analytically  !
 ! D5    D(4,1,3,7)             36.6995         calculate D2E/DX2 analytically  !
 ! D6    D(5,1,3,7)            159.1252         calculate D2E/DX2 analytically  !
 ! D7    D(2,1,4,9)             89.1888         calculate D2E/DX2 analytically  !
 ! D8    D(3,1,4,9)            -31.7475         calculate D2E/DX2 analytically  !
 ! D9    D(5,1,4,9)           -155.9479         calculate D2E/DX2 analytically  !
 ! D10   D(1,4,9,8)             -0.9841         calculate D2E/DX2 analytically  !
 ! D11   D(10,8,9,4)           -89.0553         calculate D2E/DX2 analytically  !
 --------------------------------------------------------------------------------
 Trust Radius=3.00D-01 FncErr=1.00D-07 GrdErr=1.00D-06
 Number of steps in this run=     41 maximum allowed number of steps=    100.
 Search for a saddle point of order  1.
 GradGradGradGradGradGradGradGradGradGradGradGradGradGradGradGradGradGrad

                          Input orientation:                          
 ---------------------------------------------------------------------
 Center     Atomic      Atomic             Coordinates (Angstroms)
 Number     Number       Type             X           Y           Z
 ---------------------------------------------------------------------
      1          6           0       -0.741034    0.710489    0.501248
      2          8           0       -1.526165   -0.480703    0.303960
      3          8           0       -0.509289    1.401956   -0.617199
      4          1           0        0.466649    0.263228    0.917275
      5          1           0       -1.235113    1.284397    1.279576
      6          8           0       -0.888553   -1.357146   -0.414996
      7          1           0        0.199101    0.965897   -1.122157
      8          8           0        1.793385   -0.157751   -0.525496
      9          8           0        1.569915   -0.122496    0.839838
     10          1           0        1.501224   -1.047331   -0.771035
 ---------------------------------------------------------------------
                    Distance matrix (angstroms):
                    1          2          3          4          5
     1  C    0.000000
     2  O    1.440240   0.000000
     3  O    1.335199   2.329587   0.000000
     4  H    1.353373   2.213797   2.145639   0.000000
     5  H    1.085946   2.037674   2.034305   2.017435   0.000000
     6  O    2.266358   1.300615   2.792377   2.497425   3.157440
     7  H    1.893286   2.665146   0.973112   2.173616   2.815446
     8  O    2.869028   3.436816   2.782697   2.004754   3.809183
     9  O    2.479716   3.162466   2.961419   1.171314   3.168738
    10  H    3.120313   3.262172   3.172512   2.374511   4.138780
                    6          7          8          9         10
     6  O    0.000000
     7  H    2.660751   0.000000
     8  O    2.939992   2.039689   0.000000
     9  O    3.023745   2.629288   1.383950   0.000000
    10  H    2.435936   2.423200   0.967988   1.858750   0.000000
 Stoichiometry    CH4O5(3)
 Framework group  C1[X(CH4O5)]
 Deg. of freedom    24
 Full point group                 C1      NOp   1
 Largest Abelian subgroup         C1      NOp   1
 Largest concise Abelian subgroup C1      NOp   1
                         Standard orientation:                         
 ---------------------------------------------------------------------
 Center     Atomic      Atomic             Coordinates (Angstroms)
 Number     Number       Type             X           Y           Z
 ---------------------------------------------------------------------
      1          6           0       -0.741034    0.710489    0.501248
      2          8           0       -1.526165   -0.480703    0.303960
      3          8           0       -0.509289    1.401956   -0.617199
      4          1           0        0.466649    0.263228    0.917275
      5          1           0       -1.235113    1.284397    1.279576
      6          8           0       -0.888553   -1.357146   -0.414996
      7          1           0        0.199101    0.965897   -1.122157
      8          8           0        1.793385   -0.157751   -0.525496
      9          8           0        1.569915   -0.122496    0.839838
     10          1           0        1.501224   -1.047331   -0.771035
 ---------------------------------------------------------------------
 Rotational constants (GHZ):      4.6663202      2.6742492      2.1905503
 Standard basis: 6-311+G(2df,2p) (5D, 7F)
 There are   240 symmetry adapted basis functions of A   symmetry.
 Integral buffers will be    131072 words long.
 Raffenetti 2 integral format.
 Two-electron integral symmetry is turned on.
   240 basis functions,   356 primitive gaussians,   270 cartesian basis functions
    26 alpha electrons       24 beta electrons
       nuclear repulsion energy       261.7488741178 Hartrees.
 NAtoms=   10 NActive=   10 NUniq=   10 SFac= 1.00D+00 NAtFMM=   50 NAOKFM=F Big=F
 One-electron integrals computed using PRISM.
 NBasis=   240 RedAO= T  NBF=   240
 NBsUse=   240 1.00D-06 NBFU=   240
 Harris functional with IExCor= 1009 diagonalized for initial guess.
 ExpMin= 4.38D-02 ExpMax= 8.59D+03 ExpMxC= 1.30D+03 IAcc=2 IRadAn=         0 AccDes= 0.00D+00
 HarFok:  IExCor= 1009 AccDes= 0.00D+00 IRadAn=         0 IDoV= 1
 ScaDFX=  1.000000  1.000000  1.000000  1.000000
 FoFCou: FMM=F IPFlag=           0 FMFlag=      100000 FMFlg1=           0
         NFxFlg=           0 DoJE=T BraDBF=F KetDBF=T FulRan=T
         Omega=  0.000000  0.000000  1.000000  0.000000  0.000000 ICntrl=     500 IOpCl=  0
         NMat0=    1 NMatS0=    1 NMatT0=    0 NMatD0=    1 NMtDS0=    0 NMtDT0=    0
         I1Cent=           4 NGrid=           0.
 Petite list used in FoFCou.
 Initial guess orbital symmetries:
 Alpha Orbitals:
       Occupied  (A) (A) (A) (A) (A) (A) (A) (A) (A) (A) (A) (A)
                 (A) (A) (A) (A) (A) (A) (A) (A) (A) (A) (A) (A)
                 (A) (A)
       Virtual   (A) (A) (A) (A) (A) (A) (A) (A) (A) (A) (A) (A)
                 (A) (A) (A) (A) (A) (A) (A) (A) (A) (A) (A) (A)
                 (A) (A) (A) (A) (A) (A) (A) (A) (A) (A) (A) (A)
                 (A) (A) (A) (A) (A) (A) (A) (A) (A) (A) (A) (A)
                 (A) (A) (A) (A) (A) (A) (A) (A) (A) (A) (A) (A)
                 (A) (A) (A) (A) (A) (A) (A) (A) (A) (A) (A) (A)
                 (A) (A) (A) (A) (A) (A) (A) (A) (A) (A) (A) (A)
                 (A) (A) (A) (A) (A) (A) (A) (A) (A) (A) (A) (A)
                 (A) (A) (A) (A) (A) (A) (A) (A) (A) (A) (A) (A)
                 (A) (A) (A) (A) (A) (A) (A) (A) (A) (A) (A) (A)
                 (A) (A) (A) (A) (A) (A) (A) (A) (A) (A) (A) (A)
                 (A) (A) (A) (A) (A) (A) (A) (A) (A) (A) (A) (A)
                 (A) (A) (A) (A) (A) (A) (A) (A) (A) (A) (A) (A)
                 (A) (A) (A) (A) (A) (A) (A) (A) (A) (A) (A) (A)
                 (A) (A) (A) (A) (A) (A) (A) (A) (A) (A) (A) (A)
                 (A) (A) (A) (A) (A) (A) (A) (A) (A) (A) (A) (A)
                 (A) (A) (A) (A) (A) (A) (A) (A) (A) (A) (A) (A)
                 (A) (A) (A) (A) (A) (A) (A) (A) (A) (A)
 Beta  Orbitals:
       Occupied  (A) (A) (A) (A) (A) (A) (A) (A) (A) (A) (A) (A)
                 (A) (A) (A) (A) (A) (A) (A) (A) (A) (A) (A) (A)
       Virtual   (A) (A) (A) (A) (A) (A) (A) (A) (A) (A) (A) (A)
                 (A) (A) (A) (A) (A) (A) (A) (A) (A) (A) (A) (A)
                 (A) (A) (A) (A) (A) (A) (A) (A) (A) (A) (A) (A)
                 (A) (A) (A) (A) (A) (A) (A) (A) (A) (A) (A) (A)
                 (A) (A) (A) (A) (A) (A) (A) (A) (A) (A) (A) (A)
                 (A) (A) (A) (A) (A) (A) (A) (A) (A) (A) (A) (A)
                 (A) (A) (A) (A) (A) (A) (A) (A) (A) (A) (A) (A)
                 (A) (A) (A) (A) (A) (A) (A) (A) (A) (A) (A) (A)
                 (A) (A) (A) (A) (A) (A) (A) (A) (A) (A) (A) (A)
                 (A) (A) (A) (A) (A) (A) (A) (A) (A) (A) (A) (A)
                 (A) (A) (A) (A) (A) (A) (A) (A) (A) (A) (A) (A)
                 (A) (A) (A) (A) (A) (A) (A) (A) (A) (A) (A) (A)
                 (A) (A) (A) (A) (A) (A) (A) (A) (A) (A) (A) (A)
                 (A) (A) (A) (A) (A) (A) (A) (A) (A) (A) (A) (A)
                 (A) (A) (A) (A) (A) (A) (A) (A) (A) (A) (A) (A)
                 (A) (A) (A) (A) (A) (A) (A) (A) (A) (A) (A) (A)
                 (A) (A) (A) (A) (A) (A) (A) (A) (A) (A) (A) (A)
                 (A) (A) (A) (A) (A) (A) (A) (A) (A) (A) (A) (A)
 The electronic state of the initial guess is 3-A.
 Initial guess <Sx>= 0.0000 <Sy>= 0.0000 <Sz>= 1.0000 <S**2>= 2.0000 S= 1.0000
 Requested convergence on RMS density matrix=1.00D-08 within 128 cycles.
 Requested convergence on MAX density matrix=1.00D-06.
 Requested convergence on             energy=1.00D-06.
 No special actions if energy rises.
 Restarting incremental Fock formation.
 SCF Done:  E(UM062X) =  -416.302526815     A.U. after   21 cycles
             Convg  =    0.4538D-08             -V/T =  2.0027
 <Sx>= 0.0000 <Sy>= 0.0000 <Sz>= 1.0000 <S**2>= 2.0142 S= 1.0047
 <L.S>= 0.000000000000E+00
 Annihilation of the first spin contaminant:
 S**2 before annihilation     2.0142,   after     2.0001
 Range of M.O.s used for correlation:     1   240
 NBasis=   240 NAE=    26 NBE=    24 NFC=     0 NFV=     0
 NROrb=    240 NOA=    26 NOB=    24 NVA=   214 NVB=   216

 **** Warning!!: The largest alpha MO coefficient is  0.16907010D+02


 **** Warning!!: The largest beta MO coefficient is  0.15927196D+02

 Symmetrizing basis deriv contribution to polar:
 IMax=3 JMax=2 DiffMx= 0.00D+00
 G2DrvN: will do    11 centers at a time, making    1 passes doing MaxLOS=3.
 Calling FoFCou, ICntrl=  3107 FMM=F I1Cent=   0 AccDes= 0.00D+00.
 FoFDir/FoFCou used for L=0 through L=3.
 End of G2Drv Frequency-dependent properties file   721 does not exist.
 End of G2Drv Frequency-dependent properties file   722 does not exist.
          IDoAtm=1111111111
          Differentiating once with respect to nuclear coordinates.
          There are    33 degrees of freedom in the 1st order CPHF.  IDoFFX=5.
     27 vectors produced by pass  0 Test12= 3.26D-10 3.03D-07 XBig12= 2.19D-01 2.50D-01.
 AX will form    27 AO Fock derivatives at one time.
     27 vectors produced by pass  1 Test12= 3.26D-10 3.03D-07 XBig12= 2.59D-02 4.64D-02.
     27 vectors produced by pass  2 Test12= 3.26D-10 3.03D-07 XBig12= 1.77D-03 1.29D-02.
     27 vectors produced by pass  3 Test12= 3.26D-10 3.03D-07 XBig12= 3.12D-05 1.10D-03.
     27 vectors produced by pass  4 Test12= 3.26D-10 3.03D-07 XBig12= 6.73D-07 1.20D-04.
     27 vectors produced by pass  5 Test12= 3.26D-10 3.03D-07 XBig12= 1.50D-08 1.27D-05.
      8 vectors produced by pass  6 Test12= 3.26D-10 3.03D-07 XBig12= 2.71D-10 2.42D-06.
 Inverted reduced A of dimension   170 with in-core refinement.
 End of Minotr Frequency-dependent properties file   721 does not exist.
 End of Minotr Frequency-dependent properties file   722 does not exist.

 **********************************************************************

            Population analysis using the SCF density.

 **********************************************************************

 Orbital symmetries:
 Alpha Orbitals:
       Occupied  (A) (A) (A) (A) (A) (A) (A) (A) (A) (A) (A) (A)
                 (A) (A) (A) (A) (A) (A) (A) (A) (A) (A) (A) (A)
                 (A) (A)
       Virtual   (A) (A) (A) (A) (A) (A) (A) (A) (A) (A) (A) (A)
                 (A) (A) (A) (A) (A) (A) (A) (A) (A) (A) (A) (A)
                 (A) (A) (A) (A) (A) (A) (A) (A) (A) (A) (A) (A)
                 (A) (A) (A) (A) (A) (A) (A) (A) (A) (A) (A) (A)
                 (A) (A) (A) (A) (A) (A) (A) (A) (A) (A) (A) (A)
                 (A) (A) (A) (A) (A) (A) (A) (A) (A) (A) (A) (A)
                 (A) (A) (A) (A) (A) (A) (A) (A) (A) (A) (A) (A)
                 (A) (A) (A) (A) (A) (A) (A) (A) (A) (A) (A) (A)
                 (A) (A) (A) (A) (A) (A) (A) (A) (A) (A) (A) (A)
                 (A) (A) (A) (A) (A) (A) (A) (A) (A) (A) (A) (A)
                 (A) (A) (A) (A) (A) (A) (A) (A) (A) (A) (A) (A)
                 (A) (A) (A) (A) (A) (A) (A) (A) (A) (A) (A) (A)
                 (A) (A) (A) (A) (A) (A) (A) (A) (A) (A) (A) (A)
                 (A) (A) (A) (A) (A) (A) (A) (A) (A) (A) (A) (A)
                 (A) (A) (A) (A) (A) (A) (A) (A) (A) (A) (A) (A)
                 (A) (A) (A) (A) (A) (A) (A) (A) (A) (A) (A) (A)
                 (A) (A) (A) (A) (A) (A) (A) (A) (A) (A) (A) (A)
                 (A) (A) (A) (A) (A) (A) (A) (A) (A) (A)
 Beta  Orbitals:
       Occupied  (A) (A) (A) (A) (A) (A) (A) (A) (A) (A) (A) (A)
                 (A) (A) (A) (A) (A) (A) (A) (A) (A) (A) (A) (A)
       Virtual   (A) (A) (A) (A) (A) (A) (A) (A) (A) (A) (A) (A)
                 (A) (A) (A) (A) (A) (A) (A) (A) (A) (A) (A) (A)
                 (A) (A) (A) (A) (A) (A) (A) (A) (A) (A) (A) (A)
                 (A) (A) (A) (A) (A) (A) (A) (A) (A) (A) (A) (A)
                 (A) (A) (A) (A) (A) (A) (A) (A) (A) (A) (A) (A)
                 (A) (A) (A) (A) (A) (A) (A) (A) (A) (A) (A) (A)
                 (A) (A) (A) (A) (A) (A) (A) (A) (A) (A) (A) (A)
                 (A) (A) (A) (A) (A) (A) (A) (A) (A) (A) (A) (A)
                 (A) (A) (A) (A) (A) (A) (A) (A) (A) (A) (A) (A)
                 (A) (A) (A) (A) (A) (A) (A) (A) (A) (A) (A) (A)
                 (A) (A) (A) (A) (A) (A) (A) (A) (A) (A) (A) (A)
                 (A) (A) (A) (A) (A) (A) (A) (A) (A) (A) (A) (A)
                 (A) (A) (A) (A) (A) (A) (A) (A) (A) (A) (A) (A)
                 (A) (A) (A) (A) (A) (A) (A) (A) (A) (A) (A) (A)
                 (A) (A) (A) (A) (A) (A) (A) (A) (A) (A) (A) (A)
                 (A) (A) (A) (A) (A) (A) (A) (A) (A) (A) (A) (A)
                 (A) (A) (A) (A) (A) (A) (A) (A) (A) (A) (A) (A)
                 (A) (A) (A) (A) (A) (A) (A) (A) (A) (A) (A) (A)
 The electronic state is 3-A.
 Alpha  occ. eigenvalues --  -19.77455 -19.73205 -19.72143 -19.71303 -19.68819
 Alpha  occ. eigenvalues --  -10.68639  -1.37643  -1.30327  -1.22967  -1.02926
 Alpha  occ. eigenvalues --   -1.01456  -0.79884  -0.70101  -0.66204  -0.64666
 Alpha  occ. eigenvalues --   -0.63736  -0.61298  -0.56109  -0.55260  -0.54276
 Alpha  occ. eigenvalues --   -0.47182  -0.44890  -0.40762  -0.40509  -0.39739
 Alpha  occ. eigenvalues --   -0.32215
 Alpha virt. eigenvalues --    0.01532   0.01802   0.04348   0.04564   0.06966
 Alpha virt. eigenvalues --    0.09777   0.11680   0.15184   0.15942   0.17345
 Alpha virt. eigenvalues --    0.17808   0.18217   0.18580   0.20084   0.20719
 Alpha virt. eigenvalues --    0.21074   0.22660   0.23303   0.23949   0.24917
 Alpha virt. eigenvalues --    0.25067   0.27567   0.28091   0.29324   0.30558
 Alpha virt. eigenvalues --    0.31958   0.32279   0.33185   0.34385   0.37067
 Alpha virt. eigenvalues --    0.38534   0.42616   0.47579   0.51479   0.53319
 Alpha virt. eigenvalues --    0.58933   0.60011   0.60751   0.64552   0.66448
 Alpha virt. eigenvalues --    0.72021   0.74606   0.74998   0.79262   0.81217
 Alpha virt. eigenvalues --    0.88876   0.91218   0.95516   0.96766   0.97318
 Alpha virt. eigenvalues --    0.98462   1.01541   1.03112   1.05386   1.06527
 Alpha virt. eigenvalues --    1.08280   1.09558   1.10378   1.12816   1.13394
 Alpha virt. eigenvalues --    1.15453   1.17719   1.18925   1.20707   1.24716
 Alpha virt. eigenvalues --    1.25725   1.30430   1.32869   1.37987   1.41596
 Alpha virt. eigenvalues --    1.42802   1.48289   1.49819   1.52435   1.54325
 Alpha virt. eigenvalues --    1.56203   1.59916   1.60275   1.61942   1.62853
 Alpha virt. eigenvalues --    1.66115   1.72505   1.77157   1.82888   1.86628
 Alpha virt. eigenvalues --    1.94107   1.98725   2.00456   2.05003   2.09063
 Alpha virt. eigenvalues --    2.16337   2.19083   2.20119   2.24865   2.25882
 Alpha virt. eigenvalues --    2.30894   2.33084   2.37910   2.38424   2.46073
 Alpha virt. eigenvalues --    2.57066   2.59757   2.61092   2.73192   2.76038
 Alpha virt. eigenvalues --    2.85579   3.06620   3.11070   3.17276   3.22127
 Alpha virt. eigenvalues --    3.28079   3.33444   3.38542   3.41767   3.44080
 Alpha virt. eigenvalues --    3.52951   3.57889   3.61163   3.64925   3.66823
 Alpha virt. eigenvalues --    3.72664   3.75849   3.79444   3.85203   3.87783
 Alpha virt. eigenvalues --    3.99900   4.04582   4.12729   4.18772   4.21437
 Alpha virt. eigenvalues --    4.29483   4.38799   4.47519   4.57535   4.61493
 Alpha virt. eigenvalues --    4.63199   4.64381   4.71383   4.72506   4.78171
 Alpha virt. eigenvalues --    4.87700   4.89229   4.98547   4.98745   4.99370
 Alpha virt. eigenvalues --    5.05014   5.08424   5.09256   5.10727   5.11885
 Alpha virt. eigenvalues --    5.14322   5.14770   5.15434   5.16726   5.19359
 Alpha virt. eigenvalues --    5.21183   5.22081   5.25058   5.28140   5.30640
 Alpha virt. eigenvalues --    5.30981   5.36495   5.39090   5.44560   5.51878
 Alpha virt. eigenvalues --    5.52775   5.55455   5.61087   5.62985   5.66432
 Alpha virt. eigenvalues --    5.97562   6.04774   6.08724   6.09302   6.24723
 Alpha virt. eigenvalues --    6.34269   6.36993   6.48519   6.61362   6.69220
 Alpha virt. eigenvalues --    6.74588   6.80885   6.81930   6.82368   6.86190
 Alpha virt. eigenvalues --    6.88696   6.91076   6.95047   6.97595   7.02040
 Alpha virt. eigenvalues --    7.06220   7.08169   7.10665   7.18557   7.22818
 Alpha virt. eigenvalues --    7.25666   7.26786   7.30521   7.32963   7.43263
 Alpha virt. eigenvalues --    7.45937   7.49249   7.59666   7.66010   7.78060
 Alpha virt. eigenvalues --    7.86858   7.90338   7.91688  24.41679  49.94253
 Alpha virt. eigenvalues --   49.97565  50.00897  50.02482  50.13187
  Beta  occ. eigenvalues --  -19.76585 -19.71948 -19.71760 -19.70379 -19.68582
  Beta  occ. eigenvalues --  -10.68087  -1.34211  -1.28614  -1.21831  -0.99528
  Beta  occ. eigenvalues --   -0.97710  -0.77302  -0.67534  -0.63692  -0.62084
  Beta  occ. eigenvalues --   -0.61621  -0.55411  -0.53928  -0.51035  -0.50322
  Beta  occ. eigenvalues --   -0.45204  -0.40294  -0.39035  -0.36655
  Beta virt. eigenvalues --   -0.12389  -0.07381   0.01719   0.01957   0.04552
  Beta virt. eigenvalues --    0.04776   0.07377   0.10255   0.12162   0.15453
  Beta virt. eigenvalues --    0.16394   0.17853   0.18269   0.18651   0.19481
  Beta virt. eigenvalues --    0.20406   0.20973   0.21483   0.23296   0.23721
  Beta virt. eigenvalues --    0.24171   0.25070   0.25250   0.27893   0.29008
  Beta virt. eigenvalues --    0.29721   0.30736   0.32374   0.33285   0.33765
  Beta virt. eigenvalues --    0.34501   0.37411   0.38907   0.42739   0.48484
  Beta virt. eigenvalues --    0.51841   0.53980   0.59250   0.60575   0.61286
  Beta virt. eigenvalues --    0.65856   0.67031   0.72331   0.74768   0.75515
  Beta virt. eigenvalues --    0.79560   0.81481   0.89091   0.91648   0.96041
  Beta virt. eigenvalues --    0.97800   0.98091   0.98805   1.01858   1.04739
  Beta virt. eigenvalues --    1.05943   1.07100   1.09149   1.10949   1.12572
  Beta virt. eigenvalues --    1.13603   1.13974   1.15901   1.18575   1.19533
  Beta virt. eigenvalues --    1.21110   1.25560   1.26190   1.30872   1.33372
  Beta virt. eigenvalues --    1.38666   1.42987   1.43715   1.49255   1.50910
  Beta virt. eigenvalues --    1.53289   1.55155   1.57514   1.60547   1.61219
  Beta virt. eigenvalues --    1.62907   1.63917   1.67612   1.73557   1.78749
  Beta virt. eigenvalues --    1.83780   1.87439   1.94528   1.99393   2.01379
  Beta virt. eigenvalues --    2.05976   2.10093   2.17131   2.19204   2.21229
  Beta virt. eigenvalues --    2.25731   2.26999   2.31066   2.33554   2.38435
  Beta virt. eigenvalues --    2.38934   2.47062   2.57428   2.60155   2.61981
  Beta virt. eigenvalues --    2.72369   2.76582   2.85648   3.08832   3.13503
  Beta virt. eigenvalues --    3.18776   3.24280   3.29917   3.34729   3.42086
  Beta virt. eigenvalues --    3.45182   3.47298   3.55317   3.60370   3.63970
  Beta virt. eigenvalues --    3.66412   3.67540   3.73026   3.76258   3.80504
  Beta virt. eigenvalues --    3.86560   3.89903   4.00078   4.05187   4.12828
  Beta virt. eigenvalues --    4.20323   4.21346   4.30950   4.39841   4.50559
  Beta virt. eigenvalues --    4.57589   4.62455   4.63275   4.65053   4.71956
  Beta virt. eigenvalues --    4.73822   4.78279   4.88781   4.89467   5.01390
  Beta virt. eigenvalues --    5.01937   5.04845   5.06525   5.09047   5.10574
  Beta virt. eigenvalues --    5.12234   5.14093   5.15418   5.15605   5.16813
  Beta virt. eigenvalues --    5.17397   5.19831   5.21960   5.22658   5.26321
  Beta virt. eigenvalues --    5.29503   5.30938   5.31473   5.37460   5.39881
  Beta virt. eigenvalues --    5.45745   5.52656   5.53482   5.55976   5.61371
  Beta virt. eigenvalues --    5.63770   5.67183   5.98107   6.05342   6.09082
  Beta virt. eigenvalues --    6.10044   6.25620   6.35008   6.39824   6.49288
  Beta virt. eigenvalues --    6.62638   6.78845   6.79424   6.82080   6.86566
  Beta virt. eigenvalues --    6.86959   6.88542   6.90131   6.92821   6.98330
  Beta virt. eigenvalues --    6.99993   7.04083   7.06557   7.10799   7.11488
  Beta virt. eigenvalues --    7.19123   7.25722   7.26611   7.28578   7.32721
  Beta virt. eigenvalues --    7.35389   7.43860   7.46402   7.50331   7.60106
  Beta virt. eigenvalues --    7.66220   7.80170   7.87091   7.90585   7.93285
  Beta virt. eigenvalues --   24.42441  49.93768  49.97196  50.00409  50.02046
  Beta virt. eigenvalues --   50.12908
          Condensed to atoms (all electrons):
              1          2          3          4          5          6
     1  C    5.180996   0.137673   0.172812   0.307672   0.440681  -0.054961
     2  O    0.137673   7.713341   0.002840  -0.003300  -0.042945   0.179365
     3  O    0.172812   0.002840   7.923292  -0.017234  -0.041224   0.011418
     4  H    0.307672  -0.003300  -0.017234   0.428402  -0.024734  -0.009841
     5  H    0.440681  -0.042945  -0.041224  -0.024734   0.464124   0.006990
     6  O   -0.054961   0.179365   0.011418  -0.009841   0.006990   8.040179
     7  H   -0.015063  -0.010248   0.264276  -0.011622   0.005395   0.010139
     8  O    0.036388  -0.000937  -0.032841  -0.061509   0.001563  -0.016579
     9  O   -0.103472   0.012075   0.019444   0.101709   0.005226   0.011210
    10  H   -0.002442  -0.004716   0.004860   0.007576  -0.000259   0.012789
              7          8          9         10
     1  C   -0.015063   0.036388  -0.103472  -0.002442
     2  O   -0.010248  -0.000937   0.012075  -0.004716
     3  O    0.264276  -0.032841   0.019444   0.004860
     4  H   -0.011622  -0.061509   0.101709   0.007576
     5  H    0.005395   0.001563   0.005226  -0.000259
     6  O    0.010139  -0.016579   0.011210   0.012789
     7  H    0.413984   0.038040   0.002713  -0.005992
     8  O    0.038040   7.902549   0.089427   0.212241
     9  O    0.002713   0.089427   8.176583  -0.025957
    10  H   -0.005992   0.212241  -0.025957   0.539257
 Mulliken atomic charges:
              1
     1  C   -0.100285
     2  O    0.016852
     3  O   -0.307644
     4  H    0.282881
     5  H    0.185184
     6  O   -0.190708
     7  H    0.308378
     8  O   -0.168342
     9  O   -0.288959
    10  H    0.262644
 Sum of Mulliken atomic charges =   0.00000
 Mulliken charges with hydrogens summed into heavy atoms:
              1
     1  C    0.084899
     2  O    0.016852
     3  O    0.000734
     6  O   -0.190708
     8  O    0.094302
     9  O   -0.006078
 Sum of Mulliken charges with hydrogens summed into heavy atoms =   0.00000
          Atomic-Atomic Spin Densities.
              1          2          3          4          5          6
     1  C    0.708747  -0.048321  -0.108036   0.101038  -0.017946  -0.005393
     2  O   -0.048321   0.480727   0.003084  -0.011818   0.004792  -0.155705
     3  O   -0.108036   0.003084   0.154311  -0.013890   0.003814   0.001492
     4  H    0.101038  -0.011818  -0.013890  -0.085848  -0.001895  -0.001242
     5  H   -0.017946   0.004792   0.003814  -0.001895   0.001914   0.000999
     6  O   -0.005393  -0.155705   0.001492  -0.001242   0.000999   0.885038
     7  H   -0.019402   0.001169   0.011908  -0.000024   0.000555   0.000452
     8  O    0.072466  -0.006296  -0.023947   0.033027  -0.002002  -0.002781
     9  O   -0.168619   0.015777   0.035964  -0.033570   0.005254   0.004615
    10  H   -0.005969   0.000569   0.001321  -0.002656   0.000092   0.000152
              7          8          9         10
     1  C   -0.019402   0.072466  -0.168619  -0.005969
     2  O    0.001169  -0.006296   0.015777   0.000569
     3  O    0.011908  -0.023947   0.035964   0.001321
     4  H   -0.000024   0.033027  -0.033570  -0.002656
     5  H    0.000555  -0.002002   0.005254   0.000092
     6  O    0.000452  -0.002781   0.004615   0.000152
     7  H    0.007668  -0.014651   0.010122   0.001282
     8  O   -0.014651   0.130968  -0.101773  -0.008650
     9  O    0.010122  -0.101773   0.583698   0.010742
    10  H    0.001282  -0.008650   0.010742   0.000578
 Mulliken atomic spin densities:
              1
     1  C    0.508564
     2  O    0.283978
     3  O    0.066022
     4  H   -0.016878
     5  H   -0.004424
     6  O    0.727628
     7  H   -0.000923
     8  O    0.076361
     9  O    0.362211
    10  H   -0.002538
 Sum of Mulliken atomic spin densities =   2.00000
 APT atomic charges:
              1
     1  C   -0.354695
     2  O   -0.036409
     3  O   -0.480601
     4  H    0.255681
     5  H    0.536351
     6  O   -0.177366
     7  H    0.418089
     8  O   -0.249396
     9  O   -0.277950
    10  H    0.366295
 Sum of APT charges=   0.00000
 APT Atomic charges with hydrogens summed into heavy atoms:
              1
     1  C    0.181657
     2  O   -0.036409
     3  O   -0.062511
     4  H    0.000000
     5  H    0.000000
     6  O   -0.177366
     7  H    0.000000
     8  O    0.116900
     9  O   -0.022270
    10  H    0.000000
 Sum of APT charges=   0.00000
 Electronic spatial extent (au):  <R**2>=            572.9367
 Charge=              0.0000 electrons
 Dipole moment (field-independent basis, Debye):
    X=             -0.4526    Y=              0.2148    Z=             -0.1179  Tot=              0.5146
 Quadrupole moment (field-independent basis, Debye-Ang):
   XX=            -39.4625   YY=            -35.9128   ZZ=            -32.0995
   XY=             -3.6330   XZ=             -4.1423   YZ=              2.7295
 Traceless Quadrupole moment (field-independent basis, Debye-Ang):
   XX=             -3.6375   YY=             -0.0879   ZZ=              3.7254
   XY=             -3.6330   XZ=             -4.1423   YZ=              2.7295
 Octapole moment (field-independent basis, Debye-Ang**2):
  XXX=             -5.0736  YYY=             -6.2340  ZZZ=             -4.1829  XYY=              6.0008
  XXY=             -1.0000  XXZ=             -1.6933  XZZ=             -0.4526  YZZ=              0.7974
  YYZ=              0.9546  XYZ=             -0.5635
 Hexadecapole moment (field-independent basis, Debye-Ang**3):
 XXXX=           -378.0117 YYYY=           -200.2185 ZZZZ=            -97.3908 XXXY=             -8.5727
 XXXZ=             -3.0280 YYYX=             -5.2171 YYYZ=              5.1877 ZZZX=             -5.8843
 ZZZY=              0.9597 XXYY=            -87.6406 XXZZ=            -78.2217 YYZZ=            -45.7466
 XXYZ=              6.0239 YYXZ=             -9.1507 ZZXY=             -2.1065
 N-N= 2.617488741178D+02 E-N=-2.239394798773D+03  KE= 6.196206215557D+02
  Exact polarizability:   0.000   0.000   0.000   0.000   0.000   0.000
 Approx polarizability:  59.638  -9.039  48.588  -3.924   4.211  49.506
                          Isotropic Fermi Contact Couplings
        Atom                 a.u.       MegaHertz       Gauss      10(-4) cm-1
     1  C(13)              0.21019     118.14438      42.15685      39.40872
     2  O(17)              0.06623     -20.07548      -7.16343      -6.69646
     3  O(17)              0.01294      -3.92162      -1.39933      -1.30811
     4  H(1)              -0.03132     -70.00627     -24.97998     -23.35158
     5  H(1)               0.00379       8.47560       3.02431       2.82716
     6  O(17)              0.12068     -36.57928     -13.05240     -12.20153
     7  H(1)               0.00558      12.47862       4.45268       4.16242
     8  O(17)              0.01069      -3.23882      -1.15569      -1.08035
     9  O(17)              0.07972     -24.16250      -8.62178      -8.05974
    10  H(1)              -0.00147      -3.27479      -1.16853      -1.09235
 --------------------------------------------------------
       Center         ----  Spin Dipole Couplings  ----
                      3XX-RR        3YY-RR        3ZZ-RR
 --------------------------------------------------------
     1   Atom        0.421459     -0.176785     -0.244674
     2   Atom       -0.317502     -0.515487      0.832990
     3   Atom        0.266727     -0.181249     -0.085479
     4   Atom        0.196542     -0.085944     -0.110598
     5   Atom       -0.010921     -0.001437      0.012358
     6   Atom       -0.914346     -0.799508      1.713854
     7   Atom       -0.006427     -0.006442      0.012869
     8   Atom        0.364222     -0.099607     -0.264615
     9   Atom        1.579544     -0.665138     -0.914406
    10   Atom        0.008705      0.000439     -0.009144
 --------------------------------------------------------
                        XY            XZ            YZ
 --------------------------------------------------------
     1   Atom       -0.315445      0.258239     -0.097104
     2   Atom       -0.244143      0.912458     -0.756468
     3   Atom       -0.190666      0.281290     -0.131164
     4   Atom       -0.100170      0.033619     -0.001209
     5   Atom       -0.022219     -0.014144      0.039151
     6   Atom       -0.696639      1.431240     -1.593004
     7   Atom       -0.005876     -0.024764      0.003803
     8   Atom       -0.226176      0.011129      0.008481
     9   Atom       -0.876918      0.383407     -0.137777
    10   Atom        0.004189     -0.003704      0.016163
 --------------------------------------------------------


 ---------------------------------------------------------------------------------
              Anisotropic Spin Dipole Couplings in Principal Axis System
 ---------------------------------------------------------------------------------

       Atom             a.u.   MegaHertz   Gauss  10(-4) cm-1        Axes

              Baa    -0.3365   -45.149   -16.110   -15.060 -0.4201 -0.3116  0.8523
     1 C(13)  Bbb    -0.3062   -41.091   -14.662   -13.706  0.2259  0.8737  0.4308
              Bcc     0.6427    86.240    30.773    28.767  0.8789 -0.3735  0.2967
 
              Baa    -0.9540    69.034    24.633    23.027 -0.5360  0.6437  0.5462
     2 O(17)  Bbb    -0.6684    48.364    17.258    16.133  0.7236  0.6836 -0.0954
              Bcc     1.6224  -117.399   -41.891   -39.160  0.4347 -0.3441  0.8322
 
              Baa    -0.2732    19.768     7.054     6.594 -0.0393  0.7905  0.6112
     3 O(17)  Bbb    -0.2272    16.441     5.867     5.484 -0.5653 -0.5220  0.6388
              Bcc     0.5004   -36.209   -12.920   -12.078  0.8240 -0.3204  0.4673
 
              Baa    -0.1250   -66.704   -23.802   -22.250  0.2918  0.7289 -0.6193
     4 H(1)   Bbb    -0.1065   -56.828   -20.278   -18.956  0.1169  0.6154  0.7795
              Bcc     0.2315   123.532    44.079    41.206  0.9493 -0.2999  0.0943
 
              Baa    -0.0376   -20.057    -7.157    -6.690  0.3816  0.7769 -0.5009
     5 H(1)   Bbb    -0.0173    -9.236    -3.296    -3.081  0.8515 -0.0846  0.5175
              Bcc     0.0549    29.294    10.453     9.771 -0.3597  0.6240  0.6938
 
              Baa    -1.5720   113.751    40.589    37.943  0.0735  0.9096  0.4090
     6 O(17)  Bbb    -1.5430   111.649    39.839    37.242  0.9271  0.0888 -0.3640
              Bcc     3.1150  -225.400   -80.428   -75.185  0.3674 -0.4059  0.8368
 
              Baa    -0.0238   -12.697    -4.531    -4.235  0.8256  0.1610  0.5409
     7 H(1)   Bbb    -0.0071    -3.799    -1.356    -1.267 -0.0377  0.9721 -0.2317
              Bcc     0.0309    16.496     5.886     5.503 -0.5631  0.1709  0.8086
 
              Baa    -0.2666    19.293     6.884     6.435 -0.0688 -0.1433  0.9873
     8 O(17)  Bbb    -0.1897    13.727     4.898     4.579  0.3705  0.9152  0.1586
              Bcc     0.4563   -33.019   -11.782   -11.014  0.9263 -0.3767  0.0099
 
              Baa    -0.9759    70.613    25.196    23.554  0.0568  0.5342  0.8435
     9 O(17)  Bbb    -0.9638    69.739    24.885    23.262  0.3476  0.7814 -0.5183
              Bcc     1.9397  -140.352   -50.081   -46.816  0.9359 -0.3226  0.1413
 
              Baa    -0.0222   -11.835    -4.223    -3.948  0.1747 -0.5936  0.7855
    10 H(1)   Bbb     0.0093     4.953     1.768     1.652  0.9294 -0.1640 -0.3306
              Bcc     0.0129     6.882     2.456     2.296  0.3251  0.7879  0.5231
 

 ---------------------------------------------------------------------------------

 Calling FoFJK, ICntrl=    100147 FMM=F ISym2X=0 I1Cent= 0 IOpClX= 1 NMat=1 NMatS=1 NMatT=0.
 ***** Axes restored to original set *****
 -------------------------------------------------------------------
 Center     Atomic                   Forces (Hartrees/Bohr)
 Number     Number              X              Y              Z
 -------------------------------------------------------------------
      1        6          -0.000000789    0.000004370   -0.000007773
      2        8          -0.000007437    0.000011144   -0.000008374
      3        8           0.000015937   -0.000001003   -0.000005170
      4        1           0.000008095   -0.000004125   -0.000004709
      5        1           0.000000432    0.000011228   -0.000008960
      6        8          -0.000006596    0.000006957   -0.000002569
      7        1           0.000013013   -0.000003412   -0.000006833
      8        8          -0.000004423   -0.000008183    0.000011978
      9        8          -0.000015209   -0.000005562    0.000020453
     10        1          -0.000003023   -0.000011413    0.000011957
 -------------------------------------------------------------------
 Cartesian Forces:  Max     0.000020453 RMS     0.000009022

 GradGradGradGradGradGradGradGradGradGradGradGradGradGradGradGradGradGrad
 Berny optimization.
 Internal  Forces:  Max     0.000020492 RMS     0.000005402
 Search for a saddle point.
 Step number   1 out of a maximum of   41
 All quantities printed in internal units (Hartrees-Bohrs-Radians)
 Swaping is turned off.
 Second derivative matrix not updated -- analytic derivatives used.
 ITU=  0
     Eigenvalues ---   -0.07903   0.00111   0.00505   0.00717   0.02389
     Eigenvalues ---    0.04491   0.06346   0.07541   0.08626   0.10313
     Eigenvalues ---    0.16729   0.17946   0.18667   0.19929   0.20638
     Eigenvalues ---    0.24789   0.30966   0.35842   0.39637   0.45600
     Eigenvalues ---    0.48418   0.51173   0.52855   0.55327
 Eigenvectors required to have negative eigenvalues:
                          R3        R7        R8        A4        D1
   1                   -0.69203   0.67486  -0.13441   0.11405   0.06724
                          D4        R2        D3        A1        A5
   1                   -0.06702   0.05952  -0.05726  -0.05340  -0.05223
 RFO step:  Lambda0=1.417226239D-09 Lambda= 0.00000000D+00.
 Linear search not attempted -- option 19 set.
 Iteration  1 RMS(Cart)=  0.00011061 RMS(Int)=  0.00000001
 Iteration  2 RMS(Cart)=  0.00000001 RMS(Int)=  0.00000000
 Variable       Old X    -DE/DX   Delta X   Delta X   Delta X     New X
                                 (Linear)    (Quad)   (Total)
    R1        2.72166   0.00000   0.00000   0.00000   0.00000   2.72166
    R2        2.52316   0.00000   0.00000   0.00001   0.00001   2.52317
    R3        2.55750   0.00000   0.00000  -0.00015  -0.00015   2.55736
    R4        2.05214   0.00000   0.00000   0.00000   0.00000   2.05214
    R5        2.45781   0.00000   0.00000   0.00000   0.00000   2.45781
    R6        1.83891   0.00000   0.00000  -0.00001  -0.00001   1.83891
    R7        2.21346  -0.00002   0.00000   0.00004   0.00004   2.21350
    R8        2.61529   0.00000   0.00000  -0.00001  -0.00001   2.61528
    R9        1.82923   0.00000   0.00000   0.00000   0.00000   1.82923
    A1        1.99127   0.00000   0.00000  -0.00001  -0.00001   1.99126
    A2        1.82888   0.00000   0.00000   0.00002   0.00002   1.82890
    A3        1.86216   0.00000   0.00000   0.00001   0.00001   1.86216
    A4        1.84810   0.00000   0.00000   0.00004   0.00004   1.84814
    A5        1.98849   0.00000   0.00000  -0.00001  -0.00001   1.98848
    A6        1.93942   0.00000   0.00000  -0.00005  -0.00005   1.93937
    A7        1.94530   0.00000   0.00000  -0.00003  -0.00003   1.94527
    A8        1.90600   0.00001   0.00000   0.00003   0.00003   1.90603
    A9        2.76254   0.00000   0.00000   0.00009   0.00009   2.76263
   A10        1.79766   0.00000   0.00000   0.00000   0.00000   1.79766
   A11        1.79846  -0.00002   0.00000  -0.00008  -0.00008   1.79838
    D1        1.14817   0.00000   0.00000  -0.00010  -0.00010   1.14807
    D2       -0.86512   0.00000   0.00000  -0.00016  -0.00016  -0.86528
    D3       -2.92321   0.00000   0.00000  -0.00012  -0.00012  -2.92332
    D4       -1.36147   0.00000   0.00000   0.00014   0.00014  -1.36134
    D5        0.64053   0.00000   0.00000   0.00018   0.00018   0.64071
    D6        2.77726   0.00000   0.00000   0.00014   0.00014   2.77740
    D7        1.55664   0.00000   0.00000  -0.00001  -0.00001   1.55662
    D8       -0.55410   0.00000   0.00000  -0.00003  -0.00003  -0.55413
    D9       -2.72180   0.00000   0.00000  -0.00002  -0.00002  -2.72182
   D10       -0.01718   0.00001   0.00000   0.00009   0.00009  -0.01708
   D11       -1.55431   0.00000   0.00000  -0.00007  -0.00007  -1.55438
         Item               Value     Threshold  Converged?
 Maximum Force            0.000020     0.000450     YES
 RMS     Force            0.000005     0.000300     YES
 Maximum Displacement     0.000271     0.001800     YES
 RMS     Displacement     0.000111     0.001200     YES
 Predicted change in Energy=-1.411460D-09
 Optimization completed.
    -- Stationary point found.
                           ----------------------------
                           !   Optimized Parameters   !
                           ! (Angstroms and Degrees)  !
 --------------------------                            --------------------------
 ! Name  Definition              Value          Derivative Info.                !
 --------------------------------------------------------------------------------
 ! R1    R(1,2)                  1.4402         -DE/DX =    0.0                 !
 ! R2    R(1,3)                  1.3352         -DE/DX =    0.0                 !
 ! R3    R(1,4)                  1.3534         -DE/DX =    0.0                 !
 ! R4    R(1,5)                  1.0859         -DE/DX =    0.0                 !
 ! R5    R(2,6)                  1.3006         -DE/DX =    0.0                 !
 ! R6    R(3,7)                  0.9731         -DE/DX =    0.0                 !
 ! R7    R(4,9)                  1.1713         -DE/DX =    0.0                 !
 ! R8    R(8,9)                  1.384          -DE/DX =    0.0                 !
 ! R9    R(8,10)                 0.968          -DE/DX =    0.0                 !
 ! A1    A(2,1,3)              114.0916         -DE/DX =    0.0                 !
 ! A2    A(2,1,4)              104.7873         -DE/DX =    0.0                 !
 ! A3    A(2,1,5)              106.6937         -DE/DX =    0.0                 !
 ! A4    A(3,1,4)              105.8883         -DE/DX =    0.0                 !
 ! A5    A(3,1,5)              113.9322         -DE/DX =    0.0                 !
 ! A6    A(4,1,5)              111.1204         -DE/DX =    0.0                 !
 ! A7    A(1,2,6)              111.4578         -DE/DX =    0.0                 !
 ! A8    A(1,3,7)              109.2055         -DE/DX =    0.0                 !
 ! A9    A(1,4,9)              158.282          -DE/DX =    0.0                 !
 ! A10   A(9,8,10)             102.9983         -DE/DX =    0.0                 !
 ! A11   A(4,9,8)              103.0442         -DE/DX =    0.0                 !
 ! D1    D(3,1,2,6)             65.7852         -DE/DX =    0.0                 !
 ! D2    D(4,1,2,6)            -49.5676         -DE/DX =    0.0                 !
 ! D3    D(5,1,2,6)           -167.4873         -DE/DX =    0.0                 !
 ! D4    D(2,1,3,7)            -78.0066         -DE/DX =    0.0                 !
 ! D5    D(4,1,3,7)             36.6995         -DE/DX =    0.0                 !
 ! D6    D(5,1,3,7)            159.1252         -DE/DX =    0.0                 !
 ! D7    D(2,1,4,9)             89.1888         -DE/DX =    0.0                 !
 ! D8    D(3,1,4,9)            -31.7475         -DE/DX =    0.0                 !
 ! D9    D(5,1,4,9)           -155.9479         -DE/DX =    0.0                 !
 ! D10   D(1,4,9,8)             -0.9841         -DE/DX =    0.0                 !
 ! D11   D(10,8,9,4)           -89.0553         -DE/DX =    0.0                 !
 --------------------------------------------------------------------------------
 GradGradGradGradGradGradGradGradGradGradGradGradGradGradGradGradGradGrad

                          Input orientation:                          
 ---------------------------------------------------------------------
 Center     Atomic      Atomic             Coordinates (Angstroms)
 Number     Number       Type             X           Y           Z
 ---------------------------------------------------------------------
      1          6           0       -0.741034    0.710489    0.501248
      2          8           0       -1.526165   -0.480703    0.303960
      3          8           0       -0.509289    1.401956   -0.617199
      4          1           0        0.466649    0.263228    0.917275
      5          1           0       -1.235113    1.284397    1.279576
      6          8           0       -0.888553   -1.357146   -0.414996
      7          1           0        0.199101    0.965897   -1.122157
      8          8           0        1.793385   -0.157751   -0.525496
      9          8           0        1.569915   -0.122496    0.839838
     10          1           0        1.501224   -1.047331   -0.771035
 ---------------------------------------------------------------------
                    Distance matrix (angstroms):
                    1          2          3          4          5
     1  C    0.000000
     2  O    1.440240   0.000000
     3  O    1.335199   2.329587   0.000000
     4  H    1.353373   2.213797   2.145639   0.000000
     5  H    1.085946   2.037674   2.034305   2.017435   0.000000
     6  O    2.266358   1.300615   2.792377   2.497425   3.157440
     7  H    1.893286   2.665146   0.973112   2.173616   2.815446
     8  O    2.869028   3.436816   2.782697   2.004754   3.809183
     9  O    2.479716   3.162466   2.961419   1.171314   3.168738
    10  H    3.120313   3.262172   3.172512   2.374511   4.138780
                    6          7          8          9         10
     6  O    0.000000
     7  H    2.660751   0.000000
     8  O    2.939992   2.039689   0.000000
     9  O    3.023745   2.629288   1.383950   0.000000
    10  H    2.435936   2.423200   0.967988   1.858750   0.000000
 Stoichiometry    CH4O5(3)
 Framework group  C1[X(CH4O5)]
 Deg. of freedom    24
 Full point group                 C1      NOp   1
 Largest Abelian subgroup         C1      NOp   1
 Largest concise Abelian subgroup C1      NOp   1
                         Standard orientation:                         
 ---------------------------------------------------------------------
 Center     Atomic      Atomic             Coordinates (Angstroms)
 Number     Number       Type             X           Y           Z
 ---------------------------------------------------------------------
      1          6           0       -0.741034    0.710489    0.501248
      2          8           0       -1.526165   -0.480703    0.303960
      3          8           0       -0.509289    1.401956   -0.617199
      4          1           0        0.466649    0.263228    0.917275
      5          1           0       -1.235113    1.284397    1.279576
      6          8           0       -0.888553   -1.357146   -0.414996
      7          1           0        0.199101    0.965897   -1.122157
      8          8           0        1.793385   -0.157751   -0.525496
      9          8           0        1.569915   -0.122496    0.839838
     10          1           0        1.501224   -1.047331   -0.771035
 ---------------------------------------------------------------------
 Rotational constants (GHZ):      4.6663202      2.6742492      2.1905503
 1\1\GINC-COMPUTE-3-042\FTS\UM062X\6-311+G(2df,2p)\C1H4O5(3)\ROOT\04-Au
 g-2017\0\\# m062x/6-311+g(2df,2p) opt=(ts,calcfc,noeigentest) freq\\[O
 ]O+[O]OCO_OO+[O]O[CH]O\\0,3\C,-0.741034,0.710489,0.501248\O,-1.526165,
 -0.480703,0.30396\O,-0.509289,1.401956,-0.617199\H,0.466649,0.263228,0
 .917275\H,-1.235113,1.284397,1.279576\O,-0.888553,-1.357146,-0.414996\
 H,0.199101,0.965897,-1.122157\O,1.793385,-0.157751,-0.525496\O,1.56991
 5,-0.122496,0.839838\H,1.501224,-1.047331,-0.771035\\Version=EM64L-G09
 RevB.01\State=3-A\HF=-416.3025268\S2=2.01418\S2-1=0.\S2A=2.000102\RMSD
 =4.538e-09\RMSF=9.022e-06\Dipole=-0.1780548,0.084518,-0.0463723\Polar=
 0.,0.,0.,0.,0.,0.\Quadrupole=-2.704405,-0.0653448,2.7697499,-2.7010427
 ,-3.0797314,2.0293448\PG=C01 [X(C1H4O5)]\\@


 Luck is a matter of preparation meeting opportunity.
                                    -- Oprah Winfrey
 Job cpu time:  0 days  1 hours 50 minutes  2.1 seconds.
 File lengths (MBytes):  RWF=   2416 Int=      0 D2E=      0 Chk=     32 Scr=     32
 Normal termination of Gaussian 09 at Fri Aug  4 00:00:53 2017.
 Link1:  Proceeding to internal job step number  2.
 ----------------------------------------------------------------------
 #N Geom=AllCheck Guess=TCheck SCRF=Check GenChk UM062X/6-311+G(2df,2p)
  Freq
 ----------------------------------------------------------------------
 1/5=1,10=4,11=1,29=7,30=1,38=1,40=1/1,3;
 2/12=2,40=1/2;
 3/5=4,6=6,7=214,11=2,14=-4,16=1,25=1,30=1,70=2,71=2,74=-55,116=2/1,2,3;
 4/5=101/1;
 5/5=2,98=1/2;
 8/6=4,10=90,11=11/1;
 11/6=1,8=1,9=11,15=111,16=1/1,2,10;
 10/6=1/2;
 6/7=2,8=2,9=2,10=2,18=1,28=1/1;
 7/8=1,10=1,25=1/1,2,3,16;
 1/5=1,10=4,11=1,30=1/3;
 99//99;
 ------------------------
 [O]O+[O]OCO_OO+[O]O[CH]O
 ------------------------
 Redundant internal coordinates taken from checkpoint file:
 /gss_gpfs_scratch/harms.n/QMscratch/[O]O+[O]OCO_OO+[O]O[CH]O.chk
 Charge =  0 Multiplicity = 3
 C,0,-0.741034,0.710489,0.501248
 O,0,-1.526165,-0.480703,0.30396
 O,0,-0.509289,1.401956,-0.617199
 H,0,0.466649,0.263228,0.917275
 H,0,-1.235113,1.284397,1.279576
 O,0,-0.888553,-1.357146,-0.414996
 H,0,0.199101,0.965897,-1.122157
 O,0,1.793385,-0.157751,-0.525496
 O,0,1.569915,-0.122496,0.839838
 H,0,1.501224,-1.047331,-0.771035
 Recover connectivity data from disk.

 GradGradGradGradGradGradGradGradGradGradGradGradGradGradGradGradGradGrad
 Berny optimization.
 Initialization pass.
                           ----------------------------
                           !    Initial Parameters    !
                           ! (Angstroms and Degrees)  !
 --------------------------                            --------------------------
 ! Name  Definition              Value          Derivative Info.                !
 --------------------------------------------------------------------------------
 ! R1    R(1,2)                  1.4402         calculate D2E/DX2 analytically  !
 ! R2    R(1,3)                  1.3352         calculate D2E/DX2 analytically  !
 ! R3    R(1,4)                  1.3534         calculate D2E/DX2 analytically  !
 ! R4    R(1,5)                  1.0859         calculate D2E/DX2 analytically  !
 ! R5    R(2,6)                  1.3006         calculate D2E/DX2 analytically  !
 ! R6    R(3,7)                  0.9731         calculate D2E/DX2 analytically  !
 ! R7    R(4,9)                  1.1713         calculate D2E/DX2 analytically  !
 ! R8    R(8,9)                  1.384          calculate D2E/DX2 analytically  !
 ! R9    R(8,10)                 0.968          calculate D2E/DX2 analytically  !
 ! A1    A(2,1,3)              114.0916         calculate D2E/DX2 analytically  !
 ! A2    A(2,1,4)              104.7873         calculate D2E/DX2 analytically  !
 ! A3    A(2,1,5)              106.6937         calculate D2E/DX2 analytically  !
 ! A4    A(3,1,4)              105.8883         calculate D2E/DX2 analytically  !
 ! A5    A(3,1,5)              113.9322         calculate D2E/DX2 analytically  !
 ! A6    A(4,1,5)              111.1204         calculate D2E/DX2 analytically  !
 ! A7    A(1,2,6)              111.4578         calculate D2E/DX2 analytically  !
 ! A8    A(1,3,7)              109.2055         calculate D2E/DX2 analytically  !
 ! A9    A(1,4,9)              158.282          calculate D2E/DX2 analytically  !
 ! A10   A(9,8,10)             102.9983         calculate D2E/DX2 analytically  !
 ! A11   A(4,9,8)              103.0442         calculate D2E/DX2 analytically  !
 ! D1    D(3,1,2,6)             65.7852         calculate D2E/DX2 analytically  !
 ! D2    D(4,1,2,6)            -49.5676         calculate D2E/DX2 analytically  !
 ! D3    D(5,1,2,6)           -167.4873         calculate D2E/DX2 analytically  !
 ! D4    D(2,1,3,7)            -78.0066         calculate D2E/DX2 analytically  !
 ! D5    D(4,1,3,7)             36.6995         calculate D2E/DX2 analytically  !
 ! D6    D(5,1,3,7)            159.1252         calculate D2E/DX2 analytically  !
 ! D7    D(2,1,4,9)             89.1888         calculate D2E/DX2 analytically  !
 ! D8    D(3,1,4,9)            -31.7475         calculate D2E/DX2 analytically  !
 ! D9    D(5,1,4,9)           -155.9479         calculate D2E/DX2 analytically  !
 ! D10   D(1,4,9,8)             -0.9841         calculate D2E/DX2 analytically  !
 ! D11   D(10,8,9,4)           -89.0553         calculate D2E/DX2 analytically  !
 --------------------------------------------------------------------------------
 Trust Radius=3.00D-01 FncErr=1.00D-07 GrdErr=1.00D-07
 Number of steps in this run=      2 maximum allowed number of steps=      2.
 Search for a saddle point of order  1.
 GradGradGradGradGradGradGradGradGradGradGradGradGradGradGradGradGradGrad

                          Input orientation:                          
 ---------------------------------------------------------------------
 Center     Atomic      Atomic             Coordinates (Angstroms)
 Number     Number       Type             X           Y           Z
 ---------------------------------------------------------------------
      1          6           0       -0.741034    0.710489    0.501248
      2          8           0       -1.526165   -0.480703    0.303960
      3          8           0       -0.509289    1.401956   -0.617199
      4          1           0        0.466649    0.263228    0.917275
      5          1           0       -1.235113    1.284397    1.279576
      6          8           0       -0.888553   -1.357146   -0.414996
      7          1           0        0.199101    0.965897   -1.122157
      8          8           0        1.793385   -0.157751   -0.525496
      9          8           0        1.569915   -0.122496    0.839838
     10          1           0        1.501224   -1.047331   -0.771035
 ---------------------------------------------------------------------
                    Distance matrix (angstroms):
                    1          2          3          4          5
     1  C    0.000000
     2  O    1.440240   0.000000
     3  O    1.335199   2.329587   0.000000
     4  H    1.353373   2.213797   2.145639   0.000000
     5  H    1.085946   2.037674   2.034305   2.017435   0.000000
     6  O    2.266358   1.300615   2.792377   2.497425   3.157440
     7  H    1.893286   2.665146   0.973112   2.173616   2.815446
     8  O    2.869028   3.436816   2.782697   2.004754   3.809183
     9  O    2.479716   3.162466   2.961419   1.171314   3.168738
    10  H    3.120313   3.262172   3.172512   2.374511   4.138780
                    6          7          8          9         10
     6  O    0.000000
     7  H    2.660751   0.000000
     8  O    2.939992   2.039689   0.000000
     9  O    3.023745   2.629288   1.383950   0.000000
    10  H    2.435936   2.423200   0.967988   1.858750   0.000000
 Stoichiometry    CH4O5(3)
 Framework group  C1[X(CH4O5)]
 Deg. of freedom    24
 Full point group                 C1      NOp   1
 Largest Abelian subgroup         C1      NOp   1
 Largest concise Abelian subgroup C1      NOp   1
                         Standard orientation:                         
 ---------------------------------------------------------------------
 Center     Atomic      Atomic             Coordinates (Angstroms)
 Number     Number       Type             X           Y           Z
 ---------------------------------------------------------------------
      1          6           0       -0.741034    0.710489    0.501248
      2          8           0       -1.526165   -0.480703    0.303960
      3          8           0       -0.509289    1.401956   -0.617199
      4          1           0        0.466649    0.263228    0.917275
      5          1           0       -1.235113    1.284397    1.279576
      6          8           0       -0.888553   -1.357146   -0.414996
      7          1           0        0.199101    0.965897   -1.122157
      8          8           0        1.793385   -0.157751   -0.525496
      9          8           0        1.569915   -0.122496    0.839838
     10          1           0        1.501224   -1.047331   -0.771035
 ---------------------------------------------------------------------
 Rotational constants (GHZ):      4.6663202      2.6742492      2.1905503
 Standard basis: 6-311+G(2df,2p) (5D, 7F)
 There are   240 symmetry adapted basis functions of A   symmetry.
 Integral buffers will be    131072 words long.
 Raffenetti 2 integral format.
 Two-electron integral symmetry is turned on.
   240 basis functions,   356 primitive gaussians,   270 cartesian basis functions
    26 alpha electrons       24 beta electrons
       nuclear repulsion energy       261.7488741178 Hartrees.
 NAtoms=   10 NActive=   10 NUniq=   10 SFac= 1.00D+00 NAtFMM=   50 NAOKFM=F Big=F
 One-electron integrals computed using PRISM.
 NBasis=   240 RedAO= T  NBF=   240
 NBsUse=   240 1.00D-06 NBFU=   240
 Initial guess read from the checkpoint file:  /gss_gpfs_scratch/harms.n/QMscratch/[O]O+[O]OCO_OO+[O]O[CH]O.chk
 B after Tr=     0.000000    0.000000    0.000000
         Rot=    1.000000    0.000000    0.000000    0.000000 Ang=   0.00 deg.
 Initial guess orbital symmetries:
 Alpha Orbitals:
       Occupied  (A) (A) (A) (A) (A) (A) (A) (A) (A) (A) (A) (A)
                 (A) (A) (A) (A) (A) (A) (A) (A) (A) (A) (A) (A)
                 (A) (A)
       Virtual   (A) (A) (A) (A) (A) (A) (A) (A) (A) (A) (A) (A)
                 (A) (A) (A) (A) (A) (A) (A) (A) (A) (A) (A) (A)
                 (A) (A) (A) (A) (A) (A) (A) (A) (A) (A) (A) (A)
                 (A) (A) (A) (A) (A) (A) (A) (A) (A) (A) (A) (A)
                 (A) (A) (A) (A) (A) (A) (A) (A) (A) (A) (A) (A)
                 (A) (A) (A) (A) (A) (A) (A) (A) (A) (A) (A) (A)
                 (A) (A) (A) (A) (A) (A) (A) (A) (A) (A) (A) (A)
                 (A) (A) (A) (A) (A) (A) (A) (A) (A) (A) (A) (A)
                 (A) (A) (A) (A) (A) (A) (A) (A) (A) (A) (A) (A)
                 (A) (A) (A) (A) (A) (A) (A) (A) (A) (A) (A) (A)
                 (A) (A) (A) (A) (A) (A) (A) (A) (A) (A) (A) (A)
                 (A) (A) (A) (A) (A) (A) (A) (A) (A) (A) (A) (A)
                 (A) (A) (A) (A) (A) (A) (A) (A) (A) (A) (A) (A)
                 (A) (A) (A) (A) (A) (A) (A) (A) (A) (A) (A) (A)
                 (A) (A) (A) (A) (A) (A) (A) (A) (A) (A) (A) (A)
                 (A) (A) (A) (A) (A) (A) (A) (A) (A) (A) (A) (A)
                 (A) (A) (A) (A) (A) (A) (A) (A) (A) (A) (A) (A)
                 (A) (A) (A) (A) (A) (A) (A) (A) (A) (A)
 Beta  Orbitals:
       Occupied  (A) (A) (A) (A) (A) (A) (A) (A) (A) (A) (A) (A)
                 (A) (A) (A) (A) (A) (A) (A) (A) (A) (A) (A) (A)
       Virtual   (A) (A) (A) (A) (A) (A) (A) (A) (A) (A) (A) (A)
                 (A) (A) (A) (A) (A) (A) (A) (A) (A) (A) (A) (A)
                 (A) (A) (A) (A) (A) (A) (A) (A) (A) (A) (A) (A)
                 (A) (A) (A) (A) (A) (A) (A) (A) (A) (A) (A) (A)
                 (A) (A) (A) (A) (A) (A) (A) (A) (A) (A) (A) (A)
                 (A) (A) (A) (A) (A) (A) (A) (A) (A) (A) (A) (A)
                 (A) (A) (A) (A) (A) (A) (A) (A) (A) (A) (A) (A)
                 (A) (A) (A) (A) (A) (A) (A) (A) (A) (A) (A) (A)
                 (A) (A) (A) (A) (A) (A) (A) (A) (A) (A) (A) (A)
                 (A) (A) (A) (A) (A) (A) (A) (A) (A) (A) (A) (A)
                 (A) (A) (A) (A) (A) (A) (A) (A) (A) (A) (A) (A)
                 (A) (A) (A) (A) (A) (A) (A) (A) (A) (A) (A) (A)
                 (A) (A) (A) (A) (A) (A) (A) (A) (A) (A) (A) (A)
                 (A) (A) (A) (A) (A) (A) (A) (A) (A) (A) (A) (A)
                 (A) (A) (A) (A) (A) (A) (A) (A) (A) (A) (A) (A)
                 (A) (A) (A) (A) (A) (A) (A) (A) (A) (A) (A) (A)
                 (A) (A) (A) (A) (A) (A) (A) (A) (A) (A) (A) (A)
                 (A) (A) (A) (A) (A) (A) (A) (A) (A) (A) (A) (A)
 Initial guess <Sx>= 0.0000 <Sy>= 0.0000 <Sz>= 1.0000 <S**2>= 2.0142 S= 1.0047
 Requested convergence on RMS density matrix=1.00D-08 within 128 cycles.
 Requested convergence on MAX density matrix=1.00D-06.
 Requested convergence on             energy=1.00D-06.
 No special actions if energy rises.
 SCF Done:  E(UM062X) =  -416.302526815     A.U. after    1 cycles
             Convg  =    0.7455D-09             -V/T =  2.0027
 <Sx>= 0.0000 <Sy>= 0.0000 <Sz>= 1.0000 <S**2>= 2.0142 S= 1.0047
 <L.S>= 0.000000000000E+00
 Annihilation of the first spin contaminant:
 S**2 before annihilation     2.0142,   after     2.0001
 Range of M.O.s used for correlation:     1   240
 NBasis=   240 NAE=    26 NBE=    24 NFC=     0 NFV=     0
 NROrb=    240 NOA=    26 NOB=    24 NVA=   214 NVB=   216

 **** Warning!!: The largest alpha MO coefficient is  0.16907009D+02


 **** Warning!!: The largest beta MO coefficient is  0.15927194D+02

 Symmetrizing basis deriv contribution to polar:
 IMax=3 JMax=2 DiffMx= 0.00D+00
 G2DrvN: will do    11 centers at a time, making    1 passes doing MaxLOS=3.
 Calling FoFCou, ICntrl=  3107 FMM=F I1Cent=   0 AccDes= 0.00D+00.
 FoFDir/FoFCou used for L=0 through L=3.
 End of G2Drv Frequency-dependent properties file   721 does not exist.
 End of G2Drv Frequency-dependent properties file   722 does not exist.
          IDoAtm=1111111111
          Differentiating once with respect to electric field.
                with respect to dipole field.
          Differentiating once with respect to nuclear coordinates.
          There are    33 degrees of freedom in the 1st order CPHF.  IDoFFX=5.
     30 vectors produced by pass  0 Test12= 3.26D-14 3.03D-09 XBig12= 6.18D+01 4.04D+00.
 AX will form    30 AO Fock derivatives at one time.
     30 vectors produced by pass  1 Test12= 3.26D-14 3.03D-09 XBig12= 1.24D+01 6.85D-01.
     30 vectors produced by pass  2 Test12= 3.26D-14 3.03D-09 XBig12= 6.06D-01 1.42D-01.
     30 vectors produced by pass  3 Test12= 3.26D-14 3.03D-09 XBig12= 1.08D-02 2.10D-02.
     30 vectors produced by pass  4 Test12= 3.26D-14 3.03D-09 XBig12= 2.01D-04 1.72D-03.
     30 vectors produced by pass  5 Test12= 3.26D-14 3.03D-09 XBig12= 3.53D-06 1.94D-04.
     30 vectors produced by pass  6 Test12= 3.26D-14 3.03D-09 XBig12= 3.78D-08 1.97D-05.
     28 vectors produced by pass  7 Test12= 3.26D-14 3.03D-09 XBig12= 3.79D-10 2.41D-06.
      8 vectors produced by pass  8 Test12= 3.26D-14 3.03D-09 XBig12= 2.81D-12 1.88D-07.
      3 vectors produced by pass  9 Test12= 3.26D-14 3.03D-09 XBig12= 1.88D-14 1.60D-08.
 Inverted reduced A of dimension   249 with in-core refinement.
 Isotropic polarizability for W=    0.000000       45.96 Bohr**3.
 End of Minotr Frequency-dependent properties file   721 does not exist.
 End of Minotr Frequency-dependent properties file   722 does not exist.

 **********************************************************************

            Population analysis using the SCF density.

 **********************************************************************

 Orbital symmetries:
 Alpha Orbitals:
       Occupied  (A) (A) (A) (A) (A) (A) (A) (A) (A) (A) (A) (A)
                 (A) (A) (A) (A) (A) (A) (A) (A) (A) (A) (A) (A)
                 (A) (A)
       Virtual   (A) (A) (A) (A) (A) (A) (A) (A) (A) (A) (A) (A)
                 (A) (A) (A) (A) (A) (A) (A) (A) (A) (A) (A) (A)
                 (A) (A) (A) (A) (A) (A) (A) (A) (A) (A) (A) (A)
                 (A) (A) (A) (A) (A) (A) (A) (A) (A) (A) (A) (A)
                 (A) (A) (A) (A) (A) (A) (A) (A) (A) (A) (A) (A)
                 (A) (A) (A) (A) (A) (A) (A) (A) (A) (A) (A) (A)
                 (A) (A) (A) (A) (A) (A) (A) (A) (A) (A) (A) (A)
                 (A) (A) (A) (A) (A) (A) (A) (A) (A) (A) (A) (A)
                 (A) (A) (A) (A) (A) (A) (A) (A) (A) (A) (A) (A)
                 (A) (A) (A) (A) (A) (A) (A) (A) (A) (A) (A) (A)
                 (A) (A) (A) (A) (A) (A) (A) (A) (A) (A) (A) (A)
                 (A) (A) (A) (A) (A) (A) (A) (A) (A) (A) (A) (A)
                 (A) (A) (A) (A) (A) (A) (A) (A) (A) (A) (A) (A)
                 (A) (A) (A) (A) (A) (A) (A) (A) (A) (A) (A) (A)
                 (A) (A) (A) (A) (A) (A) (A) (A) (A) (A) (A) (A)
                 (A) (A) (A) (A) (A) (A) (A) (A) (A) (A) (A) (A)
                 (A) (A) (A) (A) (A) (A) (A) (A) (A) (A) (A) (A)
                 (A) (A) (A) (A) (A) (A) (A) (A) (A) (A)
 Beta  Orbitals:
       Occupied  (A) (A) (A) (A) (A) (A) (A) (A) (A) (A) (A) (A)
                 (A) (A) (A) (A) (A) (A) (A) (A) (A) (A) (A) (A)
       Virtual   (A) (A) (A) (A) (A) (A) (A) (A) (A) (A) (A) (A)
                 (A) (A) (A) (A) (A) (A) (A) (A) (A) (A) (A) (A)
                 (A) (A) (A) (A) (A) (A) (A) (A) (A) (A) (A) (A)
                 (A) (A) (A) (A) (A) (A) (A) (A) (A) (A) (A) (A)
                 (A) (A) (A) (A) (A) (A) (A) (A) (A) (A) (A) (A)
                 (A) (A) (A) (A) (A) (A) (A) (A) (A) (A) (A) (A)
                 (A) (A) (A) (A) (A) (A) (A) (A) (A) (A) (A) (A)
                 (A) (A) (A) (A) (A) (A) (A) (A) (A) (A) (A) (A)
                 (A) (A) (A) (A) (A) (A) (A) (A) (A) (A) (A) (A)
                 (A) (A) (A) (A) (A) (A) (A) (A) (A) (A) (A) (A)
                 (A) (A) (A) (A) (A) (A) (A) (A) (A) (A) (A) (A)
                 (A) (A) (A) (A) (A) (A) (A) (A) (A) (A) (A) (A)
                 (A) (A) (A) (A) (A) (A) (A) (A) (A) (A) (A) (A)
                 (A) (A) (A) (A) (A) (A) (A) (A) (A) (A) (A) (A)
                 (A) (A) (A) (A) (A) (A) (A) (A) (A) (A) (A) (A)
                 (A) (A) (A) (A) (A) (A) (A) (A) (A) (A) (A) (A)
                 (A) (A) (A) (A) (A) (A) (A) (A) (A) (A) (A) (A)
                 (A) (A) (A) (A) (A) (A) (A) (A) (A) (A) (A) (A)
 The electronic state is 3-A.
 Alpha  occ. eigenvalues --  -19.77455 -19.73205 -19.72143 -19.71303 -19.68819
 Alpha  occ. eigenvalues --  -10.68639  -1.37643  -1.30327  -1.22967  -1.02926
 Alpha  occ. eigenvalues --   -1.01456  -0.79884  -0.70101  -0.66204  -0.64666
 Alpha  occ. eigenvalues --   -0.63736  -0.61298  -0.56109  -0.55260  -0.54276
 Alpha  occ. eigenvalues --   -0.47182  -0.44890  -0.40762  -0.40509  -0.39739
 Alpha  occ. eigenvalues --   -0.32215
 Alpha virt. eigenvalues --    0.01532   0.01802   0.04348   0.04564   0.06966
 Alpha virt. eigenvalues --    0.09777   0.11680   0.15184   0.15942   0.17345
 Alpha virt. eigenvalues --    0.17808   0.18217   0.18580   0.20084   0.20719
 Alpha virt. eigenvalues --    0.21074   0.22660   0.23303   0.23949   0.24917
 Alpha virt. eigenvalues --    0.25067   0.27567   0.28091   0.29324   0.30558
 Alpha virt. eigenvalues --    0.31958   0.32279   0.33185   0.34385   0.37067
 Alpha virt. eigenvalues --    0.38534   0.42616   0.47579   0.51479   0.53319
 Alpha virt. eigenvalues --    0.58933   0.60011   0.60751   0.64552   0.66448
 Alpha virt. eigenvalues --    0.72021   0.74606   0.74998   0.79262   0.81217
 Alpha virt. eigenvalues --    0.88876   0.91218   0.95516   0.96766   0.97318
 Alpha virt. eigenvalues --    0.98462   1.01541   1.03112   1.05386   1.06527
 Alpha virt. eigenvalues --    1.08280   1.09558   1.10378   1.12816   1.13394
 Alpha virt. eigenvalues --    1.15453   1.17719   1.18925   1.20707   1.24716
 Alpha virt. eigenvalues --    1.25725   1.30430   1.32869   1.37987   1.41596
 Alpha virt. eigenvalues --    1.42802   1.48289   1.49819   1.52435   1.54325
 Alpha virt. eigenvalues --    1.56203   1.59916   1.60275   1.61942   1.62853
 Alpha virt. eigenvalues --    1.66115   1.72505   1.77157   1.82888   1.86628
 Alpha virt. eigenvalues --    1.94107   1.98725   2.00456   2.05003   2.09063
 Alpha virt. eigenvalues --    2.16337   2.19083   2.20119   2.24865   2.25882
 Alpha virt. eigenvalues --    2.30894   2.33084   2.37910   2.38424   2.46073
 Alpha virt. eigenvalues --    2.57066   2.59757   2.61092   2.73192   2.76038
 Alpha virt. eigenvalues --    2.85579   3.06620   3.11070   3.17276   3.22127
 Alpha virt. eigenvalues --    3.28079   3.33444   3.38542   3.41767   3.44080
 Alpha virt. eigenvalues --    3.52951   3.57889   3.61163   3.64925   3.66823
 Alpha virt. eigenvalues --    3.72664   3.75849   3.79444   3.85203   3.87783
 Alpha virt. eigenvalues --    3.99900   4.04582   4.12729   4.18772   4.21437
 Alpha virt. eigenvalues --    4.29483   4.38799   4.47519   4.57535   4.61493
 Alpha virt. eigenvalues --    4.63199   4.64381   4.71383   4.72506   4.78171
 Alpha virt. eigenvalues --    4.87700   4.89229   4.98547   4.98745   4.99370
 Alpha virt. eigenvalues --    5.05014   5.08424   5.09256   5.10727   5.11885
 Alpha virt. eigenvalues --    5.14322   5.14770   5.15434   5.16726   5.19359
 Alpha virt. eigenvalues --    5.21183   5.22081   5.25058   5.28140   5.30640
 Alpha virt. eigenvalues --    5.30981   5.36495   5.39090   5.44560   5.51878
 Alpha virt. eigenvalues --    5.52775   5.55455   5.61087   5.62985   5.66432
 Alpha virt. eigenvalues --    5.97562   6.04774   6.08724   6.09302   6.24723
 Alpha virt. eigenvalues --    6.34269   6.36993   6.48519   6.61362   6.69220
 Alpha virt. eigenvalues --    6.74588   6.80885   6.81930   6.82368   6.86190
 Alpha virt. eigenvalues --    6.88696   6.91076   6.95047   6.97595   7.02040
 Alpha virt. eigenvalues --    7.06220   7.08169   7.10665   7.18557   7.22818
 Alpha virt. eigenvalues --    7.25666   7.26786   7.30521   7.32963   7.43263
 Alpha virt. eigenvalues --    7.45937   7.49249   7.59666   7.66010   7.78060
 Alpha virt. eigenvalues --    7.86858   7.90338   7.91688  24.41679  49.94253
 Alpha virt. eigenvalues --   49.97565  50.00897  50.02482  50.13187
  Beta  occ. eigenvalues --  -19.76585 -19.71948 -19.71760 -19.70379 -19.68582
  Beta  occ. eigenvalues --  -10.68087  -1.34211  -1.28614  -1.21831  -0.99528
  Beta  occ. eigenvalues --   -0.97710  -0.77302  -0.67534  -0.63692  -0.62084
  Beta  occ. eigenvalues --   -0.61621  -0.55411  -0.53928  -0.51035  -0.50322
  Beta  occ. eigenvalues --   -0.45204  -0.40294  -0.39035  -0.36655
  Beta virt. eigenvalues --   -0.12389  -0.07381   0.01719   0.01957   0.04552
  Beta virt. eigenvalues --    0.04776   0.07377   0.10255   0.12162   0.15453
  Beta virt. eigenvalues --    0.16394   0.17853   0.18269   0.18651   0.19481
  Beta virt. eigenvalues --    0.20406   0.20973   0.21483   0.23296   0.23721
  Beta virt. eigenvalues --    0.24171   0.25070   0.25250   0.27893   0.29008
  Beta virt. eigenvalues --    0.29721   0.30736   0.32374   0.33285   0.33765
  Beta virt. eigenvalues --    0.34501   0.37411   0.38907   0.42739   0.48484
  Beta virt. eigenvalues --    0.51841   0.53980   0.59250   0.60575   0.61286
  Beta virt. eigenvalues --    0.65856   0.67031   0.72331   0.74768   0.75515
  Beta virt. eigenvalues --    0.79560   0.81481   0.89091   0.91648   0.96041
  Beta virt. eigenvalues --    0.97800   0.98091   0.98805   1.01858   1.04739
  Beta virt. eigenvalues --    1.05943   1.07100   1.09149   1.10949   1.12572
  Beta virt. eigenvalues --    1.13603   1.13974   1.15901   1.18575   1.19533
  Beta virt. eigenvalues --    1.21110   1.25560   1.26190   1.30872   1.33372
  Beta virt. eigenvalues --    1.38666   1.42987   1.43715   1.49255   1.50910
  Beta virt. eigenvalues --    1.53289   1.55155   1.57514   1.60547   1.61219
  Beta virt. eigenvalues --    1.62907   1.63917   1.67612   1.73557   1.78749
  Beta virt. eigenvalues --    1.83780   1.87439   1.94528   1.99393   2.01379
  Beta virt. eigenvalues --    2.05976   2.10093   2.17131   2.19204   2.21229
  Beta virt. eigenvalues --    2.25731   2.26999   2.31066   2.33554   2.38435
  Beta virt. eigenvalues --    2.38934   2.47062   2.57428   2.60155   2.61981
  Beta virt. eigenvalues --    2.72369   2.76582   2.85648   3.08832   3.13503
  Beta virt. eigenvalues --    3.18776   3.24280   3.29917   3.34729   3.42086
  Beta virt. eigenvalues --    3.45182   3.47298   3.55317   3.60370   3.63970
  Beta virt. eigenvalues --    3.66412   3.67540   3.73026   3.76258   3.80504
  Beta virt. eigenvalues --    3.86560   3.89903   4.00078   4.05187   4.12828
  Beta virt. eigenvalues --    4.20323   4.21346   4.30950   4.39841   4.50559
  Beta virt. eigenvalues --    4.57589   4.62455   4.63275   4.65053   4.71956
  Beta virt. eigenvalues --    4.73822   4.78279   4.88781   4.89467   5.01390
  Beta virt. eigenvalues --    5.01937   5.04845   5.06525   5.09047   5.10574
  Beta virt. eigenvalues --    5.12234   5.14093   5.15418   5.15605   5.16813
  Beta virt. eigenvalues --    5.17397   5.19831   5.21960   5.22658   5.26321
  Beta virt. eigenvalues --    5.29503   5.30938   5.31473   5.37460   5.39881
  Beta virt. eigenvalues --    5.45745   5.52656   5.53482   5.55976   5.61371
  Beta virt. eigenvalues --    5.63770   5.67183   5.98107   6.05342   6.09082
  Beta virt. eigenvalues --    6.10044   6.25620   6.35008   6.39824   6.49288
  Beta virt. eigenvalues --    6.62638   6.78845   6.79424   6.82080   6.86566
  Beta virt. eigenvalues --    6.86959   6.88542   6.90131   6.92821   6.98330
  Beta virt. eigenvalues --    6.99993   7.04083   7.06557   7.10799   7.11488
  Beta virt. eigenvalues --    7.19123   7.25722   7.26611   7.28578   7.32721
  Beta virt. eigenvalues --    7.35389   7.43860   7.46402   7.50331   7.60106
  Beta virt. eigenvalues --    7.66220   7.80170   7.87091   7.90585   7.93285
  Beta virt. eigenvalues --   24.42441  49.93768  49.97196  50.00409  50.02046
  Beta virt. eigenvalues --   50.12908
          Condensed to atoms (all electrons):
              1          2          3          4          5          6
     1  C    5.180997   0.137673   0.172812   0.307672   0.440681  -0.054961
     2  O    0.137673   7.713341   0.002840  -0.003300  -0.042945   0.179365
     3  O    0.172812   0.002840   7.923292  -0.017233  -0.041224   0.011418
     4  H    0.307672  -0.003300  -0.017233   0.428402  -0.024734  -0.009841
     5  H    0.440681  -0.042945  -0.041224  -0.024734   0.464124   0.006990
     6  O   -0.054961   0.179365   0.011418  -0.009841   0.006990   8.040179
     7  H   -0.015063  -0.010248   0.264276  -0.011622   0.005395   0.010139
     8  O    0.036388  -0.000937  -0.032841  -0.061509   0.001563  -0.016579
     9  O   -0.103472   0.012075   0.019444   0.101709   0.005226   0.011210
    10  H   -0.002442  -0.004716   0.004860   0.007576  -0.000259   0.012789
              7          8          9         10
[...]
           vibrations may cause significant error
 Vibrational temperatures:    147.60   212.75   233.32   275.93   472.38
          (Kelvin)            590.45   640.29   855.30   879.67   951.12
                             1335.15  1533.79  1551.08  1621.00  1767.82
                             1816.33  1954.19  2018.62  2080.24  2286.97
                             4592.10  5306.62  5427.68
 
 Zero-point correction=                           0.061041 (Hartree/Particle)
 Thermal correction to Energy=                    0.068026
 Thermal correction to Enthalpy=                  0.068971
 Thermal correction to Gibbs Free Energy=         0.028971
 Sum of electronic and zero-point Energies=           -416.241486
 Sum of electronic and thermal Energies=              -416.234500
 Sum of electronic and thermal Enthalpies=            -416.233556
 Sum of electronic and thermal Free Energies=         -416.273556
 
                     E (Thermal)             CV                S
                      KCal/Mol        Cal/Mol-Kelvin    Cal/Mol-Kelvin
 Total                   42.687             23.006             84.187
 Electronic               0.000              0.000              2.183
 Translational            0.889              2.981             39.597
 Rotational               0.889              2.981             26.867
 Vibrational             40.910             17.044             15.540
 Vibration     1          0.605              1.947              3.405
 Vibration     2          0.617              1.905              2.699
 Vibration     3          0.622              1.889              2.524
 Vibration     4          0.634              1.851              2.211
 Vibration     5          0.712              1.619              1.268
 Vibration     6          0.775              1.448              0.925
 Vibration     7          0.804              1.372              0.811
 Vibration     8          0.952              1.044              0.459
 Vibration     9          0.971              1.008              0.430
                       Q            Log10(Q)             Ln(Q)
 Total Bot       0.472491D-13        -13.325606        -30.683343
 Total V=0       0.563945D+15         14.751237         33.965977
 Vib (Bot)       0.256606D-26        -26.590734        -61.227427
 Vib (Bot)    1  0.199956D+01          0.300935          0.692929
 Vib (Bot)    2  0.137212D+01          0.137391          0.316354
 Vib (Bot)    3  0.124583D+01          0.095457          0.219798
 Vib (Bot)    4  0.104292D+01          0.018249          0.042020
 Vib (Bot)    5  0.569677D+00         -0.244371         -0.562685
 Vib (Bot)    6  0.430994D+00         -0.365529         -0.841662
 Vib (Bot)    7  0.386898D+00         -0.412404         -0.949595
 Vib (Bot)    8  0.252613D+00         -0.597545         -1.375898
 Vib (Bot)    9  0.241359D+00         -0.617336         -1.421469
 Vib (V=0)       0.306273D+02          1.486109          3.421893
 Vib (V=0)    1  0.256113D+01          0.408432          0.940449
 Vib (V=0)    2  0.196038D+01          0.292340          0.673137
 Vib (V=0)    3  0.184242D+01          0.265388          0.611078
 Vib (V=0)    4  0.165658D+01          0.219212          0.504754
 Vib (V=0)    5  0.125798D+01          0.099673          0.229507
 Vib (V=0)    6  0.116012D+01          0.064502          0.148522
 Vib (V=0)    7  0.113221D+01          0.053927          0.124172
 Vib (V=0)    8  0.106019D+01          0.025384          0.058448
 Vib (V=0)    9  0.105521D+01          0.023337          0.053736
 Electronic      0.300000D+01          0.477121          1.098612
 Translational   0.369745D+08          7.567902         17.425738
 Rotational      0.165998D+06          5.220104         12.019734
 ***** Axes restored to original set *****
 -------------------------------------------------------------------
 Center     Atomic                   Forces (Hartrees/Bohr)
 Number     Number              X              Y              Z
 -------------------------------------------------------------------
      1        6          -0.000000804    0.000004374   -0.000007779
      2        8          -0.000007439    0.000011146   -0.000008368
      3        8           0.000015940   -0.000001001   -0.000005174
      4        1           0.000008125   -0.000004133   -0.000004706
      5        1           0.000000431    0.000011231   -0.000008955
      6        8          -0.000006593    0.000006951   -0.000002574
      7        1           0.000013015   -0.000003412   -0.000006833
      8        8          -0.000004433   -0.000008185    0.000011980
      9        8          -0.000015221   -0.000005563    0.000020451
     10        1          -0.000003020   -0.000011409    0.000011958
 -------------------------------------------------------------------
 Cartesian Forces:  Max     0.000020451 RMS     0.000009024

 GradGradGradGradGradGradGradGradGradGradGradGradGradGradGradGradGradGrad
 Berny optimization.
 Internal  Forces:  Max     0.000020508 RMS     0.000005405
 Search for a saddle point.
 Step number   1 out of a maximum of    2
 All quantities printed in internal units (Hartrees-Bohrs-Radians)
 Swaping is turned off.
 Second derivative matrix not updated -- analytic derivatives used.
 ITU=  0
     Eigenvalues ---   -0.07904   0.00111   0.00504   0.00717   0.02387
     Eigenvalues ---    0.04490   0.06344   0.07539   0.08624   0.10308
     Eigenvalues ---    0.16720   0.17943   0.18661   0.19923   0.20633
     Eigenvalues ---    0.24785   0.30957   0.35841   0.39618   0.45577
     Eigenvalues ---    0.48407   0.51173   0.52846   0.55308
 Eigenvectors required to have negative eigenvalues:
                          R3        R7        R8        A4        D1
   1                   -0.69204   0.67486  -0.13441   0.11402   0.06722
                          D4        R2        D3        A1        A5
   1                   -0.06701   0.05952  -0.05725  -0.05339  -0.05222
 Angle between quadratic step and forces=  77.24 degrees.
 Linear search not attempted -- option 19 set.
 Iteration  1 RMS(Cart)=  0.00011068 RMS(Int)=  0.00000001
 Iteration  2 RMS(Cart)=  0.00000001 RMS(Int)=  0.00000000
 Variable       Old X    -DE/DX   Delta X   Delta X   Delta X     New X
                                 (Linear)    (Quad)   (Total)
    R1        2.72166   0.00000   0.00000   0.00000   0.00000   2.72166
    R2        2.52316   0.00000   0.00000   0.00001   0.00001   2.52317
    R3        2.55750   0.00000   0.00000  -0.00015  -0.00015   2.55736
    R4        2.05214   0.00000   0.00000   0.00000   0.00000   2.05214
    R5        2.45781   0.00000   0.00000   0.00000   0.00000   2.45781
    R6        1.83891   0.00000   0.00000  -0.00001  -0.00001   1.83891
    R7        2.21346  -0.00002   0.00000   0.00004   0.00004   2.21350
    R8        2.61529   0.00000   0.00000  -0.00001  -0.00001   2.61528
    R9        1.82923   0.00000   0.00000   0.00000   0.00000   1.82923
    A1        1.99127   0.00000   0.00000  -0.00001  -0.00001   1.99126
    A2        1.82888   0.00000   0.00000   0.00002   0.00002   1.82890
    A3        1.86216   0.00000   0.00000   0.00001   0.00001   1.86216
    A4        1.84810   0.00000   0.00000   0.00004   0.00004   1.84814
    A5        1.98849   0.00000   0.00000  -0.00001  -0.00001   1.98848
    A6        1.93942   0.00000   0.00000  -0.00005  -0.00005   1.93937
    A7        1.94530   0.00000   0.00000  -0.00003  -0.00003   1.94527
    A8        1.90600   0.00001   0.00000   0.00003   0.00003   1.90603
    A9        2.76254   0.00000   0.00000   0.00009   0.00009   2.76263
   A10        1.79766   0.00000   0.00000   0.00000   0.00000   1.79766
   A11        1.79846  -0.00002   0.00000  -0.00008  -0.00008   1.79838
    D1        1.14817   0.00000   0.00000  -0.00010  -0.00010   1.14807
    D2       -0.86512   0.00000   0.00000  -0.00016  -0.00016  -0.86528
    D3       -2.92321   0.00000   0.00000  -0.00012  -0.00012  -2.92332
    D4       -1.36147   0.00000   0.00000   0.00014   0.00014  -1.36134
    D5        0.64053   0.00000   0.00000   0.00018   0.00018   0.64071
    D6        2.77726   0.00000   0.00000   0.00014   0.00014   2.77740
    D7        1.55664   0.00000   0.00000  -0.00001  -0.00001   1.55662
    D8       -0.55410   0.00000   0.00000  -0.00003  -0.00003  -0.55413
    D9       -2.72180   0.00000   0.00000  -0.00002  -0.00002  -2.72182
   D10       -0.01718   0.00001   0.00000   0.00009   0.00009  -0.01708
   D11       -1.55431   0.00000   0.00000  -0.00007  -0.00007  -1.55438
         Item               Value     Threshold  Converged?
 Maximum Force            0.000021     0.000450     YES
 RMS     Force            0.000005     0.000300     YES
 Maximum Displacement     0.000271     0.001800     YES
 RMS     Displacement     0.000111     0.001200     YES
 Predicted change in Energy=-1.409650D-09
 Optimization completed.
    -- Stationary point found.
                           ----------------------------
                           !   Optimized Parameters   !
                           ! (Angstroms and Degrees)  !
 --------------------------                            --------------------------
 ! Name  Definition              Value          Derivative Info.                !
 --------------------------------------------------------------------------------
 ! R1    R(1,2)                  1.4402         -DE/DX =    0.0                 !
 ! R2    R(1,3)                  1.3352         -DE/DX =    0.0                 !
 ! R3    R(1,4)                  1.3534         -DE/DX =    0.0                 !
 ! R4    R(1,5)                  1.0859         -DE/DX =    0.0                 !
 ! R5    R(2,6)                  1.3006         -DE/DX =    0.0                 !
 ! R6    R(3,7)                  0.9731         -DE/DX =    0.0                 !
 ! R7    R(4,9)                  1.1713         -DE/DX =    0.0                 !
 ! R8    R(8,9)                  1.384          -DE/DX =    0.0                 !
 ! R9    R(8,10)                 0.968          -DE/DX =    0.0                 !
 ! A1    A(2,1,3)              114.0916         -DE/DX =    0.0                 !
 ! A2    A(2,1,4)              104.7873         -DE/DX =    0.0                 !
 ! A3    A(2,1,5)              106.6937         -DE/DX =    0.0                 !
 ! A4    A(3,1,4)              105.8883         -DE/DX =    0.0                 !
 ! A5    A(3,1,5)              113.9322         -DE/DX =    0.0                 !
 ! A6    A(4,1,5)              111.1204         -DE/DX =    0.0                 !
 ! A7    A(1,2,6)              111.4578         -DE/DX =    0.0                 !
 ! A8    A(1,3,7)              109.2055         -DE/DX =    0.0                 !
 ! A9    A(1,4,9)              158.282          -DE/DX =    0.0                 !
 ! A10   A(9,8,10)             102.9983         -DE/DX =    0.0                 !
 ! A11   A(4,9,8)              103.0442         -DE/DX =    0.0                 !
 ! D1    D(3,1,2,6)             65.7852         -DE/DX =    0.0                 !
 ! D2    D(4,1,2,6)            -49.5676         -DE/DX =    0.0                 !
 ! D3    D(5,1,2,6)           -167.4873         -DE/DX =    0.0                 !
 ! D4    D(2,1,3,7)            -78.0066         -DE/DX =    0.0                 !
 ! D5    D(4,1,3,7)             36.6995         -DE/DX =    0.0                 !
 ! D6    D(5,1,3,7)            159.1252         -DE/DX =    0.0                 !
 ! D7    D(2,1,4,9)             89.1888         -DE/DX =    0.0                 !
 ! D8    D(3,1,4,9)            -31.7475         -DE/DX =    0.0                 !
 ! D9    D(5,1,4,9)           -155.9479         -DE/DX =    0.0                 !
 ! D10   D(1,4,9,8)             -0.9841         -DE/DX =    0.0                 !
 ! D11   D(10,8,9,4)           -89.0553         -DE/DX =    0.0                 !
 --------------------------------------------------------------------------------
 GradGradGradGradGradGradGradGradGradGradGradGradGradGradGradGradGradGrad

 1\1\GINC-COMPUTE-3-042\Freq\UM062X\6-311+G(2df,2p)\C1H4O5(3)\ROOT\04-A
 ug-2017\0\\#N Geom=AllCheck Guess=TCheck SCRF=Check GenChk UM062X/6-31
 1+G(2df,2p) Freq\\[O]O+[O]OCO_OO+[O]O[CH]O\\0,3\C,-0.741034,0.710489,0
 .501248\O,-1.526165,-0.480703,0.30396\O,-0.509289,1.401956,-0.617199\H
 ,0.466649,0.263228,0.917275\H,-1.235113,1.284397,1.279576\O,-0.888553,
 -1.357146,-0.414996\H,0.199101,0.965897,-1.122157\O,1.793385,-0.157751
 ,-0.525496\O,1.569915,-0.122496,0.839838\H,1.501224,-1.047331,-0.77103
 5\\Version=EM64L-G09RevB.01\State=3-A\HF=-416.3025268\S2=2.01418\S2-1=
 0.\S2A=2.000102\RMSD=7.455e-10\RMSF=9.024e-06\ZeroPoint=0.061041\Therm
 al=0.0680263\Dipole=-0.1780548,0.084518,-0.0463724\DipoleDeriv=1.37304
 87,0.1414961,0.0130001,-0.0909878,1.148582,-0.1533552,0.5439865,-0.496
 1678,0.7822939,-0.5346146,-0.0897134,0.0738717,-0.1102857,-0.6330063,-
 0.1286111,-0.0165568,-0.224782,-0.3174687,-0.553443,-0.0989941,-0.0049
 431,0.0382768,-0.6716377,0.1637991,-0.3427056,0.5855941,-0.8346174,-0.
 8896439,0.2971382,-0.0420414,0.359203,0.029941,0.012995,0.0112918,-0.0
 049013,0.0986433,-0.0411257,0.0258505,0.0991743,-0.0175275,0.0184607,-
 0.041455,-0.08286,0.0334637,0.0618483,-0.0828046,-0.1262629,-0.0786746
 ,-0.0828298,-0.0155402,0.1281819,-0.0594048,0.1188645,-0.0216932,0.366
 716,0.0019382,-0.0025214,0.0840144,0.2446075,-0.0238522,0.0898043,-0.0
 909129,0.3714571,-0.359624,0.0661903,-0.0260047,0.1688546,-0.1981142,-
 0.0742194,0.7590207,-0.1732928,-0.3553398,0.3996693,-0.163482,-0.01439
 1,-0.2154147,-0.1914638,0.0822111,-0.8971165,0.2257299,-0.0215309,0.32
 18218,-0.0541609,-0.0174699,-0.1333033,0.268171,0.0343058,-0.0054594,0
 .0264045,0.2364074\Polar=56.4923473,-7.0929462,42.4290421,-1.8691313,3
 .2830074,38.9600084\PG=C01 [X(C1H4O5)]\NImag=1\\0.31096187,-0.02234439
 ,0.42501764,-0.18554713,0.06085061,0.60430908,-0.13444585,-0.06576422,
 0.00144055,0.30116328,-0.04600180,-0.08461096,-0.01475014,-0.03140474,
 0.36486339,0.00977054,-0.01849355,-0.05854547,-0.13951228,0.16711695,0
 .19384585,-0.07093696,-0.00680458,0.05585384,0.00003922,-0.03028416,0.
 01774330,0.34107263,-0.00030049,-0.14183438,0.10275691,-0.02316831,-0.
 04460408,0.02946890,-0.13621536,0.30300463,0.05179837,0.10426091,-0.28
 560873,0.01639674,0.02941656,0.00812381,-0.24015779,-0.06174231,0.4564
 1186,0.10195359,-0.04514406,0.05436535,-0.02196480,-0.01330153,-0.0089
 1643,-0.00758760,0.01187522,-0.03066974,-0.10707933,-0.03509478,-0.004
 96177,-0.02226907,-0.01516300,-0.00337508,-0.00637792,0.00927067,-0.00
 934092,0.02358049,0.05037516,0.02824181,0.00239952,-0.00339704,-0.0275
 3819,-0.00510148,-0.00295034,-0.00019402,-0.01147192,0.01274515,-0.015
 57063,-0.01085849,-0.00015013,0.09059513,-0.10719344,0.08394417,0.1126
 5942,0.00950651,-0.01805601,-0.01499680,-0.00011913,-0.00123915,0.0039
 6310,-0.00938583,0.00799094,0.00796136,0.10459360,0.06653464,-0.133369
 92,-0.11730869,0.01353960,-0.01509202,-0.01651772,-0.01261115,0.012214
 39,0.01973016,0.00176559,-0.00129050,-0.00272897,-0.06692847,0.1447071
 1,0.09035661,-0.10320729,-0.18149643,0.00483498,-0.00793578,-0.0033586
 1,0.02213047,-0.00951489,-0.02575167,-0.00888991,0.00466530,0.00378566
 ,-0.10814176,0.11550326,0.20883925,0.02844416,0.00763497,-0.00521816,-
 0.15750305,0.13436916,0.13317135,-0.00195012,-0.00148318,-0.00005956,-
 0.00258961,0.00016299,-0.00099942,-0.00159945,-0.00278029,-0.00165444,
 0.13957583,0.01097546,-0.05816345,-0.03969275,0.12097497,-0.21279169,-
 0.15510423,0.00269579,0.00587134,-0.00202746,0.01019078,-0.00158769,0.
 00153583,-0.00461620,-0.00690167,-0.00019400,-0.13191701,0.27157249,-0
 .00248401,-0.02843667,-0.02112347,0.12341856,-0.16837069,-0.13889594,0
 .00210948,0.00511108,0.00138441,0.00425868,0.00073167,0.00073724,-0.00
 152468,-0.00352377,0.00164305,-0.12349490,0.19432763,0.15592043,-0.000
 66697,-0.00692104,0.01588188,-0.00046096,0.00208425,0.00044343,-0.2558
 3600,0.15299552,0.17718635,-0.00495305,0.00257799,-0.00158397,0.001321
 26,0.00060178,-0.00337591,-0.00016176,0.00059144,-0.00067961,0.2551481
 6,-0.02029279,0.01667523,0.00993983,-0.00035322,-0.00466135,-0.0001689
 4,0.16690896,-0.12769425,-0.10212626,0.00635776,-0.00214946,0.00142500
 ,0.00059833,-0.00037244,0.00255500,-0.00014692,0.00201994,0.00011953,-
 0.14751972,0.11791131,0.02695428,-0.01061397,-0.03637098,-0.00083138,-
 0.00173584,-0.00042250,0.15777852,-0.07994323,-0.13905147,0.00725959,-
 0.00182928,-0.00104944,0.00120084,0.00446004,-0.00351216,-0.00071364,0
 .00088122,0.00068497,-0.18929595,0.08842468,0.18214125,-0.00412259,0.0
 0206084,-0.00604469,-0.00137801,0.00077776,0.00200410,-0.00724749,0.00
 393697,0.00733002,-0.00128629,-0.00219661,0.02884826,0.00056890,-0.000
 26732,0.00048018,-0.00538692,-0.00335874,0.00001151,0.00182914,-0.0055
 2218,0.00126161,0.12083968,-0.00280988,-0.00271793,-0.00031738,0.00018
 099,0.00218182,0.00245615,0.00808390,-0.00168366,-0.00341111,0.0042422
 9,-0.00093170,-0.01040525,0.00038297,0.00011450,0.00037903,-0.00161975
 ,-0.00061398,-0.00106525,-0.00294350,0.00031155,-0.00133980,0.14544437
 ,0.49386997,-0.03970004,0.01847022,-0.03357720,0.01038733,0.00400752,0
 .00299870,-0.00202170,-0.00473594,0.02316685,0.06909057,-0.02264207,-0
 .01496420,0.00399105,-0.00004983,0.00476831,-0.00298839,-0.00476362,-0
 .00085598,0.00524465,-0.00658274,-0.00412929,-0.04048753,0.10395104,0.
 36277180,-0.12923724,0.05023868,-0.04715407,0.00516536,0.00440853,0.00
 269349,0.00488041,-0.00569333,0.01585443,0.05704049,-0.02208002,-0.010
 99785,0.00280614,0.00042443,0.00484512,0.00118858,-0.00591379,-0.00283
 998,0.00227363,-0.00248932,-0.00406341,-0.04257863,0.00079614,0.027354
 59,0.09451386,0.04472563,-0.01508795,0.01831085,0.00178102,-0.00060573
 ,-0.00079995,-0.00034348,0.00330303,-0.00666948,-0.02136952,-0.0052462
 6,0.00414430,-0.00150151,0.00006975,-0.00181727,-0.00206864,0.00147728
 ,-0.00032826,-0.00192653,0.00033999,0.00151444,-0.00108192,-0.04762569
 ,0.01784594,-0.02439321,0.05400704,0.04594373,-0.01916789,0.04006065,-
 0.01139768,-0.00467489,-0.00441484,-0.00116337,0.00568396,-0.02264280,
 -0.07416496,0.02536906,-0.03467366,-0.00503937,0.00043282,-0.00484647,
 0.00283733,0.00480017,0.00177587,-0.00495816,0.00555962,0.00047404,0.0
 2220612,-0.03044993,-0.28417428,0.02184414,0.01191614,0.34967456,0.005
 24343,0.00309964,0.00376301,-0.00012170,-0.00259146,-0.00240070,-0.002
 31496,-0.00070788,-0.00164192,-0.00414757,0.00415665,0.00180400,-0.000
 49857,-0.00027880,-0.00058534,-0.00001767,0.00037729,0.00122495,0.0015
 0654,0.00245911,0.00044954,-0.06123780,-0.15175752,-0.03087053,0.00394
 741,0.00617816,0.00389221,0.05764089,0.00460842,-0.00094651,0.00247983
 ,-0.00062310,-0.00130429,-0.00157970,-0.00070059,0.00076390,-0.0010115
 1,-0.00499170,0.00064160,-0.00021855,-0.00057505,-0.00007919,-0.000433
 36,-0.00215133,-0.00088258,0.00143472,0.00045982,-0.00238052,0.0001817
 3,-0.13979316,-0.44290487,-0.10550051,0.00470189,0.00936853,0.00053093
 ,0.13906480,0.43772392,0.00050813,-0.00026532,-0.00010925,0.00036466,-
 0.00012336,0.00086303,-0.00080082,0.00017037,-0.00046163,-0.00147465,-
 0.00107805,-0.00112789,-0.00007317,0.00000268,-0.00007093,-0.00088017,
 0.00023720,-0.00127058,0.00113729,0.00085427,0.00123557,-0.01560958,-0
 .05979750,-0.05600471,-0.00753645,-0.04411671,-0.04123307,0.02436478,0
 .10411641,0.09817947\\0.00000080,-0.00000437,0.00000778,0.00000744,-0.
 00001115,0.00000837,-0.00001594,0.00000100,0.00000517,-0.00000813,0.00
 000413,0.00000471,-0.00000043,-0.00001123,0.00000895,0.00000659,-0.000
 00695,0.00000257,-0.00001301,0.00000341,0.00000683,0.00000443,0.000008
 19,-0.00001198,0.00001522,0.00000556,-0.00002045,0.00000302,0.00001141
 ,-0.00001196\\\@


 I take a simple view of life: keep your eyes open and get on with it.
 -- Laurence Olivier
 Job cpu time:  0 days  1 hours 38 minutes 39.3 seconds.
 File lengths (MBytes):  RWF=   2416 Int=      0 D2E=      0 Chk=     32 Scr=     32
 Normal termination of Gaussian 09 at Fri Aug  4 00:10:49 2017.
