 Entering Gaussian System, Link 0=/shared/apps/gaussian/G09_LINUX_LINDA/g09/g09
 Input=/gss_gpfs_scratch/harms.n/QMscratch/[O]O+[O]OCO_OO+[O]O[CH]ORxnC.gjf
 Output=/gss_gpfs_scratch/harms.n/QMscratch/[O]O+[O]OCO_OO+[O]O[CH]ORxnC.log
 Initial command:
 /shared/apps/gaussian/G09_LINUX_LINDA/g09/l1.exe /gss_gpfs_scratch/harms.n/comparerTST/Gau-35871.inp -scrdir=/gss_gpfs_scratch/harms.n/comparerTST/
 Entering Link 1 = /shared/apps/gaussian/G09_LINUX_LINDA/g09/l1.exe PID=     35872.
  
 Copyright (c) 1988,1990,1992,1993,1995,1998,2003,2009,2010,
            Gaussian, Inc.  All Rights Reserved.
  
 This is part of the Gaussian(R) 09 program.  It is based on
 the Gaussian(R) 03 system (copyright 2003, Gaussian, Inc.),
 the Gaussian(R) 98 system (copyright 1998, Gaussian, Inc.),
 the Gaussian(R) 94 system (copyright 1995, Gaussian, Inc.),
 the Gaussian 92(TM) system (copyright 1992, Gaussian, Inc.),
 the Gaussian 90(TM) system (copyright 1990, Gaussian, Inc.),
 the Gaussian 88(TM) system (copyright 1988, Gaussian, Inc.),
 the Gaussian 86(TM) system (copyright 1986, Carnegie Mellon
 University), and the Gaussian 82(TM) system (copyright 1983,
 Carnegie Mellon University). Gaussian is a federally registered
 trademark of Gaussian, Inc.
  
 This software contains proprietary and confidential information,
 including trade secrets, belonging to Gaussian, Inc.
  
 This software is provided under written license and may be
 used, copied, transmitted, or stored only in accord with that
 written license.
  
 The following legend is applicable only to US Government
 contracts under FAR:
  
                    RESTRICTED RIGHTS LEGEND
  
 Use, reproduction and disclosure by the US Government is
 subject to restrictions as set forth in subparagraphs (a)
 and (c) of the Commercial Computer Software - Restricted
 Rights clause in FAR 52.227-19.
  
 Gaussian, Inc.
 340 Quinnipiac St., Bldg. 40, Wallingford CT 06492
  
  
 ---------------------------------------------------------------
 Warning -- This program may not be used in any manner that
 competes with the business of Gaussian, Inc. or will provide
 assistance to any competitor of Gaussian, Inc.  The licensee
 of this program is prohibited from giving any competitor of
 Gaussian, Inc. access to this program.  By using this program,
 the user acknowledges that Gaussian, Inc. is engaged in the
 business of creating and licensing software in the field of
 computational chemistry and represents and warrants to the
 licensee that it is not a competitor of Gaussian, Inc. and that
 it will not use this program in any manner prohibited above.
 ---------------------------------------------------------------
  

 Cite this work as:
 Gaussian 09, Revision B.01,
 M. J. Frisch, G. W. Trucks, H. B. Schlegel, G. E. Scuseria, 
 M. A. Robb, J. R. Cheeseman, G. Scalmani, V. Barone, B. Mennucci, 
 G. A. Petersson, H. Nakatsuji, M. Caricato, X. Li, H. P. Hratchian, 
 A. F. Izmaylov, J. Bloino, G. Zheng, J. L. Sonnenberg, M. Hada, 
 M. Ehara, K. Toyota, R. Fukuda, J. Hasegawa, M. Ishida, T. Nakajima, 
 Y. Honda, O. Kitao, H. Nakai, T. Vreven, J. A. Montgomery, Jr., 
 J. E. Peralta, F. Ogliaro, M. Bearpark, J. J. Heyd, E. Brothers, 
 K. N. Kudin, V. N. Staroverov, T. Keith, R. Kobayashi, J. Normand, 
 K. Raghavachari, A. Rendell, J. C. Burant, S. S. Iyengar, J. Tomasi, 
 M. Cossi, N. Rega, J. M. Millam, M. Klene, J. E. Knox, J. B. Cross, 
 V. Bakken, C. Adamo, J. Jaramillo, R. Gomperts, R. E. Stratmann, 
 O. Yazyev, A. J. Austin, R. Cammi, C. Pomelli, J. W. Ochterski, 
 R. L. Martin, K. Morokuma, V. G. Zakrzewski, G. A. Voth, 
 P. Salvador, J. J. Dannenberg, S. Dapprich, A. D. Daniels, 
 O. Farkas, J. B. Foresman, J. V. Ortiz, J. Cioslowski, 
 and D. J. Fox, Gaussian, Inc., Wallingford CT, 2010.
 
 ******************************************
 Gaussian 09:  EM64L-G09RevB.01 12-Aug-2010
                 3-Aug-2017 
 ******************************************
 %nprocshared=20
 Will use up to   20 processors via shared memory.
 %mem=5GB
 ---------------------------------------------------
 # m062x/6-311+g(2df,2p) opt=(ts,calcfc,noeigentest)
 ---------------------------------------------------
 1/5=1,10=4,11=1,14=-1,18=20,26=3,38=1/1,3;
 2/9=110,12=2,17=6,18=5,40=1/2;
 3/5=4,6=6,7=214,11=2,16=1,25=1,30=1,71=2,74=-55/1,2,3;
 4//1;
 5/5=2,38=5/2;
 8/6=4,10=90,11=11/1;
 11/6=1,8=1,9=11,15=111,16=1/1,2,10;
 10/6=1,7=6,13=1/2;
 6/7=2,8=2,9=2,10=2,28=1/1;
 7/10=1,18=20,25=1/1,2,3,16;
 1/5=1,10=4,11=1,14=-1,18=20/3(2);
 2/9=110/2;
 99//99;
 2/9=110/2;
 3/5=4,6=6,7=214,11=2,16=1,25=1,30=1,71=1,74=-55/1,2,3;
 4/5=5,16=3/1;
 5/5=2,38=5/2;
 7//1,2,3,16;
 1/5=1,11=1,14=-1,18=20/3(-5);
 2/9=110/2;
 6/7=2,8=2,9=2,10=2,19=2,28=1/1;
 99/9=1/99;
 ------------------------
 [O]O+[O]OCO_OO+[O]O[CH]O
 ------------------------
 Symbolic Z-matrix:
 Charge =  0 Multiplicity = 3
 C                     0.82202  -0.63779   0.51351 
 O                     1.42535   0.66789   0.38216 
 O                     0.90523  -1.36307  -0.62188 
 H                    -0.43225  -0.38517   0.75672 
 H                     1.31888  -1.12608   1.34658 
 O                     0.72534   1.41235  -0.42012 
 H                     0.30855  -0.99224  -1.2859 
 O                    -1.95073   0.05519  -0.52864 
 O                    -1.65665  -0.10331   0.78979 
 H                    -1.71557   0.97782  -0.70887 
 

 GradGradGradGradGradGradGradGradGradGradGradGradGradGradGradGradGradGrad
 Berny optimization.
 Initialization pass.
                           ----------------------------
                           !    Initial Parameters    !
                           ! (Angstroms and Degrees)  !
 --------------------------                            --------------------------
 ! Name  Definition              Value          Derivative Info.                !
 --------------------------------------------------------------------------------
 ! R1    R(1,2)                  1.4443         calculate D2E/DX2 analytically  !
 ! R2    R(1,3)                  1.3498         calculate D2E/DX2 analytically  !
 ! R3    R(1,4)                  1.3024         calculate D2E/DX2 analytically  !
 ! R4    R(1,5)                  1.086          calculate D2E/DX2 analytically  !
 ! R5    R(2,6)                  1.2992         calculate D2E/DX2 analytically  !
 ! R6    R(3,7)                  0.9667         calculate D2E/DX2 analytically  !
 ! R7    R(4,9)                  1.2569         calculate D2E/DX2 analytically  !
 ! R8    R(8,9)                  1.3601         calculate D2E/DX2 analytically  !
 ! R9    R(8,10)                 0.969          calculate D2E/DX2 analytically  !
 ! A1    A(2,1,3)              112.5495         calculate D2E/DX2 analytically  !
 ! A2    A(2,1,4)              104.1189         calculate D2E/DX2 analytically  !
 ! A3    A(2,1,5)              106.5662         calculate D2E/DX2 analytically  !
 ! A4    A(3,1,4)              108.7033         calculate D2E/DX2 analytically  !
 ! A5    A(3,1,5)              112.0523         calculate D2E/DX2 analytically  !
 ! A6    A(4,1,5)              112.6188         calculate D2E/DX2 analytically  !
 ! A7    A(1,2,6)              110.4325         calculate D2E/DX2 analytically  !
 ! A8    A(1,3,7)              109.4886         calculate D2E/DX2 analytically  !
 ! A9    A(1,4,9)              170.613          calculate D2E/DX2 analytically  !
 ! A10   A(9,8,10)             103.8141         calculate D2E/DX2 analytically  !
 ! A11   A(4,9,8)              102.1972         calculate D2E/DX2 analytically  !
 ! D1    D(3,1,2,6)             68.8553         calculate D2E/DX2 analytically  !
 ! D2    D(4,1,2,6)            -48.6914         calculate D2E/DX2 analytically  !
 ! D3    D(5,1,2,6)           -167.9384         calculate D2E/DX2 analytically  !
 ! D4    D(2,1,3,7)            -71.2852         calculate D2E/DX2 analytically  !
 ! D5    D(4,1,3,7)             43.5133         calculate D2E/DX2 analytically  !
 ! D6    D(5,1,3,7)            168.6291         calculate D2E/DX2 analytically  !
 ! D7    D(2,1,4,9)             77.5631         calculate D2E/DX2 analytically  !
 ! D8    D(3,1,4,9)            -42.6109         calculate D2E/DX2 analytically  !
 ! D9    D(5,1,4,9)           -167.3937         calculate D2E/DX2 analytically  !
 ! D10   D(1,4,9,8)              5.7202         calculate D2E/DX2 analytically  !
 ! D11   D(10,8,9,4)           -85.2721         calculate D2E/DX2 analytically  !
 --------------------------------------------------------------------------------
 Trust Radius=3.00D-01 FncErr=1.00D-07 GrdErr=1.00D-06
 Number of steps in this run=     41 maximum allowed number of steps=    100.
 Search for a saddle point of order  1.
 GradGradGradGradGradGradGradGradGradGradGradGradGradGradGradGradGradGrad

                          Input orientation:                          
 ---------------------------------------------------------------------
 Center     Atomic      Atomic             Coordinates (Angstroms)
 Number     Number       Type             X           Y           Z
 ---------------------------------------------------------------------
      1          6           0        0.822017   -0.637790    0.513512
      2          8           0        1.425350    0.667885    0.382158
      3          8           0        0.905229   -1.363066   -0.621879
      4          1           0       -0.432252   -0.385171    0.756723
      5          1           0        1.318881   -1.126084    1.346578
      6          8           0        0.725336    1.412353   -0.420121
      7          1           0        0.308549   -0.992240   -1.285904
      8          8           0       -1.950733    0.055194   -0.528644
      9          8           0       -1.656646   -0.103314    0.789785
     10          1           0       -1.715572    0.977817   -0.708867
 ---------------------------------------------------------------------
                    Distance matrix (angstroms):
                    1          2          3          4          5
     1  C    0.000000
     2  O    1.444317   0.000000
     3  O    1.349838   2.324517   0.000000
     4  H    1.302367   2.167928   2.155383   0.000000
     5  H    1.085958   2.039551   2.025362   1.990816   0.000000
     6  O    2.254796   1.299194   2.788551   2.440505   3.149156
     7  H    1.904516   2.604936   0.966679   2.256024   2.822879
     8  O    3.042114   3.550055   3.190090   2.037615   3.949968
     9  O    2.550639   3.203062   3.184804   1.256852   3.195284
    10  H    3.247115   3.339429   3.515096   2.377520   4.226010
                    6          7          8          9         10
     6  O    0.000000
     7  H    2.589471   0.000000
     8  O    3.002499   2.602867   0.000000
     9  O    3.071638   2.993437   1.360098   0.000000
    10  H    2.496042   2.882909   0.969027   1.848858   0.000000
 Stoichiometry    CH4O5(3)
 Framework group  C1[X(CH4O5)]
 Deg. of freedom    24
 Full point group                 C1      NOp   1
 Largest Abelian subgroup         C1      NOp   1
 Largest concise Abelian subgroup C1      NOp   1
                         Standard orientation:                         
 ---------------------------------------------------------------------
 Center     Atomic      Atomic             Coordinates (Angstroms)
 Number     Number       Type             X           Y           Z
 ---------------------------------------------------------------------
      1          6           0        0.822017   -0.637790    0.513512
      2          8           0        1.425350    0.667885    0.382158
      3          8           0        0.905229   -1.363066   -0.621879
      4          1           0       -0.432252   -0.385171    0.756723
      5          1           0        1.318881   -1.126084    1.346578
      6          8           0        0.725336    1.412353   -0.420121
      7          1           0        0.308549   -0.992240   -1.285904
      8          8           0       -1.950733    0.055194   -0.528644
      9          8           0       -1.656646   -0.103314    0.789785
     10          1           0       -1.715572    0.977817   -0.708867
 ---------------------------------------------------------------------
 Rotational constants (GHZ):      4.5692336      2.4592806      2.0281449
 Standard basis: 6-311+G(2df,2p) (5D, 7F)
 There are   240 symmetry adapted basis functions of A   symmetry.
 Integral buffers will be    131072 words long.
 Raffenetti 2 integral format.
 Two-electron integral symmetry is turned on.
   240 basis functions,   356 primitive gaussians,   270 cartesian basis functions
    26 alpha electrons       24 beta electrons
       nuclear repulsion energy       257.0665952330 Hartrees.
 NAtoms=   10 NActive=   10 NUniq=   10 SFac= 1.00D+00 NAtFMM=   50 NAOKFM=F Big=F
 One-electron integrals computed using PRISM.
 NBasis=   240 RedAO= T  NBF=   240
 NBsUse=   240 1.00D-06 NBFU=   240
 Harris functional with IExCor= 1009 diagonalized for initial guess.
 ExpMin= 4.38D-02 ExpMax= 8.59D+03 ExpMxC= 1.30D+03 IAcc=2 IRadAn=         0 AccDes= 0.00D+00
 HarFok:  IExCor= 1009 AccDes= 0.00D+00 IRadAn=         0 IDoV= 1
 ScaDFX=  1.000000  1.000000  1.000000  1.000000
 FoFCou: FMM=F IPFlag=           0 FMFlag=      100000 FMFlg1=           0
         NFxFlg=           0 DoJE=T BraDBF=F KetDBF=T FulRan=T
         Omega=  0.000000  0.000000  1.000000  0.000000  0.000000 ICntrl=     500 IOpCl=  0
         NMat0=    1 NMatS0=    1 NMatT0=    0 NMatD0=    1 NMtDS0=    0 NMtDT0=    0
         I1Cent=           4 NGrid=           0.
 Petite list used in FoFCou.
 Initial guess orbital symmetries:
 Alpha Orbitals:
       Occupied  (A) (A) (A) (A) (A) (A) (A) (A) (A) (A) (A) (A)
                 (A) (A) (A) (A) (A) (A) (A) (A) (A) (A) (A) (A)
                 (A) (A)
       Virtual   (A) (A) (A) (A) (A) (A) (A) (A) (A) (A) (A) (A)
                 (A) (A) (A) (A) (A) (A) (A) (A) (A) (A) (A) (A)
                 (A) (A) (A) (A) (A) (A) (A) (A) (A) (A) (A) (A)
                 (A) (A) (A) (A) (A) (A) (A) (A) (A) (A) (A) (A)
                 (A) (A) (A) (A) (A) (A) (A) (A) (A) (A) (A) (A)
                 (A) (A) (A) (A) (A) (A) (A) (A) (A) (A) (A) (A)
                 (A) (A) (A) (A) (A) (A) (A) (A) (A) (A) (A) (A)
                 (A) (A) (A) (A) (A) (A) (A) (A) (A) (A) (A) (A)
                 (A) (A) (A) (A) (A) (A) (A) (A) (A) (A) (A) (A)
                 (A) (A) (A) (A) (A) (A) (A) (A) (A) (A) (A) (A)
                 (A) (A) (A) (A) (A) (A) (A) (A) (A) (A) (A) (A)
                 (A) (A) (A) (A) (A) (A) (A) (A) (A) (A) (A) (A)
                 (A) (A) (A) (A) (A) (A) (A) (A) (A) (A) (A) (A)
                 (A) (A) (A) (A) (A) (A) (A) (A) (A) (A) (A) (A)
                 (A) (A) (A) (A) (A) (A) (A) (A) (A) (A) (A) (A)
                 (A) (A) (A) (A) (A) (A) (A) (A) (A) (A) (A) (A)
                 (A) (A) (A) (A) (A) (A) (A) (A) (A) (A) (A) (A)
                 (A) (A) (A) (A) (A) (A) (A) (A) (A) (A)
 Beta  Orbitals:
       Occupied  (A) (A) (A) (A) (A) (A) (A) (A) (A) (A) (A) (A)
                 (A) (A) (A) (A) (A) (A) (A) (A) (A) (A) (A) (A)
       Virtual   (A) (A) (A) (A) (A) (A) (A) (A) (A) (A) (A) (A)
                 (A) (A) (A) (A) (A) (A) (A) (A) (A) (A) (A) (A)
                 (A) (A) (A) (A) (A) (A) (A) (A) (A) (A) (A) (A)
                 (A) (A) (A) (A) (A) (A) (A) (A) (A) (A) (A) (A)
                 (A) (A) (A) (A) (A) (A) (A) (A) (A) (A) (A) (A)
                 (A) (A) (A) (A) (A) (A) (A) (A) (A) (A) (A) (A)
                 (A) (A) (A) (A) (A) (A) (A) (A) (A) (A) (A) (A)
                 (A) (A) (A) (A) (A) (A) (A) (A) (A) (A) (A) (A)
                 (A) (A) (A) (A) (A) (A) (A) (A) (A) (A) (A) (A)
                 (A) (A) (A) (A) (A) (A) (A) (A) (A) (A) (A) (A)
                 (A) (A) (A) (A) (A) (A) (A) (A) (A) (A) (A) (A)
                 (A) (A) (A) (A) (A) (A) (A) (A) (A) (A) (A) (A)
                 (A) (A) (A) (A) (A) (A) (A) (A) (A) (A) (A) (A)
                 (A) (A) (A) (A) (A) (A) (A) (A) (A) (A) (A) (A)
                 (A) (A) (A) (A) (A) (A) (A) (A) (A) (A) (A) (A)
                 (A) (A) (A) (A) (A) (A) (A) (A) (A) (A) (A) (A)
                 (A) (A) (A) (A) (A) (A) (A) (A) (A) (A) (A) (A)
                 (A) (A) (A) (A) (A) (A) (A) (A) (A) (A) (A) (A)
 The electronic state of the initial guess is 3-A.
 Initial guess <Sx>= 0.0000 <Sy>= 0.0000 <Sz>= 1.0000 <S**2>= 2.0000 S= 1.0000
 Requested convergence on RMS density matrix=1.00D-08 within 128 cycles.
 Requested convergence on MAX density matrix=1.00D-06.
 Requested convergence on             energy=1.00D-06.
 No special actions if energy rises.
 Restarting incremental Fock formation.
 SCF Done:  E(UM062X) =  -416.302292973     A.U. after   21 cycles
             Convg  =    0.7917D-08             -V/T =  2.0028
 <Sx>= 0.0000 <Sy>= 0.0000 <Sz>= 1.0000 <S**2>= 2.0147 S= 1.0049
 <L.S>= 0.000000000000E+00
 Annihilation of the first spin contaminant:
 S**2 before annihilation     2.0147,   after     2.0001
 Range of M.O.s used for correlation:     1   240
 NBasis=   240 NAE=    26 NBE=    24 NFC=     0 NFV=     0
 NROrb=    240 NOA=    26 NOB=    24 NVA=   214 NVB=   216

 **** Warning!!: The largest alpha MO coefficient is  0.20313163D+02


 **** Warning!!: The largest beta MO coefficient is  0.19916087D+02

 Symmetrizing basis deriv contribution to polar:
 IMax=3 JMax=2 DiffMx= 0.00D+00
 G2DrvN: will do    11 centers at a time, making    1 passes doing MaxLOS=3.
 Calling FoFCou, ICntrl=  3107 FMM=F I1Cent=   0 AccDes= 0.00D+00.
 FoFDir/FoFCou used for L=0 through L=3.
 End of G2Drv Frequency-dependent properties file   721 does not exist.
 End of G2Drv Frequency-dependent properties file   722 does not exist.
          IDoAtm=1111111111
          Differentiating once with respect to nuclear coordinates.
          There are    33 degrees of freedom in the 1st order CPHF.  IDoFFX=5.
     27 vectors produced by pass  0 Test12= 3.26D-10 3.03D-07 XBig12= 2.37D-01 2.25D-01.
 AX will form    27 AO Fock derivatives at one time.
     27 vectors produced by pass  1 Test12= 3.26D-10 3.03D-07 XBig12= 2.20D-02 3.47D-02.
     27 vectors produced by pass  2 Test12= 3.26D-10 3.03D-07 XBig12= 1.55D-03 7.81D-03.
     27 vectors produced by pass  3 Test12= 3.26D-10 3.03D-07 XBig12= 2.97D-05 1.03D-03.
     27 vectors produced by pass  4 Test12= 3.26D-10 3.03D-07 XBig12= 6.54D-07 9.42D-05.
     27 vectors produced by pass  5 Test12= 3.26D-10 3.03D-07 XBig12= 1.25D-08 1.13D-05.
     10 vectors produced by pass  6 Test12= 3.26D-10 3.03D-07 XBig12= 1.71D-10 1.35D-06.
 Inverted reduced A of dimension   172 with in-core refinement.
 End of Minotr Frequency-dependent properties file   721 does not exist.
 End of Minotr Frequency-dependent properties file   722 does not exist.

 **********************************************************************

            Population analysis using the SCF density.

 **********************************************************************

 Orbital symmetries:
 Alpha Orbitals:
       Occupied  (A) (A) (A) (A) (A) (A) (A) (A) (A) (A) (A) (A)
                 (A) (A) (A) (A) (A) (A) (A) (A) (A) (A) (A) (A)
                 (A) (A)
       Virtual   (A) (A) (A) (A) (A) (A) (A) (A) (A) (A) (A) (A)
                 (A) (A) (A) (A) (A) (A) (A) (A) (A) (A) (A) (A)
                 (A) (A) (A) (A) (A) (A) (A) (A) (A) (A) (A) (A)
                 (A) (A) (A) (A) (A) (A) (A) (A) (A) (A) (A) (A)
                 (A) (A) (A) (A) (A) (A) (A) (A) (A) (A) (A) (A)
                 (A) (A) (A) (A) (A) (A) (A) (A) (A) (A) (A) (A)
                 (A) (A) (A) (A) (A) (A) (A) (A) (A) (A) (A) (A)
                 (A) (A) (A) (A) (A) (A) (A) (A) (A) (A) (A) (A)
                 (A) (A) (A) (A) (A) (A) (A) (A) (A) (A) (A) (A)
                 (A) (A) (A) (A) (A) (A) (A) (A) (A) (A) (A) (A)
                 (A) (A) (A) (A) (A) (A) (A) (A) (A) (A) (A) (A)
                 (A) (A) (A) (A) (A) (A) (A) (A) (A) (A) (A) (A)
                 (A) (A) (A) (A) (A) (A) (A) (A) (A) (A) (A) (A)
                 (A) (A) (A) (A) (A) (A) (A) (A) (A) (A) (A) (A)
                 (A) (A) (A) (A) (A) (A) (A) (A) (A) (A) (A) (A)
                 (A) (A) (A) (A) (A) (A) (A) (A) (A) (A) (A) (A)
                 (A) (A) (A) (A) (A) (A) (A) (A) (A) (A) (A) (A)
                 (A) (A) (A) (A) (A) (A) (A) (A) (A) (A)
 Beta  Orbitals:
       Occupied  (A) (A) (A) (A) (A) (A) (A) (A) (A) (A) (A) (A)
                 (A) (A) (A) (A) (A) (A) (A) (A) (A) (A) (A) (A)
       Virtual   (A) (A) (A) (A) (A) (A) (A) (A) (A) (A) (A) (A)
                 (A) (A) (A) (A) (A) (A) (A) (A) (A) (A) (A) (A)
                 (A) (A) (A) (A) (A) (A) (A) (A) (A) (A) (A) (A)
                 (A) (A) (A) (A) (A) (A) (A) (A) (A) (A) (A) (A)
                 (A) (A) (A) (A) (A) (A) (A) (A) (A) (A) (A) (A)
                 (A) (A) (A) (A) (A) (A) (A) (A) (A) (A) (A) (A)
                 (A) (A) (A) (A) (A) (A) (A) (A) (A) (A) (A) (A)
                 (A) (A) (A) (A) (A) (A) (A) (A) (A) (A) (A) (A)
                 (A) (A) (A) (A) (A) (A) (A) (A) (A) (A) (A) (A)
                 (A) (A) (A) (A) (A) (A) (A) (A) (A) (A) (A) (A)
                 (A) (A) (A) (A) (A) (A) (A) (A) (A) (A) (A) (A)
                 (A) (A) (A) (A) (A) (A) (A) (A) (A) (A) (A) (A)
                 (A) (A) (A) (A) (A) (A) (A) (A) (A) (A) (A) (A)
                 (A) (A) (A) (A) (A) (A) (A) (A) (A) (A) (A) (A)
                 (A) (A) (A) (A) (A) (A) (A) (A) (A) (A) (A) (A)
                 (A) (A) (A) (A) (A) (A) (A) (A) (A) (A) (A) (A)
                 (A) (A) (A) (A) (A) (A) (A) (A) (A) (A) (A) (A)
                 (A) (A) (A) (A) (A) (A) (A) (A) (A) (A) (A) (A)
 The electronic state is 3-A.
 Alpha  occ. eigenvalues --  -19.77128 -19.73060 -19.72683 -19.72314 -19.68336
 Alpha  occ. eigenvalues --  -10.67996  -1.37294  -1.31974  -1.22091  -1.02239
 Alpha  occ. eigenvalues --   -1.01103  -0.79642  -0.69518  -0.66064  -0.64262
 Alpha  occ. eigenvalues --   -0.63801  -0.60791  -0.56783  -0.55552  -0.54249
 Alpha  occ. eigenvalues --   -0.47211  -0.44476  -0.40708  -0.40301  -0.39418
 Alpha  occ. eigenvalues --   -0.33412
 Alpha virt. eigenvalues --    0.01354   0.02035   0.04287   0.04728   0.06922
 Alpha virt. eigenvalues --    0.10184   0.11829   0.14020   0.15724   0.16504
 Alpha virt. eigenvalues --    0.18032   0.18531   0.18757   0.20031   0.20409
 Alpha virt. eigenvalues --    0.20874   0.22762   0.23039   0.24149   0.24596
 Alpha virt. eigenvalues --    0.25647   0.27546   0.28216   0.29204   0.30547
 Alpha virt. eigenvalues --    0.31778   0.32747   0.32990   0.33905   0.35348
 Alpha virt. eigenvalues --    0.38503   0.41339   0.47549   0.51208   0.53901
 Alpha virt. eigenvalues --    0.55987   0.60403   0.61809   0.64305   0.65952
 Alpha virt. eigenvalues --    0.71377   0.75484   0.76253   0.78658   0.81876
 Alpha virt. eigenvalues --    0.88358   0.90269   0.95766   0.97008   0.97378
 Alpha virt. eigenvalues --    0.98998   1.01057   1.02884   1.04275   1.06851
 Alpha virt. eigenvalues --    1.08561   1.09490   1.10997   1.12626   1.14011
 Alpha virt. eigenvalues --    1.15112   1.16919   1.17225   1.18449   1.24719
 Alpha virt. eigenvalues --    1.25845   1.30267   1.32067   1.36737   1.39559
 Alpha virt. eigenvalues --    1.42861   1.46906   1.48800   1.50962   1.54396
 Alpha virt. eigenvalues --    1.54996   1.56380   1.59382   1.61313   1.63243
 Alpha virt. eigenvalues --    1.66337   1.72725   1.76007   1.81981   1.84700
 Alpha virt. eigenvalues --    1.94367   1.97781   1.99525   2.00994   2.05351
 Alpha virt. eigenvalues --    2.12437   2.18855   2.20347   2.24995   2.26594
 Alpha virt. eigenvalues --    2.30487   2.30675   2.34633   2.37599   2.44878
 Alpha virt. eigenvalues --    2.56157   2.59489   2.61969   2.69632   2.73239
 Alpha virt. eigenvalues --    2.84515   3.09673   3.11446   3.15126   3.24758
 Alpha virt. eigenvalues --    3.26756   3.31979   3.38086   3.42080   3.45645
 Alpha virt. eigenvalues --    3.53739   3.58078   3.64470   3.65422   3.68183
 Alpha virt. eigenvalues --    3.72163   3.75213   3.79242   3.88899   3.94859
 Alpha virt. eigenvalues --    4.04661   4.05679   4.11361   4.19114   4.21644
 Alpha virt. eigenvalues --    4.30122   4.42451   4.47942   4.57476   4.59939
 Alpha virt. eigenvalues --    4.62629   4.64593   4.68758   4.72765   4.78534
 Alpha virt. eigenvalues --    4.85736   4.87958   4.99147   4.99691   4.99791
 Alpha virt. eigenvalues --    5.04743   5.06380   5.07527   5.10009   5.10809
 Alpha virt. eigenvalues --    5.12293   5.13211   5.13869   5.15884   5.18132
 Alpha virt. eigenvalues --    5.19220   5.20675   5.25443   5.27647   5.29423
 Alpha virt. eigenvalues --    5.32373   5.34365   5.39342   5.42572   5.50570
 Alpha virt. eigenvalues --    5.51502   5.53561   5.61020   5.65364   5.66693
 Alpha virt. eigenvalues --    5.92373   5.99622   6.03737   6.15872   6.23999
 Alpha virt. eigenvalues --    6.26315   6.37140   6.47923   6.58904   6.69883
 Alpha virt. eigenvalues --    6.75460   6.80331   6.82320   6.84281   6.88284
 Alpha virt. eigenvalues --    6.88902   6.91488   6.92522   6.95979   7.03092
 Alpha virt. eigenvalues --    7.05591   7.08533   7.10893   7.12640   7.21242
 Alpha virt. eigenvalues --    7.24022   7.24265   7.28662   7.31590   7.41038
 Alpha virt. eigenvalues --    7.46049   7.49661   7.58729   7.65540   7.80648
 Alpha virt. eigenvalues --    7.86460   7.87766   7.92470  24.40261  49.94552
 Alpha virt. eigenvalues --   49.95539  50.01127  50.02294  50.12543
  Beta  occ. eigenvalues --  -19.76252 -19.72705 -19.71270 -19.71166 -19.68146
  Beta  occ. eigenvalues --  -10.67590  -1.33938  -1.29704  -1.21182  -0.98461
  Beta  occ. eigenvalues --   -0.97153  -0.77360  -0.67225  -0.63992  -0.61257
  Beta  occ. eigenvalues --   -0.60972  -0.55371  -0.53823  -0.51128  -0.50598
  Beta  occ. eigenvalues --   -0.45115  -0.39554  -0.38539  -0.36037
  Beta virt. eigenvalues --   -0.12277  -0.07783   0.01593   0.02154   0.04480
  Beta virt. eigenvalues --    0.04957   0.07348   0.10677   0.12354   0.14422
  Beta virt. eigenvalues --    0.16126   0.16806   0.18582   0.19041   0.19535
  Beta virt. eigenvalues --    0.20406   0.20718   0.21370   0.23246   0.23546
  Beta virt. eigenvalues --    0.24474   0.24779   0.26017   0.28114   0.28873
  Beta virt. eigenvalues --    0.29496   0.30791   0.31985   0.33116   0.33680
  Beta virt. eigenvalues --    0.34715   0.35667   0.38953   0.41419   0.48282
  Beta virt. eigenvalues --    0.51539   0.54323   0.56276   0.60841   0.62242
  Beta virt. eigenvalues --    0.64886   0.66455   0.71795   0.75607   0.76433
  Beta virt. eigenvalues --    0.79116   0.82162   0.88551   0.90523   0.96002
  Beta virt. eigenvalues --    0.97683   0.98287   0.99561   1.01306   1.04143
  Beta virt. eigenvalues --    1.06027   1.07701   1.09351   1.11211   1.12527
  Beta virt. eigenvalues --    1.13561   1.14633   1.15793   1.17548   1.18070
  Beta virt. eigenvalues --    1.19307   1.25233   1.26516   1.30794   1.32427
  Beta virt. eigenvalues --    1.37179   1.40814   1.43820   1.47656   1.50167
  Beta virt. eigenvalues --    1.51597   1.55493   1.55745   1.57289   1.60297
  Beta virt. eigenvalues --    1.62120   1.64845   1.67703   1.73757   1.77262
  Beta virt. eigenvalues --    1.83010   1.85492   1.95067   1.98564   2.00263
  Beta virt. eigenvalues --    2.01686   2.06180   2.13253   2.19654   2.20628
  Beta virt. eigenvalues --    2.26182   2.27328   2.30305   2.31213   2.35124
  Beta virt. eigenvalues --    2.38152   2.45807   2.56638   2.59904   2.62749
  Beta virt. eigenvalues --    2.68579   2.73732   2.83416   3.10804   3.12222
  Beta virt. eigenvalues --    3.14609   3.25857   3.27257   3.32831   3.40190
  Beta virt. eigenvalues --    3.43282   3.47941   3.55275   3.59427   3.65046
  Beta virt. eigenvalues --    3.66154   3.69031   3.72691   3.75571   3.80123
  Beta virt. eigenvalues --    3.90263   3.94429   4.04560   4.05553   4.11120
  Beta virt. eigenvalues --    4.19440   4.22059   4.30754   4.41760   4.50869
  Beta virt. eigenvalues --    4.57758   4.60855   4.63263   4.64695   4.69523
  Beta virt. eigenvalues --    4.74132   4.78585   4.86196   4.88947   5.02014
  Beta virt. eigenvalues --    5.02310   5.05018   5.06007   5.07651   5.08958
  Beta virt. eigenvalues --    5.10926   5.12882   5.13828   5.14837   5.15403
  Beta virt. eigenvalues --    5.16850   5.18954   5.20184   5.21517   5.26676
  Beta virt. eigenvalues --    5.29365   5.29962   5.32875   5.35181   5.40439
  Beta virt. eigenvalues --    5.43414   5.51333   5.52248   5.54039   5.61444
  Beta virt. eigenvalues --    5.65974   5.67509   5.92408   5.99406   6.04338
  Beta virt. eigenvalues --    6.16291   6.25105   6.27262   6.40278   6.48601
  Beta virt. eigenvalues --    6.59750   6.79141   6.81626   6.84178   6.87046
  Beta virt. eigenvalues --    6.87996   6.89510   6.91241   6.92418   6.96766
  Beta virt. eigenvalues --    6.99437   7.04885   7.06532   7.10959   7.11721
  Beta virt. eigenvalues --    7.13290   7.24030   7.24563   7.28655   7.30078
  Beta virt. eigenvalues --    7.34684   7.43555   7.46258   7.50551   7.58983
  Beta virt. eigenvalues --    7.65734   7.83999   7.86528   7.87915   7.94080
  Beta virt. eigenvalues --   24.40653  49.94114  49.95117  50.00620  50.01797
  Beta virt. eigenvalues --   50.12306
          Condensed to atoms (all electrons):
              1          2          3          4          5          6
     1  C    5.111494   0.147127   0.184959   0.363483   0.442280  -0.054695
     2  O    0.147127   7.684103   0.010552  -0.007318  -0.040603   0.187517
     3  O    0.184959   0.010552   7.919653  -0.018052  -0.043349   0.000431
     4  H    0.363483  -0.007318  -0.018052   0.444530  -0.030220  -0.012611
     5  H    0.442280  -0.040603  -0.043349  -0.030220   0.469592   0.006983
     6  O   -0.054695   0.187517   0.000431  -0.012611   0.006983   8.058301
     7  H   -0.018658  -0.013912   0.262120  -0.013270   0.006302   0.015395
     8  O    0.024827  -0.007107  -0.008056  -0.037658   0.001405   0.000506
     9  O   -0.056007   0.016907   0.010529  -0.014185   0.006570   0.002532
    10  H   -0.001359  -0.001918   0.001471   0.005493  -0.000222   0.006158
              7          8          9         10
     1  C   -0.018658   0.024827  -0.056007  -0.001359
     2  O   -0.013912  -0.007107   0.016907  -0.001918
     3  O    0.262120  -0.008056   0.010529   0.001471
     4  H   -0.013270  -0.037658  -0.014185   0.005493
     5  H    0.006302   0.001405   0.006570  -0.000222
     6  O    0.015395   0.000506   0.002532   0.006158
     7  H    0.452461   0.018899   0.002388  -0.003167
     8  O    0.018899   7.781564   0.147037   0.238501
     9  O    0.002388   0.147037   8.184934  -0.047994
    10  H   -0.003167   0.238501  -0.047994   0.533343
 Mulliken atomic charges:
              1
     1  C   -0.143450
     2  O    0.024652
     3  O   -0.320258
     4  H    0.319807
     5  H    0.181261
     6  O   -0.210518
     7  H    0.291443
     8  O   -0.159919
     9  O   -0.252711
    10  H    0.269693
 Sum of Mulliken atomic charges =   0.00000
 Mulliken charges with hydrogens summed into heavy atoms:
              1
     1  C    0.037812
     2  O    0.024652
     3  O   -0.028815
     6  O   -0.210518
     8  O    0.109774
     9  O    0.067095
 Sum of Mulliken charges with hydrogens summed into heavy atoms =   0.00000
          Atomic-Atomic Spin Densities.
              1          2          3          4          5          6
     1  C    0.475090  -0.028886  -0.073184   0.081056  -0.012571  -0.003017
     2  O   -0.028886   0.484186   0.000647  -0.016094   0.003764  -0.158696
     3  O   -0.073184   0.000647   0.118202  -0.013307   0.002719   0.000770
     4  H    0.081056  -0.016094  -0.013307  -0.063322  -0.000796   0.002155
     5  H   -0.012571   0.003764   0.002719  -0.000796   0.001734   0.000625
     6  O   -0.003017  -0.158696   0.000770   0.002155   0.000625   0.866078
     7  H   -0.011413   0.000683   0.006665  -0.000356   0.000339   0.000581
     8  O    0.050407  -0.004626  -0.016936   0.035769  -0.001486  -0.003381
     9  O   -0.120714   0.015839   0.025390  -0.047850   0.003961   0.001711
    10  H   -0.002084  -0.000139   0.000396  -0.001111   0.000051   0.001554
              7          8          9         10
     1  C   -0.011413   0.050407  -0.120714  -0.002084
     2  O    0.000683  -0.004626   0.015839  -0.000139
     3  O    0.006665  -0.016936   0.025390   0.000396
     4  H   -0.000356   0.035769  -0.047850  -0.001111
     5  H    0.000339  -0.001486   0.003961   0.000051
     6  O    0.000581  -0.003381   0.001711   0.001554
     7  H    0.002842  -0.007001   0.005387   0.000336
     8  O   -0.007001   0.197730  -0.113859  -0.003170
     9  O    0.005387  -0.113859   0.711452   0.005933
    10  H    0.000336  -0.003170   0.005933  -0.006114
 Mulliken atomic spin densities:
              1
     1  C    0.354683
     2  O    0.296679
     3  O    0.051362
     4  H   -0.023857
     5  H   -0.001660
     6  O    0.708380
     7  H   -0.001936
     8  O    0.133448
     9  O    0.487250
    10  H   -0.004350
 Sum of Mulliken atomic spin densities =   2.00000
 APT atomic charges:
              1
     1  C   -0.389511
     2  O   -0.036004
     3  O   -0.509521
     4  H    0.255031
     5  H    0.530335
     6  O   -0.195707
     7  H    0.429726
     8  O   -0.297743
     9  O   -0.185259
    10  H    0.398653
 Sum of APT charges=   0.00000
 APT Atomic charges with hydrogens summed into heavy atoms:
              1
     1  C    0.140824
     2  O   -0.036004
     3  O   -0.079795
     4  H    0.000000
     5  H    0.000000
     6  O   -0.195707
     7  H    0.000000
     8  O    0.100910
     9  O    0.069772
    10  H    0.000000
 Sum of APT charges=   0.00000
 Electronic spatial extent (au):  <R**2>=            607.3242
 Charge=              0.0000 electrons
 Dipole moment (field-independent basis, Debye):
    X=              0.1228    Y=              0.0229    Z=             -0.2848  Tot=              0.3110
 Quadrupole moment (field-independent basis, Debye-Ang):
   XX=            -38.7722   YY=            -36.8025   ZZ=            -31.5912
   XY=             -4.0524   XZ=              3.6435   YZ=             -2.0258
 Traceless Quadrupole moment (field-independent basis, Debye-Ang):
   XX=             -3.0502   YY=             -1.0805   ZZ=              4.1307
   XY=             -4.0524   XZ=              3.6435   YZ=             -2.0258
 Octapole moment (field-independent basis, Debye-Ang**2):
  XXX=              1.9793  YYY=              5.4454  ZZZ=             -5.4055  XYY=             -7.9195
  XXY=              5.0613  XXZ=             -0.3888  XZZ=              1.3936  YZZ=             -1.7139
  YYZ=              0.6387  XYZ=             -0.7066
 Hexadecapole moment (field-independent basis, Debye-Ang**3):
 XXXX=           -408.3997 YYYY=           -206.9752 ZZZZ=            -94.9793 XXXY=            -10.7807
 XXXZ=              4.6665 YYYX=             -3.0447 YYYZ=             -2.7177 ZZZX=              3.6741
 ZZZY=              1.1234 XXYY=            -95.9656 XXZZ=            -83.4172 YYZZ=            -46.1501
 XXYZ=             -8.5344 YYXZ=              8.2124 ZZXY=             -3.8996
 N-N= 2.570665952330D+02 E-N=-2.225348940406D+03  KE= 6.194555986406D+02
  Exact polarizability:   0.000   0.000   0.000   0.000   0.000   0.000
 Approx polarizability:  66.007  -9.124  46.657   5.501  -5.337  50.191
                          Isotropic Fermi Contact Couplings
        Atom                 a.u.       MegaHertz       Gauss      10(-4) cm-1
     1  C(13)              0.16984      95.46713      34.06504      31.84441
     2  O(17)              0.06861     -20.79520      -7.42025      -6.93653
     3  O(17)              0.01134      -3.43716      -1.22646      -1.14651
     4  H(1)              -0.03088     -69.00847     -24.62394     -23.01875
     5  H(1)               0.00269       6.01538       2.14644       2.00651
     6  O(17)              0.11738     -35.57741     -12.69491     -11.86735
     7  H(1)               0.00283       6.33462       2.26035       2.11300
     8  O(17)              0.02375      -7.19748      -2.56824      -2.40082
     9  O(17)              0.09112     -27.61866      -9.85502      -9.21259
    10  H(1)              -0.00284      -6.35256      -2.26675      -2.11899
 --------------------------------------------------------
       Center         ----  Spin Dipole Couplings  ----
                      3XX-RR        3YY-RR        3ZZ-RR
 --------------------------------------------------------
     1   Atom        0.410533     -0.187168     -0.223365
     2   Atom       -0.042194     -0.581602      0.623796
     3   Atom        0.293437     -0.178717     -0.114720
     4   Atom        0.206945     -0.096079     -0.110866
     5   Atom       -0.006186     -0.003072      0.009259
     6   Atom       -0.262273     -1.001038      1.263312
     7   Atom       -0.013532     -0.001932      0.015464
     8   Atom        0.659576     -0.253930     -0.405646
     9   Atom        2.104028     -1.046726     -1.057302
    10   Atom        0.001939      0.015876     -0.017815
 --------------------------------------------------------
                        XY            XZ            YZ
 --------------------------------------------------------
     1   Atom       -0.143410     -0.110063      0.014103
     2   Atom       -0.309137     -1.129423      0.601387
     3   Atom       -0.070394     -0.167056      0.056447
     4   Atom       -0.056321     -0.028578     -0.004078
     5   Atom       -0.013957      0.013835     -0.030190
     6   Atom       -0.800095     -1.874958      1.219203
     7   Atom       -0.003148      0.011464      0.000415
     8   Atom       -0.279184     -0.155016      0.029321
     9   Atom       -0.768073     -0.771943      0.186727
    10   Atom        0.008047      0.001734     -0.020330
 --------------------------------------------------------


 ---------------------------------------------------------------------------------
              Anisotropic Spin Dipole Couplings in Principal Axis System
 ---------------------------------------------------------------------------------

       Atom             a.u.   MegaHertz   Gauss  10(-4) cm-1        Axes

              Baa    -0.2455   -32.944   -11.755   -10.989  0.2270  0.3371  0.9137
     1 C(13)  Bbb    -0.2155   -28.916   -10.318    -9.645  0.1442  0.9162 -0.3739
              Bcc     0.4610    61.861    22.073    20.634  0.9632 -0.2166 -0.1594
 
              Baa    -0.9538    69.018    24.627    23.022  0.5974 -0.5073  0.6211
     2 O(17)  Bbb    -0.7127    51.567    18.400    17.201  0.5702  0.8133  0.1158
              Bcc     1.6665  -120.585   -43.028   -40.223 -0.5639  0.2849  0.7751
 
              Baa    -0.2137    15.461     5.517     5.157 -0.0879  0.7941 -0.6013
     3 O(17)  Bbb    -0.1528    11.056     3.945     3.688  0.3633  0.5876  0.7229
              Bcc     0.3665   -26.518    -9.462    -8.845  0.9275 -0.1550 -0.3402
 
              Baa    -0.1194   -63.683   -22.724   -21.242  0.1661  0.5458  0.8213
     4 H(1)   Bbb    -0.1000   -53.352   -19.037   -17.796  0.0978  0.8196 -0.5645
              Bcc     0.2194   117.035    41.761    39.039  0.9812 -0.1741 -0.0828
 
              Baa    -0.0280   -14.935    -5.329    -4.982  0.1306  0.7934  0.5945
     5 H(1)   Bbb    -0.0139    -7.402    -2.641    -2.469  0.9169  0.1314 -0.3769
              Bcc     0.0419    22.337     7.970     7.451  0.3771 -0.5943  0.7103
 
              Baa    -1.5406   111.475    39.777    37.184 -0.4269  0.6894 -0.5852
     6 O(17)  Bbb    -1.5091   109.195    38.963    36.423  0.7369  0.6403  0.2168
              Bcc     3.0496  -220.670   -78.741   -73.608 -0.5242  0.3387  0.7814
 
              Baa    -0.0181    -9.665    -3.449    -3.224  0.9286  0.1888 -0.3194
     7 H(1)   Bbb    -0.0014    -0.722    -0.258    -0.241 -0.1684  0.9815  0.0906
              Bcc     0.0195    10.387     3.706     3.465  0.3306 -0.0303  0.9433
 
              Baa    -0.4288    31.026    11.071    10.349  0.1652  0.0993  0.9812
     8 O(17)  Bbb    -0.3306    23.920     8.535     7.979  0.2486  0.9586 -0.1388
              Bcc     0.7593   -54.946   -19.606   -18.328  0.9544 -0.2668 -0.1337
 
              Baa    -1.2406    89.768    32.031    29.943  0.0933 -0.4738  0.8757
     9 O(17)  Bbb    -1.2200    88.278    31.500    29.446  0.2968  0.8528  0.4298
              Bcc     2.4606  -178.045   -63.531   -59.390  0.9504 -0.2198 -0.2202
 
              Baa    -0.0282   -15.057    -5.373    -5.023 -0.1676  0.4378  0.8833
    10 H(1)   Bbb     0.0011     0.565     0.201     0.188  0.9522 -0.1603  0.2601
              Bcc     0.0272    14.493     5.171     4.834  0.2554  0.8847 -0.3900
 

 ---------------------------------------------------------------------------------

 Calling FoFJK, ICntrl=    100147 FMM=F ISym2X=0 I1Cent= 0 IOpClX= 1 NMat=1 NMatS=1 NMatT=0.
 ***** Axes restored to original set *****
 -------------------------------------------------------------------
 Center     Atomic                   Forces (Hartrees/Bohr)
 Number     Number              X              Y              Z
 -------------------------------------------------------------------
      1        6          -0.021431352    0.004730115   -0.000023269
      2        8          -0.000659488    0.000217996    0.000194123
      3        8          -0.000124003   -0.000188311   -0.000114690
      4        1           0.030130744   -0.007786932    0.004467931
      5        1          -0.000331562    0.000236049   -0.000343994
      6        8           0.000751287    0.000115642   -0.000033769
      7        1           0.000008617    0.000157070    0.000069306
      8        8          -0.000119858   -0.000529851    0.000669242
      9        8          -0.008068091    0.002952677   -0.004758850
     10        1          -0.000156295    0.000095544   -0.000126031
 -------------------------------------------------------------------
 Cartesian Forces:  Max     0.030130744 RMS     0.007231565

 GradGradGradGradGradGradGradGradGradGradGradGradGradGradGradGradGradGrad
 Berny optimization.
 Internal  Forces:  Max     0.021959891 RMS     0.004610186
 Search for a saddle point.
 Step number   1 out of a maximum of   41
 All quantities printed in internal units (Hartrees-Bohrs-Radians)
 Swaping is turned off.
 Second derivative matrix not updated -- analytic derivatives used.
 ITU=  0
     Eigenvalues ---   -0.09985   0.00033   0.00274   0.00532   0.01842
     Eigenvalues ---    0.02065   0.04941   0.05835   0.07170   0.09242
     Eigenvalues ---    0.12491   0.16105   0.16875   0.18180   0.19690
     Eigenvalues ---    0.22128   0.25316   0.35835   0.37571   0.42471
     Eigenvalues ---    0.47570   0.50888   0.52811   0.55193
 Eigenvectors required to have negative eigenvalues:
                          R7        R3        R8        A4        D1
   1                    0.76325  -0.58139  -0.17192   0.10192   0.07516
                          R2        D4        A5        A1        D11
   1                    0.07164  -0.06050  -0.05744  -0.05092   0.04909
 RFO step:  Lambda0=3.484937752D-03 Lambda=-7.02420538D-03.
 Linear search not attempted -- option 19 set.
 Maximum step size (   0.300) exceeded in Quadratic search.
    -- Step size scaled by   0.561
 Iteration  1 RMS(Cart)=  0.18997211 RMS(Int)=  0.01808429
 Iteration  2 RMS(Cart)=  0.06225576 RMS(Int)=  0.00125518
 Iteration  3 RMS(Cart)=  0.00120985 RMS(Int)=  0.00012032
 Iteration  4 RMS(Cart)=  0.00000126 RMS(Int)=  0.00012031
 Iteration  5 RMS(Cart)=  0.00000000 RMS(Int)=  0.00012031
 Variable       Old X    -DE/DX   Delta X   Delta X   Delta X     New X
                                 (Linear)    (Quad)   (Total)
    R1        2.72936   0.00033   0.00000  -0.00155  -0.00155   2.72781
    R2        2.55082   0.00005   0.00000  -0.01574  -0.01574   2.53508
    R3        2.46112  -0.02196   0.00000   0.01393   0.01393   2.47505
    R4        2.05216  -0.00052   0.00000  -0.00127  -0.00127   2.05089
    R5        2.45512  -0.00032   0.00000  -0.00083  -0.00083   2.45429
    R6        1.82676   0.00001   0.00000   0.00828   0.00828   1.83503
    R7        2.37511   0.00858   0.00000  -0.07694  -0.07694   2.29816
    R8        2.57021  -0.00051   0.00000   0.02703   0.02703   2.59725
    R9        1.83120   0.00008   0.00000   0.00042   0.00042   1.83162
    A1        1.96436   0.00015   0.00000   0.01455   0.01462   1.97897
    A2        1.81722   0.00056   0.00000   0.02430   0.02440   1.84162
    A3        1.85993  -0.00038   0.00000  -0.00274  -0.00304   1.85689
    A4        1.89723  -0.00012   0.00000  -0.06225  -0.06221   1.83502
    A5        1.95568   0.00020   0.00000   0.02306   0.02277   1.97845
    A6        1.96557  -0.00039   0.00000   0.00514   0.00507   1.97064
    A7        1.92741   0.00141   0.00000   0.01448   0.01448   1.94189
    A8        1.91094  -0.00028   0.00000  -0.00734  -0.00734   1.90359
    A9        2.97776  -0.00977   0.00000  -0.27655  -0.27655   2.70120
   A10        1.81190   0.00028   0.00000  -0.01411  -0.01411   1.79779
   A11        1.78368   0.00085   0.00000  -0.01462  -0.01462   1.76906
    D1        1.20175  -0.00023   0.00000  -0.07657  -0.07656   1.12519
    D2       -0.84983  -0.00050   0.00000  -0.02417  -0.02414  -0.87396
    D3       -2.93108  -0.00014   0.00000  -0.04047  -0.04050  -2.97158
    D4       -1.24416  -0.00026   0.00000  -0.06164  -0.06141  -1.30557
    D5        0.75945   0.00044   0.00000  -0.06195  -0.06193   0.69752
    D6        2.94313  -0.00002   0.00000  -0.08488  -0.08513   2.85800
    D7        1.35373   0.00074   0.00000   0.06201   0.06182   1.41556
    D8       -0.74370   0.00032   0.00000   0.06238   0.06269  -0.68101
    D9       -2.92157   0.00043   0.00000   0.07523   0.07511  -2.84646
   D10        0.09984   0.00135   0.00000   0.07258   0.07258   0.17241
   D11       -1.48828  -0.00025   0.00000  -0.04065  -0.04065  -1.52893
         Item               Value     Threshold  Converged?
 Maximum Force            0.021960     0.000450     NO 
 RMS     Force            0.004610     0.000300     NO 
 Maximum Displacement     0.674042     0.001800     NO 
 RMS     Displacement     0.244586     0.001200     NO 
 Predicted change in Energy=-1.839103D-03
 GradGradGradGradGradGradGradGradGradGradGradGradGradGradGradGradGradGrad

                          Input orientation:                          
 ---------------------------------------------------------------------
 Center     Atomic      Atomic             Coordinates (Angstroms)
 Number     Number       Type             X           Y           Z
 ---------------------------------------------------------------------
      1          6           0        0.800743   -0.612812    0.518129
      2          8           0        1.416273    0.686404    0.388359
      3          8           0        0.676729   -1.262276   -0.649114
      4          1           0       -0.426465   -0.381270    0.912806
      5          1           0        1.385396   -1.156679    1.253132
      6          8           0        0.677116    1.489573   -0.315438
      7          1           0       -0.048139   -0.864272   -1.158147
      8          8           0       -1.697130   -0.104288   -0.615300
      9          8           0       -1.595241   -0.084452    0.755177
     10          1           0       -1.439121    0.795655   -0.866262
 ---------------------------------------------------------------------
                    Distance matrix (angstroms):
                    1          2          3          4          5
     1  C    0.000000
     2  O    1.443496   0.000000
     3  O    1.341507   2.328225   0.000000
     4  H    1.309740   2.193321   2.105422   0.000000
     5  H    1.085283   2.036110   2.032707   1.999980   0.000000
     6  O    2.264981   1.298755   2.772005   2.495301   3.156695
     7  H    1.895715   2.634536   0.971058   2.159923   2.820423
     8  O    2.789736   3.365383   2.641455   2.006593   3.755067
     9  O    2.464974   3.130175   2.919101   1.216136   3.206529
    10  H    2.986187   3.120783   2.959570   2.361294   4.035014
                    6          7          8          9         10
     6  O    0.000000
     7  H    2.603217   0.000000
     8  O    2.875300   1.895107   0.000000
     9  O    2.964351   2.581173   1.374403   0.000000
    10  H    2.294207   2.185266   0.969251   1.851494   0.000000
 Stoichiometry    CH4O5(3)
 Framework group  C1[X(CH4O5)]
 Deg. of freedom    24
 Full point group                 C1      NOp   1
 Largest Abelian subgroup         C1      NOp   1
 Largest concise Abelian subgroup C1      NOp   1
                         Standard orientation:                         
 ---------------------------------------------------------------------
 Center     Atomic      Atomic             Coordinates (Angstroms)
 Number     Number       Type             X           Y           Z
 ---------------------------------------------------------------------
      1          6           0       -0.713543    0.720460    0.521157
      2          8           0       -1.526502   -0.448501    0.283861
      3          8           0       -0.417861    1.399447   -0.597409
      4          1           0        0.434186    0.266069    0.958955
      5          1           0       -1.241389    1.315957    1.259128
      6          8           0       -0.891059   -1.326818   -0.431356
      7          1           0        0.259237    0.912307   -1.094587
      8          8           0        1.726696   -0.140787   -0.521012
      9          8           0        1.545063   -0.214175    0.839358
     10          1           0        1.338522   -0.970426   -0.837977
 ---------------------------------------------------------------------
 Rotational constants (GHZ):      4.7362570      2.7822456      2.2759687
 Standard basis: 6-311+G(2df,2p) (5D, 7F)
 There are   240 symmetry adapted basis functions of A   symmetry.
 Integral buffers will be    131072 words long.
 Raffenetti 2 integral format.
 Two-electron integral symmetry is turned on.
   240 basis functions,   356 primitive gaussians,   270 cartesian basis functions
    26 alpha electrons       24 beta electrons
       nuclear repulsion energy       264.4616289444 Hartrees.
 NAtoms=   10 NActive=   10 NUniq=   10 SFac= 1.00D+00 NAtFMM=   50 NAOKFM=F Big=F
 One-electron integrals computed using PRISM.
 NBasis=   240 RedAO= T  NBF=   240
 NBsUse=   240 1.00D-06 NBFU=   240
 Initial guess read from the read-write file.
 B after Tr=     0.000000    0.000000    0.000000
         Rot=    1.000000    0.000000    0.000000    0.000000 Ang=   0.00 deg.
 Initial guess orbital symmetries:
 Alpha Orbitals:
       Occupied  (A) (A) (A) (A) (A) (A) (A) (A) (A) (A) (A) (A)
                 (A) (A) (A) (A) (A) (A) (A) (A) (A) (A) (A) (A)
                 (A) (A)
       Virtual   (A) (A) (A) (A) (A) (A) (A) (A) (A) (A) (A) (A)
                 (A) (A) (A) (A) (A) (A) (A) (A) (A) (A) (A) (A)
                 (A) (A) (A) (A) (A) (A) (A) (A) (A) (A) (A) (A)
                 (A) (A) (A) (A) (A) (A) (A) (A) (A) (A) (A) (A)
                 (A) (A) (A) (A) (A) (A) (A) (A) (A) (A) (A) (A)
                 (A) (A) (A) (A) (A) (A) (A) (A) (A) (A) (A) (A)
                 (A) (A) (A) (A) (A) (A) (A) (A) (A) (A) (A) (A)
                 (A) (A) (A) (A) (A) (A) (A) (A) (A) (A) (A) (A)
                 (A) (A) (A) (A) (A) (A) (A) (A) (A) (A) (A) (A)
                 (A) (A) (A) (A) (A) (A) (A) (A) (A) (A) (A) (A)
                 (A) (A) (A) (A) (A) (A) (A) (A) (A) (A) (A) (A)
                 (A) (A) (A) (A) (A) (A) (A) (A) (A) (A) (A) (A)
                 (A) (A) (A) (A) (A) (A) (A) (A) (A) (A) (A) (A)
                 (A) (A) (A) (A) (A) (A) (A) (A) (A) (A) (A) (A)
                 (A) (A) (A) (A) (A) (A) (A) (A) (A) (A) (A) (A)
                 (A) (A) (A) (A) (A) (A) (A) (A) (A) (A) (A) (A)
                 (A) (A) (A) (A) (A) (A) (A) (A) (A) (A) (A) (A)
                 (A) (A) (A) (A) (A) (A) (A) (A) (A) (A)
 Beta  Orbitals:
       Occupied  (A) (A) (A) (A) (A) (A) (A) (A) (A) (A) (A) (A)
                 (A) (A) (A) (A) (A) (A) (A) (A) (A) (A) (A) (A)
       Virtual   (A) (A) (A) (A) (A) (A) (A) (A) (A) (A) (A) (A)
                 (A) (A) (A) (A) (A) (A) (A) (A) (A) (A) (A) (A)
                 (A) (A) (A) (A) (A) (A) (A) (A) (A) (A) (A) (A)
                 (A) (A) (A) (A) (A) (A) (A) (A) (A) (A) (A) (A)
                 (A) (A) (A) (A) (A) (A) (A) (A) (A) (A) (A) (A)
                 (A) (A) (A) (A) (A) (A) (A) (A) (A) (A) (A) (A)
                 (A) (A) (A) (A) (A) (A) (A) (A) (A) (A) (A) (A)
                 (A) (A) (A) (A) (A) (A) (A) (A) (A) (A) (A) (A)
                 (A) (A) (A) (A) (A) (A) (A) (A) (A) (A) (A) (A)
                 (A) (A) (A) (A) (A) (A) (A) (A) (A) (A) (A) (A)
                 (A) (A) (A) (A) (A) (A) (A) (A) (A) (A) (A) (A)
                 (A) (A) (A) (A) (A) (A) (A) (A) (A) (A) (A) (A)
                 (A) (A) (A) (A) (A) (A) (A) (A) (A) (A) (A) (A)
                 (A) (A) (A) (A) (A) (A) (A) (A) (A) (A) (A) (A)
                 (A) (A) (A) (A) (A) (A) (A) (A) (A) (A) (A) (A)
                 (A) (A) (A) (A) (A) (A) (A) (A) (A) (A) (A) (A)
                 (A) (A) (A) (A) (A) (A) (A) (A) (A) (A) (A) (A)
                 (A) (A) (A) (A) (A) (A) (A) (A) (A) (A) (A) (A)
 Initial guess <Sx>= 0.0000 <Sy>= 0.0000 <Sz>= 1.0000 <S**2>= 2.0654 S= 1.0216
 Harris functional with IExCor= 1009 diagonalized for initial guess.
 ExpMin= 4.38D-02 ExpMax= 8.59D+03 ExpMxC= 1.30D+03 IAcc=2 IRadAn=         0 AccDes= 0.00D+00
 HarFok:  IExCor= 1009 AccDes= 0.00D+00 IRadAn=         0 IDoV= 1
 ScaDFX=  1.000000  1.000000  1.000000  1.000000
 FoFCou: FMM=F IPFlag=           0 FMFlag=      100000 FMFlg1=           0
         NFxFlg=           0 DoJE=T BraDBF=F KetDBF=T FulRan=T
         Omega=  0.000000  0.000000  1.000000  0.000000  0.000000 ICntrl=     500 IOpCl=  0
         NMat0=    1 NMatS0=    1 NMatT0=    0 NMatD0=    1 NMtDS0=    0 NMtDT0=    0
         I1Cent=           4 NGrid=           0.
 Petite list used in FoFCou.
 Requested convergence on RMS density matrix=1.00D-08 within 128 cycles.
 Requested convergence on MAX density matrix=1.00D-06.
 Requested convergence on             energy=1.00D-06.
 No special actions if energy rises.
 Restarting incremental Fock formation.
 SCF Done:  E(UM062X) =  -416.301780348     A.U. after   22 cycles
             Convg  =    0.3311D-08             -V/T =  2.0027
 <Sx>= 0.0000 <Sy>= 0.0000 <Sz>= 1.0000 <S**2>= 2.0144 S= 1.0048
 <L.S>= 0.000000000000E+00
 Annihilation of the first spin contaminant:
 S**2 before annihilation     2.0144,   after     2.0001
 Calling FoFJK, ICntrl=      2127 FMM=F ISym2X=0 I1Cent= 0 IOpClX= 1 NMat=1 NMatS=1 NMatT=0.
 ***** Axes restored to original set *****
 -------------------------------------------------------------------
 Center     Atomic                   Forces (Hartrees/Bohr)
 Number     Number              X              Y              Z
 -------------------------------------------------------------------
      1        6          -0.007042586   -0.002412824   -0.003593286
      2        8          -0.000144888    0.000581634    0.000852156
      3        8           0.008429847   -0.000734984    0.003114543
      4        1           0.013215143   -0.000791640    0.002176985
      5        1          -0.000393442   -0.000327675    0.000493927
      6        8           0.000625309    0.000722127   -0.000443048
      7        1          -0.001443762   -0.001706116    0.000507946
      8        8          -0.006478000    0.002961787   -0.000456063
      9        8          -0.005492877    0.000209107   -0.003046597
     10        1          -0.001274745    0.001498583    0.000393436
 -------------------------------------------------------------------
 Cartesian Forces:  Max     0.013215143 RMS     0.003795002

 GradGradGradGradGradGradGradGradGradGradGradGradGradGradGradGradGradGrad
 Berny optimization.
 Internal  Forces:  Max     0.023032120 RMS     0.006791162
 Search for a saddle point.
 Step number   2 out of a maximum of   41
 All quantities printed in internal units (Hartrees-Bohrs-Radians)
 Swaping is turned off.
 Update second derivatives using D2CorX and points    1    2
 ITU=  0  0
     Eigenvalues ---   -0.09958  -0.00498   0.00151   0.00455   0.01885
     Eigenvalues ---    0.04626   0.05731   0.06151   0.07561   0.09771
     Eigenvalues ---    0.14862   0.16272   0.16864   0.19628   0.20073
     Eigenvalues ---    0.24230   0.25998   0.35845   0.37993   0.42820
     Eigenvalues ---    0.47590   0.50911   0.52812   0.55224
 Eigenvectors required to have negative eigenvalues:
                          R7        R3        R8        A4        R2
   1                    0.75442  -0.60046  -0.16888   0.07894   0.07338
                          D1        D11       D6        A1        A5
   1                    0.07240   0.06364   0.06233  -0.05147  -0.04767
 RFO step:  Lambda0=1.222567228D-03 Lambda=-8.00320079D-03.
 Linear search not attempted -- option 19 set.
 Iteration  1 RMS(Cart)=  0.18489907 RMS(Int)=  0.04632939
 Iteration  2 RMS(Cart)=  0.04472604 RMS(Int)=  0.00276831
 Iteration  3 RMS(Cart)=  0.00258207 RMS(Int)=  0.00052891
 Iteration  4 RMS(Cart)=  0.00000913 RMS(Int)=  0.00052888
 Iteration  5 RMS(Cart)=  0.00000000 RMS(Int)=  0.00052888
 Variable       Old X    -DE/DX   Delta X   Delta X   Delta X     New X
                                 (Linear)    (Quad)   (Total)
    R1        2.72781   0.00134   0.00000  -0.00296  -0.00296   2.72485
    R2        2.53508  -0.00260   0.00000  -0.02003  -0.02003   2.51505
    R3        2.47505   0.00044   0.00000   0.08208   0.08208   2.55713
    R4        2.05089   0.00028   0.00000   0.00349   0.00349   2.05437
    R5        2.45429   0.00033   0.00000   0.00534   0.00534   2.45963
    R6        1.83503   0.00013   0.00000   0.00051   0.00051   1.83554
    R7        2.29816   0.01427   0.00000  -0.04723  -0.04723   2.25093
    R8        2.59725   0.00055   0.00000   0.00672   0.00672   2.60397
    R9        1.83162   0.00095   0.00000  -0.00275  -0.00275   1.82887
    A1        1.97897   0.00057   0.00000   0.02398   0.02394   2.00292
    A2        1.84162  -0.00320   0.00000  -0.03495  -0.03609   1.80552
    A3        1.85689   0.00043   0.00000   0.00239   0.00112   1.85801
    A4        1.83502   0.00949   0.00000   0.06460   0.06477   1.89979
    A5        1.97845  -0.00434   0.00000  -0.00036   0.00015   1.97860
    A6        1.97064  -0.00305   0.00000  -0.06024  -0.06071   1.90993
    A7        1.94189   0.00221   0.00000  -0.00780  -0.00780   1.93409
    A8        1.90359   0.00093   0.00000   0.01561   0.01561   1.91920
    A9        2.70120   0.01974   0.00000   0.05259   0.05259   2.75379
   A10        1.79779  -0.00103   0.00000   0.00189   0.00189   1.79968
   A11        1.76906   0.02303   0.00000   0.12709   0.12709   1.89615
    D1        1.12519   0.00453   0.00000  -0.16694  -0.16720   0.95798
    D2       -0.87396  -0.00521   0.00000  -0.23546  -0.23509  -1.10905
    D3       -2.97158  -0.00031   0.00000  -0.14965  -0.14976  -3.12134
    D4       -1.30557  -0.00278   0.00000  -0.32320  -0.32389  -1.62946
    D5        0.69752  -0.00063   0.00000  -0.31430  -0.31380   0.38372
    D6        2.85800  -0.00046   0.00000  -0.34459  -0.34440   2.51360
    D7        1.41556  -0.00082   0.00000   0.19468   0.19340   1.60895
    D8       -0.68101  -0.00449   0.00000   0.15301   0.15270  -0.52831
    D9       -2.84646  -0.00379   0.00000   0.14557   0.14715  -2.69931
   D10        0.17241  -0.00772   0.00000  -0.20925  -0.20925  -0.03684
   D11       -1.52893  -0.00301   0.00000  -0.17230  -0.17230  -1.70123
         Item               Value     Threshold  Converged?
 Maximum Force            0.023032     0.000450     NO 
 RMS     Force            0.006791     0.000300     NO 
 Maximum Displacement     0.746252     0.001800     NO 
 RMS     Displacement     0.211809     0.001200     NO 
 Predicted change in Energy=-5.822670D-03
 GradGradGradGradGradGradGradGradGradGradGradGradGradGradGradGradGradGrad

                          Input orientation:                          
 ---------------------------------------------------------------------
 Center     Atomic      Atomic             Coordinates (Angstroms)
 Number     Number       Type             X           Y           Z
 ---------------------------------------------------------------------
      1          6           0        0.853117   -0.607981    0.505024
      2          8           0        1.449548    0.704792    0.497640
      3          8           0        0.867528   -1.233354   -0.669715
      4          1           0       -0.431301   -0.368135    0.856906
      5          1           0        1.346785   -1.166078    1.296646
      6          8           0        0.899328    1.457693   -0.410386
      7          1           0        0.037520   -1.064859   -1.145288
      8          8           0       -1.846985   -0.016205   -0.639381
      9          8           0       -1.591360   -0.141969    0.708809
     10          1           0       -1.834021    0.941680   -0.776915
 ---------------------------------------------------------------------
                    Distance matrix (angstroms):
                    1          2          3          4          5
     1  C    0.000000
     2  O    1.441929   0.000000
     3  O    1.330907   2.336210   0.000000
     4  H    1.353173   2.194958   2.183148   0.000000
     5  H    1.087127   2.036940   2.025041   1.997918   0.000000
     6  O    2.259894   1.301582   2.703701   2.590416   3.162017
     7  H    1.896698   2.797267   0.971326   2.171174   2.772627
     8  O    2.991724   3.560869   2.975056   2.089710   3.907759
     9  O    2.496831   3.163657   3.022844   1.191142   3.166552
    10  H    3.356416   3.530217   3.469962   2.520438   4.342790
                    6          7          8          9         10
     6  O    0.000000
     7  H    2.765152   0.000000
     8  O    3.125228   2.215170   0.000000
     9  O    3.164656   2.634891   1.377961   0.000000
    10  H    2.805675   2.768495   0.967795   1.854873   0.000000
 Stoichiometry    CH4O5(3)
 Framework group  C1[X(CH4O5)]
 Deg. of freedom    24
 Full point group                 C1      NOp   1
 Largest Abelian subgroup         C1      NOp   1
 Largest concise Abelian subgroup C1      NOp   1
                         Standard orientation:                         
 ---------------------------------------------------------------------
 Center     Atomic      Atomic             Coordinates (Angstroms)
 Number     Number       Type             X           Y           Z
 ---------------------------------------------------------------------
      1          6           0       -0.752820    0.710679    0.487522
      2          8           0       -1.500965   -0.520029    0.418274
      3          8           0       -0.621731    1.349318   -0.672766
      4          1           0        0.470148    0.312319    0.907921
      5          1           0       -1.222442    1.313468    1.260793
      6          8           0       -0.991712   -1.321413   -0.471985
      7          1           0        0.209027    1.088170   -1.103017
      8          8           0        1.920379   -0.187726   -0.511119
      9          8           0        1.601451   -0.050527    0.822387
     10          1           0        1.800812   -1.135015   -0.669155
 ---------------------------------------------------------------------
 Rotational constants (GHZ):      4.6902667      2.4607023      2.0862751
 Standard basis: 6-311+G(2df,2p) (5D, 7F)
 There are   240 symmetry adapted basis functions of A   symmetry.
 Integral buffers will be    131072 words long.
 Raffenetti 2 integral format.
 Two-electron integral symmetry is turned on.
   240 basis functions,   356 primitive gaussians,   270 cartesian basis functions
    26 alpha electrons       24 beta electrons
       nuclear repulsion energy       258.1915632687 Hartrees.
 NAtoms=   10 NActive=   10 NUniq=   10 SFac= 1.00D+00 NAtFMM=   50 NAOKFM=F Big=F
 One-electron integrals computed using PRISM.
 NBasis=   240 RedAO= T  NBF=   240
 NBsUse=   240 1.00D-06 NBFU=   240
 Initial guess read from the read-write file.
 B after Tr=     0.000000    0.000000    0.000000
         Rot=    1.000000    0.000000    0.000000    0.000000 Ang=   0.00 deg.
 Initial guess orbital symmetries:
 Alpha Orbitals:
       Occupied  (A) (A) (A) (A) (A) (A) (A) (A) (A) (A) (A) (A)
                 (A) (A) (A) (A) (A) (A) (A) (A) (A) (A) (A) (A)
                 (A) (A)
       Virtual   (A) (A) (A) (A) (A) (A) (A) (A) (A) (A) (A) (A)
                 (A) (A) (A) (A) (A) (A) (A) (A) (A) (A) (A) (A)
                 (A) (A) (A) (A) (A) (A) (A) (A) (A) (A) (A) (A)
                 (A) (A) (A) (A) (A) (A) (A) (A) (A) (A) (A) (A)
                 (A) (A) (A) (A) (A) (A) (A) (A) (A) (A) (A) (A)
                 (A) (A) (A) (A) (A) (A) (A) (A) (A) (A) (A) (A)
                 (A) (A) (A) (A) (A) (A) (A) (A) (A) (A) (A) (A)
                 (A) (A) (A) (A) (A) (A) (A) (A) (A) (A) (A) (A)
                 (A) (A) (A) (A) (A) (A) (A) (A) (A) (A) (A) (A)
                 (A) (A) (A) (A) (A) (A) (A) (A) (A) (A) (A) (A)
                 (A) (A) (A) (A) (A) (A) (A) (A) (A) (A) (A) (A)
                 (A) (A) (A) (A) (A) (A) (A) (A) (A) (A) (A) (A)
                 (A) (A) (A) (A) (A) (A) (A) (A) (A) (A) (A) (A)
                 (A) (A) (A) (A) (A) (A) (A) (A) (A) (A) (A) (A)
                 (A) (A) (A) (A) (A) (A) (A) (A) (A) (A) (A) (A)
                 (A) (A) (A) (A) (A) (A) (A) (A) (A) (A) (A) (A)
                 (A) (A) (A) (A) (A) (A) (A) (A) (A) (A) (A) (A)
                 (A) (A) (A) (A) (A) (A) (A) (A) (A) (A)
 Beta  Orbitals:
       Occupied  (A) (A) (A) (A) (A) (A) (A) (A) (A) (A) (A) (A)
                 (A) (A) (A) (A) (A) (A) (A) (A) (A) (A) (A) (A)
       Virtual   (A) (A) (A) (A) (A) (A) (A) (A) (A) (A) (A) (A)
                 (A) (A) (A) (A) (A) (A) (A) (A) (A) (A) (A) (A)
                 (A) (A) (A) (A) (A) (A) (A) (A) (A) (A) (A) (A)
                 (A) (A) (A) (A) (A) (A) (A) (A) (A) (A) (A) (A)
                 (A) (A) (A) (A) (A) (A) (A) (A) (A) (A) (A) (A)
                 (A) (A) (A) (A) (A) (A) (A) (A) (A) (A) (A) (A)
                 (A) (A) (A) (A) (A) (A) (A) (A) (A) (A) (A) (A)
                 (A) (A) (A) (A) (A) (A) (A) (A) (A) (A) (A) (A)
                 (A) (A) (A) (A) (A) (A) (A) (A) (A) (A) (A) (A)
                 (A) (A) (A) (A) (A) (A) (A) (A) (A) (A) (A) (A)
                 (A) (A) (A) (A) (A) (A) (A) (A) (A) (A) (A) (A)
                 (A) (A) (A) (A) (A) (A) (A) (A) (A) (A) (A) (A)
                 (A) (A) (A) (A) (A) (A) (A) (A) (A) (A) (A) (A)
                 (A) (A) (A) (A) (A) (A) (A) (A) (A) (A) (A) (A)
                 (A) (A) (A) (A) (A) (A) (A) (A) (A) (A) (A) (A)
                 (A) (A) (A) (A) (A) (A) (A) (A) (A) (A) (A) (A)
                 (A) (A) (A) (A) (A) (A) (A) (A) (A) (A) (A) (A)
                 (A) (A) (A) (A) (A) (A) (A) (A) (A) (A) (A) (A)
 Initial guess <Sx>= 0.0000 <Sy>= 0.0000 <Sz>= 1.0000 <S**2>= 2.0148 S= 1.0049
 Harris functional with IExCor= 1009 diagonalized for initial guess.
 ExpMin= 4.38D-02 ExpMax= 8.59D+03 ExpMxC= 1.30D+03 IAcc=2 IRadAn=         0 AccDes= 0.00D+00
 HarFok:  IExCor= 1009 AccDes= 0.00D+00 IRadAn=         0 IDoV= 1
 ScaDFX=  1.000000  1.000000  1.000000  1.000000
 FoFCou: FMM=F IPFlag=           0 FMFlag=      100000 FMFlg1=           0
         NFxFlg=           0 DoJE=T BraDBF=F KetDBF=T FulRan=T
         Omega=  0.000000  0.000000  1.000000  0.000000  0.000000 ICntrl=     500 IOpCl=  0
         NMat0=    1 NMatS0=    1 NMatT0=    0 NMatD0=    1 NMtDS0=    0 NMtDT0=    0
         I1Cent=           4 NGrid=           0.
 Petite list used in FoFCou.
 Requested convergence on RMS density matrix=1.00D-08 within 128 cycles.
 Requested convergence on MAX density matrix=1.00D-06.
 Requested convergence on             energy=1.00D-06.
 No special actions if energy rises.
 Restarting incremental Fock formation.
 SCF Done:  E(UM062X) =  -416.298739350     A.U. after   20 cycles
             Convg  =    0.4401D-08             -V/T =  2.0028
 <Sx>= 0.0000 <Sy>= 0.0000 <Sz>= 1.0000 <S**2>= 2.0146 S= 1.0049
 <L.S>= 0.000000000000E+00
 Annihilation of the first spin contaminant:
 S**2 before annihilation     2.0146,   after     2.0001
 Calling FoFJK, ICntrl=      2127 FMM=F ISym2X=0 I1Cent= 0 IOpClX= 1 NMat=1 NMatS=1 NMatT=0.
 ***** Axes restored to original set *****
 -------------------------------------------------------------------
 Center     Atomic                   Forces (Hartrees/Bohr)
 Number     Number              X              Y              Z
 -------------------------------------------------------------------
      1        6          -0.006043440    0.003759686    0.011922821
      2        8           0.001717441   -0.001310641   -0.003238875
      3        8          -0.006152327   -0.003481726   -0.006342701
      4        1           0.008227503   -0.001931924   -0.010368837
      5        1           0.000735463    0.001726578    0.001435017
      6        8          -0.001931766    0.000257555    0.000938733
      7        1           0.002906729    0.003541225   -0.001746903
      8        8           0.006151876   -0.001447134    0.002883006
      9        8          -0.008432925   -0.000095031    0.005926383
     10        1           0.002821445   -0.001018588   -0.001408644
 -------------------------------------------------------------------
 Cartesian Forces:  Max     0.011922821 RMS     0.004750055

 GradGradGradGradGradGradGradGradGradGradGradGradGradGradGradGradGradGrad
 Berny optimization.
 Internal  Forces:  Max     0.024445635 RMS     0.005709915
 Search for a saddle point.
 Step number   3 out of a maximum of   41
 All quantities printed in internal units (Hartrees-Bohrs-Radians)
 Swaping is turned off.
 Update second derivatives using D2CorX and points    2    3
 ITU=  0  0  0
     Eigenvalues ---   -0.09836  -0.00206   0.00288   0.00559   0.01929
     Eigenvalues ---    0.04717   0.05715   0.06151   0.07564   0.09803
     Eigenvalues ---    0.15265   0.16271   0.16920   0.19630   0.20378
     Eigenvalues ---    0.24640   0.27298   0.35856   0.38236   0.43233
     Eigenvalues ---    0.47670   0.50926   0.52812   0.55232
 Eigenvectors required to have negative eigenvalues:
                          R7        R3        R8        A4        R2
   1                   -0.75733   0.59645   0.16973  -0.08376  -0.07106
                          D4        D1        D3        D11       A5
   1                    0.06861  -0.06396   0.05251  -0.05027   0.04869
 RFO step:  Lambda0=2.224687497D-04 Lambda=-5.29154627D-03.
 Linear search not attempted -- option 19 set.
 Iteration  1 RMS(Cart)=  0.08277493 RMS(Int)=  0.05267675
 Iteration  2 RMS(Cart)=  0.04329296 RMS(Int)=  0.00342245
 Iteration  3 RMS(Cart)=  0.00335362 RMS(Int)=  0.00007076
 Iteration  4 RMS(Cart)=  0.00001576 RMS(Int)=  0.00007008
 Iteration  5 RMS(Cart)=  0.00000000 RMS(Int)=  0.00007008
 Variable       Old X    -DE/DX   Delta X   Delta X   Delta X     New X
                                 (Linear)    (Quad)   (Total)
    R1        2.72485  -0.00104   0.00000  -0.00501  -0.00501   2.71984
    R2        2.51505   0.00708   0.00000   0.00944   0.00944   2.52449
    R3        2.55713  -0.00991   0.00000  -0.01073  -0.01073   2.54640
    R4        2.05437   0.00050   0.00000  -0.00188  -0.00188   2.05249
    R5        2.45963   0.00028   0.00000  -0.00158  -0.00158   2.45806
    R6        1.83554  -0.00102   0.00000  -0.00206  -0.00206   1.83348
    R7        2.25093  -0.00193   0.00000  -0.04455  -0.04455   2.20638
    R8        2.60397  -0.00330   0.00000   0.00909   0.00909   2.61306
    R9        1.82887  -0.00076   0.00000  -0.00118  -0.00118   1.82769
    A1        2.00292  -0.00333   0.00000  -0.01290  -0.01288   1.99004
    A2        1.80552   0.00273   0.00000   0.01746   0.01730   1.82283
    A3        1.85801  -0.00002   0.00000   0.00605   0.00589   1.86390
    A4        1.89979  -0.00450   0.00000  -0.02044  -0.02041   1.87938
    A5        1.97860   0.00419   0.00000  -0.00121  -0.00116   1.97743
    A6        1.90993   0.00101   0.00000   0.01430   0.01417   1.92410
    A7        1.93409  -0.00174   0.00000   0.00505   0.00505   1.93914
    A8        1.91920   0.00051   0.00000  -0.00682  -0.00682   1.91238
    A9        2.75379  -0.00806   0.00000   0.08511   0.08511   2.83890
   A10        1.79968   0.00177   0.00000  -0.00108  -0.00108   1.79860
   A11        1.89615  -0.02445   0.00000  -0.07054  -0.07054   1.82561
    D1        0.95798  -0.00129   0.00000   0.13596   0.13592   1.09391
    D2       -1.10905   0.00415   0.00000   0.15617   0.15628  -0.95277
    D3       -3.12134   0.00183   0.00000   0.13006   0.12998  -2.99136
    D4       -1.62946   0.00355   0.00000   0.33229   0.33221  -1.29725
    D5        0.38372   0.00196   0.00000   0.33273   0.33280   0.71651
    D6        2.51360   0.00281   0.00000   0.33545   0.33546   2.84906
    D7        1.60895  -0.00061   0.00000  -0.28805  -0.28821   1.32074
    D8       -0.52831   0.00402   0.00000  -0.27245  -0.27244  -0.80075
    D9       -2.69931   0.00111   0.00000  -0.26680  -0.26664  -2.96595
   D10       -0.03684   0.00489   0.00000   0.24940   0.24940   0.21256
   D11       -1.70123   0.00550   0.00000   0.09654   0.09654  -1.60469
         Item               Value     Threshold  Converged?
 Maximum Force            0.024446     0.000450     NO 
 RMS     Force            0.005710     0.000300     NO 
 Maximum Displacement     0.273905     0.001800     NO 
 RMS     Displacement     0.113373     0.001200     NO 
 Predicted change in Energy=-3.988931D-03
 GradGradGradGradGradGradGradGradGradGradGradGradGradGradGradGradGradGrad

                          Input orientation:                          
 ---------------------------------------------------------------------
 Center     Atomic      Atomic             Coordinates (Angstroms)
 Number     Number       Type             X           Y           Z
 ---------------------------------------------------------------------
      1          6           0        0.826967   -0.627898    0.511275
      2          8           0        1.416816    0.681438    0.415168
      3          8           0        0.839686   -1.315472   -0.634026
      4          1           0       -0.460244   -0.393724    0.833752
      5          1           0        1.331155   -1.140219    1.325526
      6          8           0        0.755170    1.433429   -0.414699
      7          1           0        0.169948   -0.955461   -1.236690
      8          8           0       -1.850805   -0.004223   -0.581802
      9          8           0       -1.589459   -0.103342    0.772426
     10          1           0       -1.689077    0.931057   -0.767589
 ---------------------------------------------------------------------
                    Distance matrix (angstroms):
                    1          2          3          4          5
     1  C    0.000000
     2  O    1.439278   0.000000
     3  O    1.335902   2.328419   0.000000
     4  H    1.347494   2.203302   2.166521   0.000000
     5  H    1.086132   2.038265   2.027831   2.002050   0.000000
     6  O    2.260896   1.300747   2.758931   2.524747   3.159716
     7  H    1.895878   2.638703   0.970237   2.235939   2.819129
     8  O    2.958758   3.484455   2.993467   2.022168   3.879852
     9  O    2.486459   3.127492   3.057469   1.167566   3.148178
    10  H    3.224332   3.332836   3.385170   2.414409   4.218189
                    6          7          8          9         10
     6  O    0.000000
     7  H    2.593251   0.000000
     8  O    2.980918   2.327482   0.000000
     9  O    3.044375   2.803242   1.382772   0.000000
    10  H    2.520169   2.689792   0.967172   1.857835   0.000000
 Stoichiometry    CH4O5(3)
 Framework group  C1[X(CH4O5)]
 Deg. of freedom    24
 Full point group                 C1      NOp   1
 Largest Abelian subgroup         C1      NOp   1
 Largest concise Abelian subgroup C1      NOp   1
                         Standard orientation:                         
 ---------------------------------------------------------------------
 Center     Atomic      Atomic             Coordinates (Angstroms)
 Number     Number       Type             X           Y           Z
 ---------------------------------------------------------------------
      1          6           0       -0.781835    0.678019    0.501466
      2          8           0       -1.450153   -0.590603    0.377086
      3          8           0       -0.719497    1.373783   -0.637244
      4          1           0        0.478641    0.360413    0.856529
      5          1           0       -1.275064    1.214950    1.306520
      6          8           0       -0.814513   -1.376559   -0.441559
      7          1           0       -0.057364    0.976756   -1.224875
      8          8           0        1.880519   -0.105412   -0.524378
      9          8           0        1.588572   -0.000347    0.823132
     10          1           0        1.665365   -1.027135   -0.723270
 ---------------------------------------------------------------------
 Rotational constants (GHZ):      4.5995836      2.5765294      2.1329434
 Standard basis: 6-311+G(2df,2p) (5D, 7F)
 There are   240 symmetry adapted basis functions of A   symmetry.
 Integral buffers will be    131072 words long.
 Raffenetti 2 integral format.
 Two-electron integral symmetry is turned on.
   240 basis functions,   356 primitive gaussians,   270 cartesian basis functions
    26 alpha electrons       24 beta electrons
       nuclear repulsion energy       259.6383913471 Hartrees.
 NAtoms=   10 NActive=   10 NUniq=   10 SFac= 1.00D+00 NAtFMM=   50 NAOKFM=F Big=F
 One-electron integrals computed using PRISM.
 NBasis=   240 RedAO= T  NBF=   240
 NBsUse=   240 1.00D-06 NBFU=   240
 Initial guess read from the read-write file.
 B after Tr=     0.000000    0.000000    0.000000
         Rot=    1.000000    0.000000    0.000000    0.000000 Ang=   0.00 deg.
 Initial guess orbital symmetries:
 Alpha Orbitals:
       Occupied  (A) (A) (A) (A) (A) (A) (A) (A) (A) (A) (A) (A)
                 (A) (A) (A) (A) (A) (A) (A) (A) (A) (A) (A) (A)
                 (A) (A)
       Virtual   (A) (A) (A) (A) (A) (A) (A) (A) (A) (A) (A) (A)
                 (A) (A) (A) (A) (A) (A) (A) (A) (A) (A) (A) (A)
                 (A) (A) (A) (A) (A) (A) (A) (A) (A) (A) (A) (A)
                 (A) (A) (A) (A) (A) (A) (A) (A) (A) (A) (A) (A)
                 (A) (A) (A) (A) (A) (A) (A) (A) (A) (A) (A) (A)
                 (A) (A) (A) (A) (A) (A) (A) (A) (A) (A) (A) (A)
                 (A) (A) (A) (A) (A) (A) (A) (A) (A) (A) (A) (A)
                 (A) (A) (A) (A) (A) (A) (A) (A) (A) (A) (A) (A)
                 (A) (A) (A) (A) (A) (A) (A) (A) (A) (A) (A) (A)
                 (A) (A) (A) (A) (A) (A) (A) (A) (A) (A) (A) (A)
                 (A) (A) (A) (A) (A) (A) (A) (A) (A) (A) (A) (A)
                 (A) (A) (A) (A) (A) (A) (A) (A) (A) (A) (A) (A)
                 (A) (A) (A) (A) (A) (A) (A) (A) (A) (A) (A) (A)
                 (A) (A) (A) (A) (A) (A) (A) (A) (A) (A) (A) (A)
                 (A) (A) (A) (A) (A) (A) (A) (A) (A) (A) (A) (A)
                 (A) (A) (A) (A) (A) (A) (A) (A) (A) (A) (A) (A)
                 (A) (A) (A) (A) (A) (A) (A) (A) (A) (A) (A) (A)
                 (A) (A) (A) (A) (A) (A) (A) (A) (A) (A)
 Beta  Orbitals:
       Occupied  (A) (A) (A) (A) (A) (A) (A) (A) (A) (A) (A) (A)
                 (A) (A) (A) (A) (A) (A) (A) (A) (A) (A) (A) (A)
       Virtual   (A) (A) (A) (A) (A) (A) (A) (A) (A) (A) (A) (A)
[...]
                 (A) (A) (A) (A) (A) (A) (A) (A) (A) (A) (A) (A)
                 (A) (A) (A) (A) (A) (A) (A) (A) (A) (A) (A) (A)
                 (A) (A) (A) (A) (A) (A) (A) (A) (A) (A) (A) (A)
                 (A) (A) (A) (A) (A) (A) (A) (A) (A) (A) (A) (A)
 The electronic state is 3-A.
 Alpha  occ. eigenvalues --  -19.77455 -19.73205 -19.72143 -19.71303 -19.68819
 Alpha  occ. eigenvalues --  -10.68639  -1.37643  -1.30327  -1.22967  -1.02926
 Alpha  occ. eigenvalues --   -1.01456  -0.79884  -0.70101  -0.66204  -0.64666
 Alpha  occ. eigenvalues --   -0.63736  -0.61298  -0.56109  -0.55260  -0.54276
 Alpha  occ. eigenvalues --   -0.47182  -0.44890  -0.40762  -0.40509  -0.39739
 Alpha  occ. eigenvalues --   -0.32215
 Alpha virt. eigenvalues --    0.01532   0.01802   0.04348   0.04564   0.06966
 Alpha virt. eigenvalues --    0.09777   0.11680   0.15184   0.15942   0.17345
 Alpha virt. eigenvalues --    0.17808   0.18217   0.18580   0.20084   0.20719
 Alpha virt. eigenvalues --    0.21074   0.22660   0.23303   0.23949   0.24917
 Alpha virt. eigenvalues --    0.25067   0.27567   0.28091   0.29324   0.30558
 Alpha virt. eigenvalues --    0.31958   0.32279   0.33185   0.34385   0.37067
 Alpha virt. eigenvalues --    0.38534   0.42616   0.47579   0.51479   0.53319
 Alpha virt. eigenvalues --    0.58933   0.60011   0.60751   0.64552   0.66448
 Alpha virt. eigenvalues --    0.72021   0.74606   0.74998   0.79262   0.81217
 Alpha virt. eigenvalues --    0.88876   0.91218   0.95516   0.96766   0.97318
 Alpha virt. eigenvalues --    0.98462   1.01541   1.03112   1.05386   1.06527
 Alpha virt. eigenvalues --    1.08280   1.09558   1.10378   1.12816   1.13394
 Alpha virt. eigenvalues --    1.15453   1.17719   1.18925   1.20707   1.24716
 Alpha virt. eigenvalues --    1.25725   1.30430   1.32869   1.37987   1.41596
 Alpha virt. eigenvalues --    1.42802   1.48289   1.49819   1.52435   1.54325
 Alpha virt. eigenvalues --    1.56203   1.59916   1.60275   1.61942   1.62853
 Alpha virt. eigenvalues --    1.66115   1.72505   1.77157   1.82888   1.86628
 Alpha virt. eigenvalues --    1.94107   1.98725   2.00456   2.05003   2.09063
 Alpha virt. eigenvalues --    2.16337   2.19083   2.20119   2.24865   2.25882
 Alpha virt. eigenvalues --    2.30894   2.33084   2.37910   2.38424   2.46073
 Alpha virt. eigenvalues --    2.57066   2.59757   2.61092   2.73192   2.76038
 Alpha virt. eigenvalues --    2.85579   3.06620   3.11070   3.17276   3.22127
 Alpha virt. eigenvalues --    3.28079   3.33444   3.38542   3.41767   3.44080
 Alpha virt. eigenvalues --    3.52951   3.57889   3.61163   3.64925   3.66823
 Alpha virt. eigenvalues --    3.72664   3.75849   3.79444   3.85203   3.87783
 Alpha virt. eigenvalues --    3.99900   4.04582   4.12729   4.18772   4.21437
 Alpha virt. eigenvalues --    4.29483   4.38799   4.47519   4.57535   4.61493
 Alpha virt. eigenvalues --    4.63199   4.64381   4.71383   4.72506   4.78171
 Alpha virt. eigenvalues --    4.87700   4.89229   4.98547   4.98745   4.99370
 Alpha virt. eigenvalues --    5.05014   5.08424   5.09256   5.10727   5.11885
 Alpha virt. eigenvalues --    5.14322   5.14770   5.15434   5.16726   5.19359
 Alpha virt. eigenvalues --    5.21183   5.22081   5.25058   5.28140   5.30640
 Alpha virt. eigenvalues --    5.30981   5.36495   5.39090   5.44560   5.51878
 Alpha virt. eigenvalues --    5.52775   5.55455   5.61087   5.62985   5.66432
 Alpha virt. eigenvalues --    5.97562   6.04773   6.08724   6.09302   6.24723
 Alpha virt. eigenvalues --    6.34269   6.36993   6.48519   6.61362   6.69220
 Alpha virt. eigenvalues --    6.74588   6.80884   6.81930   6.82368   6.86190
 Alpha virt. eigenvalues --    6.88696   6.91076   6.95047   6.97595   7.02040
 Alpha virt. eigenvalues --    7.06220   7.08169   7.10665   7.18557   7.22818
 Alpha virt. eigenvalues --    7.25666   7.26786   7.30521   7.32963   7.43263
 Alpha virt. eigenvalues --    7.45937   7.49249   7.59666   7.66010   7.78060
 Alpha virt. eigenvalues --    7.86858   7.90338   7.91688  24.41679  49.94253
 Alpha virt. eigenvalues --   49.97565  50.00897  50.02482  50.13187
  Beta  occ. eigenvalues --  -19.76585 -19.71948 -19.71760 -19.70379 -19.68582
  Beta  occ. eigenvalues --  -10.68087  -1.34211  -1.28614  -1.21831  -0.99528
  Beta  occ. eigenvalues --   -0.97710  -0.77302  -0.67534  -0.63692  -0.62084
  Beta  occ. eigenvalues --   -0.61621  -0.55411  -0.53928  -0.51035  -0.50322
  Beta  occ. eigenvalues --   -0.45204  -0.40294  -0.39035  -0.36655
  Beta virt. eigenvalues --   -0.12389  -0.07381   0.01719   0.01957   0.04552
  Beta virt. eigenvalues --    0.04776   0.07377   0.10255   0.12162   0.15453
  Beta virt. eigenvalues --    0.16394   0.17853   0.18269   0.18651   0.19481
  Beta virt. eigenvalues --    0.20406   0.20973   0.21483   0.23296   0.23721
  Beta virt. eigenvalues --    0.24171   0.25070   0.25250   0.27893   0.29008
  Beta virt. eigenvalues --    0.29721   0.30736   0.32374   0.33285   0.33765
  Beta virt. eigenvalues --    0.34501   0.37411   0.38907   0.42739   0.48484
  Beta virt. eigenvalues --    0.51841   0.53980   0.59250   0.60575   0.61286
  Beta virt. eigenvalues --    0.65856   0.67031   0.72331   0.74768   0.75515
  Beta virt. eigenvalues --    0.79560   0.81481   0.89091   0.91648   0.96041
  Beta virt. eigenvalues --    0.97800   0.98091   0.98805   1.01858   1.04739
  Beta virt. eigenvalues --    1.05943   1.07100   1.09149   1.10949   1.12572
  Beta virt. eigenvalues --    1.13603   1.13974   1.15901   1.18575   1.19533
  Beta virt. eigenvalues --    1.21110   1.25560   1.26190   1.30872   1.33372
  Beta virt. eigenvalues --    1.38666   1.42987   1.43715   1.49255   1.50910
  Beta virt. eigenvalues --    1.53289   1.55155   1.57514   1.60547   1.61219
  Beta virt. eigenvalues --    1.62907   1.63917   1.67612   1.73557   1.78749
  Beta virt. eigenvalues --    1.83780   1.87439   1.94528   1.99393   2.01379
  Beta virt. eigenvalues --    2.05976   2.10093   2.17131   2.19204   2.21229
  Beta virt. eigenvalues --    2.25731   2.26999   2.31066   2.33554   2.38435
  Beta virt. eigenvalues --    2.38934   2.47062   2.57428   2.60155   2.61981
  Beta virt. eigenvalues --    2.72369   2.76582   2.85648   3.08832   3.13503
  Beta virt. eigenvalues --    3.18776   3.24280   3.29917   3.34729   3.42086
  Beta virt. eigenvalues --    3.45182   3.47298   3.55317   3.60370   3.63970
  Beta virt. eigenvalues --    3.66412   3.67540   3.73026   3.76258   3.80504
  Beta virt. eigenvalues --    3.86560   3.89903   4.00078   4.05187   4.12828
  Beta virt. eigenvalues --    4.20323   4.21346   4.30950   4.39841   4.50559
  Beta virt. eigenvalues --    4.57589   4.62455   4.63275   4.65053   4.71956
  Beta virt. eigenvalues --    4.73822   4.78279   4.88781   4.89467   5.01390
  Beta virt. eigenvalues --    5.01937   5.04845   5.06525   5.09047   5.10574
  Beta virt. eigenvalues --    5.12234   5.14093   5.15418   5.15605   5.16813
  Beta virt. eigenvalues --    5.17397   5.19831   5.21960   5.22658   5.26321
  Beta virt. eigenvalues --    5.29503   5.30938   5.31473   5.37460   5.39881
  Beta virt. eigenvalues --    5.45745   5.52656   5.53482   5.55976   5.61371
  Beta virt. eigenvalues --    5.63770   5.67183   5.98107   6.05341   6.09082
  Beta virt. eigenvalues --    6.10045   6.25620   6.35008   6.39824   6.49288
  Beta virt. eigenvalues --    6.62638   6.78845   6.79424   6.82080   6.86566
  Beta virt. eigenvalues --    6.86959   6.88542   6.90131   6.92821   6.98330
  Beta virt. eigenvalues --    6.99993   7.04083   7.06557   7.10799   7.11488
  Beta virt. eigenvalues --    7.19123   7.25722   7.26611   7.28578   7.32721
  Beta virt. eigenvalues --    7.35389   7.43860   7.46402   7.50331   7.60106
  Beta virt. eigenvalues --    7.66220   7.80170   7.87091   7.90585   7.93285
  Beta virt. eigenvalues --   24.42441  49.93768  49.97196  50.00409  50.02046
  Beta virt. eigenvalues --   50.12908
          Condensed to atoms (all electrons):
              1          2          3          4          5          6
     1  C    5.180997   0.137673   0.172812   0.307671   0.440681  -0.054961
     2  O    0.137673   7.713341   0.002840  -0.003300  -0.042945   0.179365
     3  O    0.172812   0.002840   7.923292  -0.017234  -0.041224   0.011418
     4  H    0.307671  -0.003300  -0.017234   0.428402  -0.024734  -0.009841
     5  H    0.440681  -0.042945  -0.041224  -0.024734   0.464124   0.006990
     6  O   -0.054961   0.179365   0.011418  -0.009841   0.006990   8.040179
     7  H   -0.015063  -0.010248   0.264276  -0.011622   0.005395   0.010139
     8  O    0.036388  -0.000937  -0.032841  -0.061509   0.001563  -0.016579
     9  O   -0.103472   0.012075   0.019444   0.101710   0.005226   0.011210
    10  H   -0.002442  -0.004716   0.004860   0.007576  -0.000259   0.012789
              7          8          9         10
     1  C   -0.015063   0.036388  -0.103472  -0.002442
     2  O   -0.010248  -0.000937   0.012075  -0.004716
     3  O    0.264276  -0.032841   0.019444   0.004860
     4  H   -0.011622  -0.061509   0.101710   0.007576
     5  H    0.005395   0.001563   0.005226  -0.000259
     6  O    0.010139  -0.016579   0.011210   0.012789
     7  H    0.413984   0.038040   0.002713  -0.005992
     8  O    0.038040   7.902549   0.089427   0.212241
     9  O    0.002713   0.089427   8.176582  -0.025957
    10  H   -0.005992   0.212241  -0.025957   0.539257
 Mulliken atomic charges:
              1
     1  C   -0.100285
     2  O    0.016852
     3  O   -0.307644
     4  H    0.282881
     5  H    0.185184
     6  O   -0.190708
     7  H    0.308378
     8  O   -0.168342
     9  O   -0.288959
    10  H    0.262644
 Sum of Mulliken atomic charges =   0.00000
 Mulliken charges with hydrogens summed into heavy atoms:
              1
     1  C    0.084899
     2  O    0.016852
     3  O    0.000734
     6  O   -0.190708
     8  O    0.094302
     9  O   -0.006078
 Sum of Mulliken charges with hydrogens summed into heavy atoms =   0.00000
          Atomic-Atomic Spin Densities.
              1          2          3          4          5          6
     1  C    0.708747  -0.048322  -0.108036   0.101038  -0.017946  -0.005393
     2  O   -0.048322   0.480727   0.003084  -0.011818   0.004792  -0.155705
     3  O   -0.108036   0.003084   0.154311  -0.013890   0.003814   0.001492
     4  H    0.101038  -0.011818  -0.013890  -0.085848  -0.001895  -0.001242
     5  H   -0.017946   0.004792   0.003814  -0.001895   0.001914   0.000999
     6  O   -0.005393  -0.155705   0.001492  -0.001242   0.000999   0.885038
     7  H   -0.019402   0.001169   0.011908  -0.000024   0.000555   0.000452
     8  O    0.072466  -0.006296  -0.023947   0.033027  -0.002002  -0.002781
     9  O   -0.168619   0.015778   0.035964  -0.033570   0.005254   0.004615
    10  H   -0.005969   0.000569   0.001321  -0.002656   0.000092   0.000152
              7          8          9         10
     1  C   -0.019402   0.072466  -0.168619  -0.005969
     2  O    0.001169  -0.006296   0.015778   0.000569
     3  O    0.011908  -0.023947   0.035964   0.001321
     4  H   -0.000024   0.033027  -0.033570  -0.002656
     5  H    0.000555  -0.002002   0.005254   0.000092
     6  O    0.000452  -0.002781   0.004615   0.000152
     7  H    0.007668  -0.014651   0.010122   0.001282
     8  O   -0.014651   0.130968  -0.101773  -0.008650
     9  O    0.010122  -0.101773   0.583698   0.010742
    10  H    0.001282  -0.008650   0.010742   0.000578
 Mulliken atomic spin densities:
              1
     1  C    0.508564
     2  O    0.283978
     3  O    0.066022
     4  H   -0.016878
     5  H   -0.004424
     6  O    0.727628
     7  H   -0.000923
     8  O    0.076361
     9  O    0.362210
    10  H   -0.002538
 Sum of Mulliken atomic spin densities =   2.00000
 Electronic spatial extent (au):  <R**2>=            572.9368
 Charge=              0.0000 electrons
 Dipole moment (field-independent basis, Debye):
    X=             -0.4526    Y=              0.2148    Z=             -0.1179  Tot=              0.5146
 Quadrupole moment (field-independent basis, Debye-Ang):
   XX=            -39.4625   YY=            -35.9128   ZZ=            -32.0995
   XY=             -3.6330   XZ=             -4.1423   YZ=              2.7295
 Traceless Quadrupole moment (field-independent basis, Debye-Ang):
   XX=             -3.6375   YY=             -0.0879   ZZ=              3.7254
   XY=             -3.6330   XZ=             -4.1423   YZ=              2.7295
 Octapole moment (field-independent basis, Debye-Ang**2):
  XXX=             -5.0737  YYY=             -6.2340  ZZZ=             -4.1829  XYY=              6.0008
  XXY=             -1.0000  XXZ=             -1.6933  XZZ=             -0.4526  YZZ=              0.7974
  YYZ=              0.9546  XYZ=             -0.5635
 Hexadecapole moment (field-independent basis, Debye-Ang**3):
 XXXX=           -378.0118 YYYY=           -200.2185 ZZZZ=            -97.3908 XXXY=             -8.5727
 XXXZ=             -3.0280 YYYX=             -5.2171 YYYZ=              5.1878 ZZZX=             -5.8843
 ZZZY=              0.9597 XXYY=            -87.6406 XXZZ=            -78.2218 YYZZ=            -45.7466
 XXYZ=              6.0239 YYXZ=             -9.1507 ZZXY=             -2.1065
 N-N= 2.617488485855D+02 E-N=-2.239394718852D+03  KE= 6.196206183750D+02
                          Isotropic Fermi Contact Couplings
        Atom                 a.u.       MegaHertz       Gauss      10(-4) cm-1
     1  C(13)              0.21019     118.14431      42.15683      39.40870
     2  O(17)              0.06623     -20.07557      -7.16346      -6.69649
     3  O(17)              0.01294      -3.92164      -1.39934      -1.30812
     4  H(1)              -0.03132     -70.00628     -24.97998     -23.35158
     5  H(1)               0.00379       8.47561       3.02431       2.82716
     6  O(17)              0.12068     -36.57927     -13.05239     -12.20153
     7  H(1)               0.00558      12.47864       4.45269       4.16243
     8  O(17)              0.01069      -3.23880      -1.15568      -1.08035
     9  O(17)              0.07972     -24.16250      -8.62178      -8.05974
    10  H(1)              -0.00147      -3.27488      -1.16856      -1.09238
 --------------------------------------------------------
       Center         ----  Spin Dipole Couplings  ----
                      3XX-RR        3YY-RR        3ZZ-RR
 --------------------------------------------------------
     1   Atom        0.421459     -0.176785     -0.244674
     2   Atom       -0.317502     -0.515487      0.832990
     3   Atom        0.266727     -0.181249     -0.085478
     4   Atom        0.196542     -0.085944     -0.110598
     5   Atom       -0.010921     -0.001437      0.012358
     6   Atom       -0.914346     -0.799508      1.713854
     7   Atom       -0.006427     -0.006442      0.012869
     8   Atom        0.364222     -0.099608     -0.264614
     9   Atom        1.579550     -0.665144     -0.914406
    10   Atom        0.008705      0.000439     -0.009144
 --------------------------------------------------------
                        XY            XZ            YZ
 --------------------------------------------------------
     1   Atom       -0.315445      0.258240     -0.097104
     2   Atom       -0.244144      0.912459     -0.756468
     3   Atom       -0.190667      0.281291     -0.131165
     4   Atom       -0.100171      0.033620     -0.001209
     5   Atom       -0.022219     -0.014144      0.039151
     6   Atom       -0.696638      1.431239     -1.593004
     7   Atom       -0.005876     -0.024764      0.003803
     8   Atom       -0.226175      0.011128      0.008481
     9   Atom       -0.876909      0.383407     -0.137775
    10   Atom        0.004189     -0.003704      0.016163
 --------------------------------------------------------


 ---------------------------------------------------------------------------------
              Anisotropic Spin Dipole Couplings in Principal Axis System
 ---------------------------------------------------------------------------------

       Atom             a.u.   MegaHertz   Gauss  10(-4) cm-1        Axes

              Baa    -0.3365   -45.149   -16.110   -15.060 -0.4201 -0.3116  0.8523
     1 C(13)  Bbb    -0.3062   -41.091   -14.662   -13.706  0.2259  0.8737  0.4308
              Bcc     0.6427    86.240    30.773    28.767  0.8789 -0.3735  0.2967
 
              Baa    -0.9540    69.034    24.633    23.027 -0.5360  0.6437  0.5462
     2 O(17)  Bbb    -0.6684    48.364    17.258    16.133  0.7236  0.6836 -0.0954
              Bcc     1.6224  -117.399   -41.891   -39.160  0.4347 -0.3441  0.8322
 
              Baa    -0.2732    19.768     7.054     6.594 -0.0393  0.7905  0.6112
     3 O(17)  Bbb    -0.2272    16.441     5.867     5.484 -0.5653 -0.5220  0.6388
              Bcc     0.5004   -36.209   -12.920   -12.078  0.8240 -0.3204  0.4673
 
              Baa    -0.1250   -66.704   -23.802   -22.250  0.2918  0.7289 -0.6193
     4 H(1)   Bbb    -0.1065   -56.828   -20.278   -18.956  0.1169  0.6154  0.7795
              Bcc     0.2315   123.532    44.079    41.206  0.9493 -0.2999  0.0943
 
              Baa    -0.0376   -20.057    -7.157    -6.690  0.3816  0.7769 -0.5009
     5 H(1)   Bbb    -0.0173    -9.236    -3.296    -3.081  0.8515 -0.0846  0.5175
              Bcc     0.0549    29.294    10.453     9.771 -0.3597  0.6240  0.6938
 
              Baa    -1.5720   113.751    40.589    37.943  0.0735  0.9096  0.4090
     6 O(17)  Bbb    -1.5430   111.649    39.839    37.242  0.9271  0.0887 -0.3640
              Bcc     3.1150  -225.400   -80.428   -75.185  0.3674 -0.4059  0.8368
 
              Baa    -0.0238   -12.697    -4.531    -4.235  0.8256  0.1610  0.5409
     7 H(1)   Bbb    -0.0071    -3.799    -1.356    -1.267 -0.0377  0.9721 -0.2317
              Bcc     0.0309    16.496     5.886     5.503 -0.5631  0.1709  0.8086
 
              Baa    -0.2666    19.292     6.884     6.435 -0.0688 -0.1433  0.9873
     8 O(17)  Bbb    -0.1897    13.727     4.898     4.579  0.3705  0.9152  0.1586
              Bcc     0.4563   -33.019   -11.782   -11.014  0.9263 -0.3767  0.0099
 
              Baa    -0.9759    70.613    25.196    23.554  0.0567  0.5342  0.8435
     9 O(17)  Bbb    -0.9638    69.739    24.885    23.262  0.3476  0.7814 -0.5182
              Bcc     1.9397  -140.352   -50.081   -46.816  0.9359 -0.3226  0.1413
 
              Baa    -0.0222   -11.835    -4.223    -3.948  0.1747 -0.5936  0.7855
    10 H(1)   Bbb     0.0093     4.953     1.768     1.652  0.9294 -0.1640 -0.3306
              Bcc     0.0129     6.882     2.456     2.296  0.3251  0.7879  0.5231
 

 ---------------------------------------------------------------------------------

 1\1\GINC-COMPUTE-3-042\FTS\UM062X\6-311+G(2df,2p)\C1H4O5(3)\ROOT\03-Au
 g-2017\0\\# m062x/6-311+g(2df,2p) opt=(ts,calcfc,noeigentest)\\[O]O+[O
 ]OCO_OO+[O]O[CH]O\\0,3\C,0.8277338501,-0.6136146056,0.5082064113\O,1.4
 429611418,0.6837399229,0.3957013425\O,0.7530748456,-1.2832243467,-0.64
 45315778\H,-0.4506584375,-0.3592638782,0.8724035006\H,1.3597662021,-1.
 1442230951,1.2922190611\O,0.722784426,1.4908179498,-0.326497224\H,0.01
 54145659,-0.9307184304,-1.1723032033\O,-1.7509307738,-0.0695500129,-0.
 62572792\O,-1.5925930985,-0.1302817722,0.7477931261\H,-1.5773937218,0.
 8619022684,-0.8239225165\\Version=EM64L-G09RevB.01\State=3-A\HF=-416.3
 025268\S2=2.01418\S2-1=0.\S2A=2.000102\RMSD=8.777e-09\RMSF=9.024e-06\D
 ipole=0.1904004,-0.0565034,-0.0394049\Quadrupole=-2.2023213,-0.7351968
 ,2.937518,-3.0109256,2.9682822,-1.8727485\PG=C01 [X(C1H4O5)]\\@


 Until you make peace with who you are,
 you'll never be content with what you have.
                           -- Doris Mortman
 Job cpu time:  0 days 13 hours 35 minutes 39.4 seconds.
 File lengths (MBytes):  RWF=   2416 Int=      0 D2E=      0 Chk=     32 Scr=     32
 Normal termination of Gaussian 09 at Thu Aug  3 23:49:47 2017.
