 Entering Gaussian System, Link 0=/shared/apps/gaussian/G09_LINUX_LINDA/g09/g09
 Input=/gss_gpfs_scratch/harms.n/QMscratch/[O]O+[O]OCO_OO+[O]O[CH]OIRC.gjf
 Output=/gss_gpfs_scratch/harms.n/QMscratch/[O]O+[O]OCO_OO+[O]O[CH]OIRC.log
 Initial command:
 /shared/apps/gaussian/G09_LINUX_LINDA/g09/l1.exe /gss_gpfs_scratch/harms.n/comparerTST/Gau-42152.inp -scrdir=/gss_gpfs_scratch/harms.n/comparerTST/
 Entering Link 1 = /shared/apps/gaussian/G09_LINUX_LINDA/g09/l1.exe PID=     42153.
  
 Copyright (c) 1988,1990,1992,1993,1995,1998,2003,2009,2010,
            Gaussian, Inc.  All Rights Reserved.
  
 This is part of the Gaussian(R) 09 program.  It is based on
 the Gaussian(R) 03 system (copyright 2003, Gaussian, Inc.),
 the Gaussian(R) 98 system (copyright 1998, Gaussian, Inc.),
 the Gaussian(R) 94 system (copyright 1995, Gaussian, Inc.),
 the Gaussian 92(TM) system (copyright 1992, Gaussian, Inc.),
 the Gaussian 90(TM) system (copyright 1990, Gaussian, Inc.),
 the Gaussian 88(TM) system (copyright 1988, Gaussian, Inc.),
 the Gaussian 86(TM) system (copyright 1986, Carnegie Mellon
 University), and the Gaussian 82(TM) system (copyright 1983,
 Carnegie Mellon University). Gaussian is a federally registered
 trademark of Gaussian, Inc.
  
 This software contains proprietary and confidential information,
 including trade secrets, belonging to Gaussian, Inc.
  
 This software is provided under written license and may be
 used, copied, transmitted, or stored only in accord with that
 written license.
  
 The following legend is applicable only to US Government
 contracts under FAR:
  
                    RESTRICTED RIGHTS LEGEND
  
 Use, reproduction and disclosure by the US Government is
 subject to restrictions as set forth in subparagraphs (a)
 and (c) of the Commercial Computer Software - Restricted
 Rights clause in FAR 52.227-19.
  
 Gaussian, Inc.
 340 Quinnipiac St., Bldg. 40, Wallingford CT 06492
  
  
 ---------------------------------------------------------------
 Warning -- This program may not be used in any manner that
 competes with the business of Gaussian, Inc. or will provide
 assistance to any competitor of Gaussian, Inc.  The licensee
 of this program is prohibited from giving any competitor of
 Gaussian, Inc. access to this program.  By using this program,
 the user acknowledges that Gaussian, Inc. is engaged in the
 business of creating and licensing software in the field of
 computational chemistry and represents and warrants to the
 licensee that it is not a competitor of Gaussian, Inc. and that
 it will not use this program in any manner prohibited above.
 ---------------------------------------------------------------
  

 Cite this work as:
 Gaussian 09, Revision B.01,
 M. J. Frisch, G. W. Trucks, H. B. Schlegel, G. E. Scuseria, 
 M. A. Robb, J. R. Cheeseman, G. Scalmani, V. Barone, B. Mennucci, 
 G. A. Petersson, H. Nakatsuji, M. Caricato, X. Li, H. P. Hratchian, 
 A. F. Izmaylov, J. Bloino, G. Zheng, J. L. Sonnenberg, M. Hada, 
 M. Ehara, K. Toyota, R. Fukuda, J. Hasegawa, M. Ishida, T. Nakajima, 
 Y. Honda, O. Kitao, H. Nakai, T. Vreven, J. A. Montgomery, Jr., 
 J. E. Peralta, F. Ogliaro, M. Bearpark, J. J. Heyd, E. Brothers, 
 K. N. Kudin, V. N. Staroverov, T. Keith, R. Kobayashi, J. Normand, 
 K. Raghavachari, A. Rendell, J. C. Burant, S. S. Iyengar, J. Tomasi, 
 M. Cossi, N. Rega, J. M. Millam, M. Klene, J. E. Knox, J. B. Cross, 
 V. Bakken, C. Adamo, J. Jaramillo, R. Gomperts, R. E. Stratmann, 
 O. Yazyev, A. J. Austin, R. Cammi, C. Pomelli, J. W. Ochterski, 
 R. L. Martin, K. Morokuma, V. G. Zakrzewski, G. A. Voth, 
 P. Salvador, J. J. Dannenberg, S. Dapprich, A. D. Daniels, 
 O. Farkas, J. B. Foresman, J. V. Ortiz, J. Cioslowski, 
 and D. J. Fox, Gaussian, Inc., Wallingford CT, 2010.
 
 ******************************************
 Gaussian 09:  EM64L-G09RevB.01 12-Aug-2010
                 4-Aug-2017 
 ******************************************
 %nprocshared=20
 Will use up to   20 processors via shared memory.
 %mem=5GB
 %chk=/gss_gpfs_scratch/harms.n/QMscratch/[O]O+[O]OCO_OO+[O]O[CH]O
 ----------------------------------------------------------------------
 # m062x/6-311+g(2df,2p) irc=(calcall,report=read) geom=allcheck guess=
 check nosymm
 ----------------------------------------------------------------------
 1/10=4,14=-1,18=10,26=3,29=7,38=1,44=3,71=1,129=1/1,23;
 2/12=2,15=1,29=1,40=1/2;
 3/5=4,6=6,7=214,11=2,14=-4,16=1,25=1,30=1,71=2,74=-55,116=-2/1,2,3;
 4/5=1/1;
 5/5=2,38=6/2;
 8/6=4,10=90,11=11/1;
 11/6=1,8=1,9=11,15=111,16=1,31=1/1,2,10;
 10/6=1,31=1/2;
 6/7=2,8=2,9=2,10=2,18=1,28=1/1;
 7/10=1,25=1,30=1/1,2,3,16;
 1/10=4,14=-1,18=10,44=3,71=1,129=1/23(3);
 2/15=1,29=1/2;
 7/8=1,9=1,25=1,30=1,44=-1/16;
 99/5=20/99;
 2/15=1,29=1/2;
 3/5=4,6=6,7=214,11=2,14=-2,16=1,25=1,30=1,71=2,74=-55/1,2,3;
 4/5=5,16=3/1;
 5/5=2,38=5/2;
 8/6=4,10=90,11=11/1;
 11/6=1,8=1,9=11,15=111,16=1,31=1/1,2,10;
 10/6=1,31=1/2;
 7/10=1,25=1,30=1/1,2,3,16;
 1/10=4,14=-1,18=10,44=3,71=1,129=1/23(-8);
 2/15=1,29=1/2;
 6/7=2,8=2,9=2,10=2,18=1,19=2,28=1/1;
 7/8=1,9=1,25=1,30=1,44=-1/16;
 99/5=20/99;
 ------------------------
 [O]O+[O]OCO_OO+[O]O[CH]O
 ------------------------
 Redundant internal coordinates taken from checkpoint file:
 /gss_gpfs_scratch/harms.n/QMscratch/[O]O+[O]OCO_OO+[O]O[CH]O.chk
 Charge =  0 Multiplicity = 3
 C,0,-0.741034,0.710489,0.501248
 O,0,-1.526165,-0.480703,0.30396
 O,0,-0.509289,1.401956,-0.617199
 H,0,0.466649,0.263228,0.917275
 H,0,-1.235113,1.284397,1.279576
 O,0,-0.888553,-1.357146,-0.414996
 H,0,0.199101,0.965897,-1.122157
 O,0,1.793385,-0.157751,-0.525496
 O,0,1.569915,-0.122496,0.839838
 H,0,1.501224,-1.047331,-0.771035
 Recover connectivity data from disk.
 IRC-IRC-IRC-IRC-IRC-IRC-IRC-IRC-IRC-IRC-IRC-IRC-IRC-IRC-IRC-IRC-IRC-IRC
 Reading IRC summary table definitions from input file.
 ------------------------------------------------------------------------
 INPUT DATA FOR L123
 ------------------------------------------------------------------------
 GENERAL PARAMETERS:
 Follow reaction path in both directions.
 Maximum points per path      =  10
 Step size                    =   0.100 bohr
 Integration scheme           = HPC                                 
    Redo corrector integration= Yes                                 
    Max correction cycles     =  20
 Initial Hessian              = CalcFC
 Hessian evaluation           = Full Hessian always
 ------------------------------------------------------------------------
 IRC-IRC-IRC-IRC-IRC-IRC-IRC-IRC-IRC-IRC-IRC-IRC-IRC-IRC-IRC-IRC-IRC-IRC
                          Input orientation:                          
 ---------------------------------------------------------------------
 Center     Atomic      Atomic             Coordinates (Angstroms)
 Number     Number       Type             X           Y           Z
 ---------------------------------------------------------------------
      1          6           0       -0.741034    0.710489    0.501248
      2          8           0       -1.526165   -0.480703    0.303960
      3          8           0       -0.509289    1.401956   -0.617199
      4          1           0        0.466649    0.263228    0.917275
      5          1           0       -1.235113    1.284397    1.279576
      6          8           0       -0.888553   -1.357146   -0.414996
      7          1           0        0.199101    0.965897   -1.122157
      8          8           0        1.793385   -0.157751   -0.525496
      9          8           0        1.569915   -0.122496    0.839838
     10          1           0        1.501224   -1.047331   -0.771035
 ---------------------------------------------------------------------
                    Distance matrix (angstroms):
                    1          2          3          4          5
     1  C    0.000000
     2  O    1.440240   0.000000
     3  O    1.335199   2.329587   0.000000
     4  H    1.353373   2.213797   2.145639   0.000000
     5  H    1.085946   2.037674   2.034305   2.017435   0.000000
     6  O    2.266358   1.300615   2.792377   2.497425   3.157440
     7  H    1.893286   2.665146   0.973112   2.173616   2.815446
     8  O    2.869028   3.436816   2.782697   2.004754   3.809183
     9  O    2.479716   3.162466   2.961419   1.171314   3.168738
    10  H    3.120313   3.262172   3.172512   2.374511   4.138780
                    6          7          8          9         10
     6  O    0.000000
     7  H    2.660751   0.000000
     8  O    2.939992   2.039689   0.000000
     9  O    3.023745   2.629288   1.383950   0.000000
    10  H    2.435936   2.423200   0.967988   1.858750   0.000000
 Symmetry turned off by external request.
 Stoichiometry    CH4O5(3)
 Framework group  C1[X(CH4O5)]
 Deg. of freedom    24
 Full point group                 C1      NOp   1
 Rotational constants (GHZ):      4.6663202      2.6742492      2.1905503
 Standard basis: 6-311+G(2df,2p) (5D, 7F)
 Integral buffers will be    131072 words long.
 Raffenetti 2 integral format.
 Two-electron integral symmetry is turned off.
   240 basis functions,   356 primitive gaussians,   270 cartesian basis functions
    26 alpha electrons       24 beta electrons
       nuclear repulsion energy       261.7488741178 Hartrees.
 NAtoms=   10 NActive=   10 NUniq=   10 SFac= 1.00D+00 NAtFMM=   50 NAOKFM=F Big=F
 One-electron integrals computed using PRISM.
 NBasis=   240 RedAO= T  NBF=   240
 NBsUse=   240 1.00D-06 NBFU=   240
 Initial guess read from the checkpoint file:  /gss_gpfs_scratch/harms.n/QMscratch/[O]O+[O]OCO_OO+[O]O[CH]O.chk
 B after Tr=     0.000000    0.000000    0.000000
         Rot=    1.000000    0.000000    0.000000    0.000000 Ang=   0.00 deg.
 Initial guess <Sx>= 0.0000 <Sy>= 0.0000 <Sz>= 1.0000 <S**2>= 2.0142 S= 1.0047
 Requested convergence on RMS density matrix=1.00D-08 within 128 cycles.
 Requested convergence on MAX density matrix=1.00D-06.
 Requested convergence on             energy=1.00D-06.
 No special actions if energy rises.
 SCF Done:  E(UM062X) =  -416.302526815     A.U. after    1 cycles
             Convg  =    0.4362D-09             -V/T =  2.0027
 <Sx>= 0.0000 <Sy>= 0.0000 <Sz>= 1.0000 <S**2>= 2.0142 S= 1.0047
 <L.S>= 0.000000000000E+00
 Annihilation of the first spin contaminant:
 S**2 before annihilation     2.0142,   after     2.0001
 Range of M.O.s used for correlation:     1   240
 NBasis=   240 NAE=    26 NBE=    24 NFC=     0 NFV=     0
 NROrb=    240 NOA=    26 NOB=    24 NVA=   214 NVB=   216

 **** Warning!!: The largest alpha MO coefficient is  0.16907009D+02


 **** Warning!!: The largest beta MO coefficient is  0.15927194D+02

 Symmetrizing basis deriv contribution to polar:
 IMax=3 JMax=2 DiffMx= 0.00D+00
 G2DrvN: will do    11 centers at a time, making    1 passes doing MaxLOS=3.
 Calling FoFCou, ICntrl=  3107 FMM=F I1Cent=   0 AccDes= 0.00D+00.
 FoFDir/FoFCou used for L=0 through L=3.
 End of G2Drv Frequency-dependent properties file   721 does not exist.
 End of G2Drv Frequency-dependent properties file   722 does not exist.
          IDoAtm=1111111111
          Differentiating once with respect to electric field.
                with respect to dipole field.
          Differentiating once with respect to nuclear coordinates.
          There are    33 degrees of freedom in the 1st order CPHF.  IDoFFX=5.
     30 vectors produced by pass  0 Test12= 3.26D-14 3.03D-09 XBig12= 6.18D+01 4.04D+00.
 AX will form    30 AO Fock derivatives at one time.
     30 vectors produced by pass  1 Test12= 3.26D-14 3.03D-09 XBig12= 1.24D+01 6.85D-01.
     30 vectors produced by pass  2 Test12= 3.26D-14 3.03D-09 XBig12= 6.06D-01 1.42D-01.
     30 vectors produced by pass  3 Test12= 3.26D-14 3.03D-09 XBig12= 1.08D-02 2.10D-02.
     30 vectors produced by pass  4 Test12= 3.26D-14 3.03D-09 XBig12= 2.01D-04 1.72D-03.
     30 vectors produced by pass  5 Test12= 3.26D-14 3.03D-09 XBig12= 3.53D-06 1.94D-04.
     30 vectors produced by pass  6 Test12= 3.26D-14 3.03D-09 XBig12= 3.78D-08 1.97D-05.
     28 vectors produced by pass  7 Test12= 3.26D-14 3.03D-09 XBig12= 3.79D-10 2.41D-06.
      8 vectors produced by pass  8 Test12= 3.26D-14 3.03D-09 XBig12= 2.81D-12 1.88D-07.
      3 vectors produced by pass  9 Test12= 3.26D-14 3.03D-09 XBig12= 1.88D-14 1.61D-08.
 Inverted reduced A of dimension   249 with in-core refinement.
 Isotropic polarizability for W=    0.000000       45.96 Bohr**3.
 End of Minotr Frequency-dependent properties file   721 does not exist.
 End of Minotr Frequency-dependent properties file   722 does not exist.

 **********************************************************************

            Population analysis using the SCF density.

 **********************************************************************

 Alpha  occ. eigenvalues --  -19.77455 -19.73205 -19.72143 -19.71303 -19.68819
 Alpha  occ. eigenvalues --  -10.68639  -1.37643  -1.30327  -1.22967  -1.02926
 Alpha  occ. eigenvalues --   -1.01456  -0.79884  -0.70101  -0.66204  -0.64666
 Alpha  occ. eigenvalues --   -0.63736  -0.61298  -0.56109  -0.55260  -0.54276
 Alpha  occ. eigenvalues --   -0.47182  -0.44890  -0.40762  -0.40509  -0.39739
 Alpha  occ. eigenvalues --   -0.32215
 Alpha virt. eigenvalues --    0.01532   0.01802   0.04348   0.04564   0.06966
 Alpha virt. eigenvalues --    0.09777   0.11680   0.15184   0.15942   0.17345
 Alpha virt. eigenvalues --    0.17808   0.18217   0.18580   0.20084   0.20719
 Alpha virt. eigenvalues --    0.21074   0.22660   0.23303   0.23949   0.24917
 Alpha virt. eigenvalues --    0.25067   0.27567   0.28091   0.29324   0.30558
 Alpha virt. eigenvalues --    0.31958   0.32279   0.33185   0.34385   0.37067
 Alpha virt. eigenvalues --    0.38534   0.42616   0.47579   0.51479   0.53319
 Alpha virt. eigenvalues --    0.58933   0.60011   0.60751   0.64552   0.66448
 Alpha virt. eigenvalues --    0.72021   0.74606   0.74998   0.79262   0.81217
 Alpha virt. eigenvalues --    0.88876   0.91218   0.95516   0.96766   0.97318
 Alpha virt. eigenvalues --    0.98462   1.01541   1.03112   1.05386   1.06527
 Alpha virt. eigenvalues --    1.08280   1.09558   1.10378   1.12816   1.13394
 Alpha virt. eigenvalues --    1.15453   1.17719   1.18925   1.20707   1.24716
 Alpha virt. eigenvalues --    1.25725   1.30430   1.32869   1.37987   1.41596
 Alpha virt. eigenvalues --    1.42802   1.48289   1.49819   1.52435   1.54325
 Alpha virt. eigenvalues --    1.56203   1.59916   1.60275   1.61942   1.62853
 Alpha virt. eigenvalues --    1.66115   1.72505   1.77157   1.82888   1.86628
 Alpha virt. eigenvalues --    1.94107   1.98725   2.00456   2.05003   2.09063
 Alpha virt. eigenvalues --    2.16337   2.19083   2.20119   2.24865   2.25882
 Alpha virt. eigenvalues --    2.30894   2.33084   2.37910   2.38424   2.46073
 Alpha virt. eigenvalues --    2.57066   2.59757   2.61092   2.73192   2.76038
 Alpha virt. eigenvalues --    2.85579   3.06620   3.11070   3.17276   3.22127
 Alpha virt. eigenvalues --    3.28079   3.33444   3.38542   3.41767   3.44080
 Alpha virt. eigenvalues --    3.52951   3.57889   3.61163   3.64925   3.66823
 Alpha virt. eigenvalues --    3.72664   3.75849   3.79444   3.85203   3.87783
 Alpha virt. eigenvalues --    3.99900   4.04582   4.12729   4.18772   4.21437
 Alpha virt. eigenvalues --    4.29483   4.38799   4.47519   4.57535   4.61493
 Alpha virt. eigenvalues --    4.63199   4.64381   4.71383   4.72506   4.78171
 Alpha virt. eigenvalues --    4.87700   4.89229   4.98547   4.98745   4.99370
 Alpha virt. eigenvalues --    5.05014   5.08424   5.09256   5.10727   5.11885
 Alpha virt. eigenvalues --    5.14322   5.14770   5.15434   5.16726   5.19359
 Alpha virt. eigenvalues --    5.21183   5.22081   5.25058   5.28140   5.30640
 Alpha virt. eigenvalues --    5.30981   5.36495   5.39090   5.44560   5.51878
 Alpha virt. eigenvalues --    5.52775   5.55455   5.61087   5.62985   5.66432
 Alpha virt. eigenvalues --    5.97562   6.04774   6.08724   6.09302   6.24723
 Alpha virt. eigenvalues --    6.34269   6.36993   6.48519   6.61362   6.69220
 Alpha virt. eigenvalues --    6.74588   6.80885   6.81930   6.82368   6.86190
 Alpha virt. eigenvalues --    6.88696   6.91076   6.95047   6.97595   7.02040
 Alpha virt. eigenvalues --    7.06220   7.08169   7.10665   7.18557   7.22818
 Alpha virt. eigenvalues --    7.25666   7.26786   7.30521   7.32963   7.43263
 Alpha virt. eigenvalues --    7.45937   7.49249   7.59666   7.66010   7.78060
 Alpha virt. eigenvalues --    7.86858   7.90338   7.91688  24.41679  49.94253
 Alpha virt. eigenvalues --   49.97565  50.00897  50.02482  50.13187
  Beta  occ. eigenvalues --  -19.76585 -19.71948 -19.71760 -19.70379 -19.68582
  Beta  occ. eigenvalues --  -10.68087  -1.34211  -1.28614  -1.21831  -0.99528
  Beta  occ. eigenvalues --   -0.97710  -0.77302  -0.67534  -0.63692  -0.62084
  Beta  occ. eigenvalues --   -0.61621  -0.55411  -0.53928  -0.51035  -0.50322
  Beta  occ. eigenvalues --   -0.45204  -0.40294  -0.39035  -0.36655
  Beta virt. eigenvalues --   -0.12389  -0.07381   0.01719   0.01957   0.04552
  Beta virt. eigenvalues --    0.04776   0.07377   0.10255   0.12162   0.15453
  Beta virt. eigenvalues --    0.16394   0.17853   0.18269   0.18651   0.19481
  Beta virt. eigenvalues --    0.20406   0.20973   0.21483   0.23296   0.23721
  Beta virt. eigenvalues --    0.24171   0.25070   0.25250   0.27893   0.29008
  Beta virt. eigenvalues --    0.29721   0.30736   0.32374   0.33285   0.33765
  Beta virt. eigenvalues --    0.34501   0.37411   0.38907   0.42739   0.48484
  Beta virt. eigenvalues --    0.51841   0.53980   0.59250   0.60575   0.61286
  Beta virt. eigenvalues --    0.65856   0.67031   0.72331   0.74768   0.75515
  Beta virt. eigenvalues --    0.79560   0.81481   0.89091   0.91648   0.96041
  Beta virt. eigenvalues --    0.97800   0.98091   0.98805   1.01858   1.04739
  Beta virt. eigenvalues --    1.05943   1.07100   1.09149   1.10949   1.12572
  Beta virt. eigenvalues --    1.13603   1.13974   1.15901   1.18575   1.19533
  Beta virt. eigenvalues --    1.21110   1.25560   1.26190   1.30872   1.33372
  Beta virt. eigenvalues --    1.38666   1.42987   1.43715   1.49255   1.50910
  Beta virt. eigenvalues --    1.53289   1.55155   1.57514   1.60547   1.61219
  Beta virt. eigenvalues --    1.62907   1.63917   1.67612   1.73557   1.78749
  Beta virt. eigenvalues --    1.83780   1.87439   1.94528   1.99393   2.01379
  Beta virt. eigenvalues --    2.05976   2.10093   2.17131   2.19204   2.21229
  Beta virt. eigenvalues --    2.25731   2.26999   2.31066   2.33554   2.38435
  Beta virt. eigenvalues --    2.38934   2.47062   2.57428   2.60155   2.61981
  Beta virt. eigenvalues --    2.72369   2.76582   2.85648   3.08832   3.13503
  Beta virt. eigenvalues --    3.18776   3.24280   3.29917   3.34729   3.42086
  Beta virt. eigenvalues --    3.45182   3.47298   3.55317   3.60370   3.63970
  Beta virt. eigenvalues --    3.66412   3.67540   3.73026   3.76258   3.80504
  Beta virt. eigenvalues --    3.86560   3.89903   4.00078   4.05187   4.12828
  Beta virt. eigenvalues --    4.20323   4.21346   4.30950   4.39841   4.50559
  Beta virt. eigenvalues --    4.57589   4.62455   4.63275   4.65053   4.71956
  Beta virt. eigenvalues --    4.73822   4.78279   4.88781   4.89467   5.01390
  Beta virt. eigenvalues --    5.01937   5.04845   5.06525   5.09047   5.10574
  Beta virt. eigenvalues --    5.12234   5.14093   5.15418   5.15605   5.16813
  Beta virt. eigenvalues --    5.17397   5.19831   5.21960   5.22658   5.26321
  Beta virt. eigenvalues --    5.29503   5.30938   5.31473   5.37460   5.39881
  Beta virt. eigenvalues --    5.45745   5.52656   5.53482   5.55976   5.61371
  Beta virt. eigenvalues --    5.63770   5.67183   5.98107   6.05342   6.09082
  Beta virt. eigenvalues --    6.10044   6.25620   6.35008   6.39824   6.49288
  Beta virt. eigenvalues --    6.62638   6.78845   6.79424   6.82080   6.86566
  Beta virt. eigenvalues --    6.86959   6.88542   6.90131   6.92821   6.98330
  Beta virt. eigenvalues --    6.99993   7.04083   7.06557   7.10799   7.11488
  Beta virt. eigenvalues --    7.19123   7.25722   7.26611   7.28578   7.32721
  Beta virt. eigenvalues --    7.35389   7.43860   7.46402   7.50331   7.60106
  Beta virt. eigenvalues --    7.66220   7.80170   7.87091   7.90585   7.93285
  Beta virt. eigenvalues --   24.42441  49.93768  49.97196  50.00409  50.02046
  Beta virt. eigenvalues --   50.12908
          Condensed to atoms (all electrons):
              1          2          3          4          5          6
     1  C    5.180996   0.137673   0.172812   0.307672   0.440681  -0.054961
     2  O    0.137673   7.713341   0.002840  -0.003300  -0.042945   0.179365
     3  O    0.172812   0.002840   7.923292  -0.017233  -0.041224   0.011418
     4  H    0.307672  -0.003300  -0.017233   0.428402  -0.024734  -0.009841
     5  H    0.440681  -0.042945  -0.041224  -0.024734   0.464124   0.006990
     6  O   -0.054961   0.179365   0.011418  -0.009841   0.006990   8.040179
     7  H   -0.015063  -0.010248   0.264276  -0.011622   0.005395   0.010139
     8  O    0.036388  -0.000937  -0.032841  -0.061509   0.001563  -0.016579
     9  O   -0.103472   0.012075   0.019444   0.101709   0.005226   0.011210
    10  H   -0.002442  -0.004716   0.004860   0.007576  -0.000259   0.012789
              7          8          9         10
     1  C   -0.015063   0.036388  -0.103472  -0.002442
     2  O   -0.010248  -0.000937   0.012075  -0.004716
     3  O    0.264276  -0.032841   0.019444   0.004860
     4  H   -0.011622  -0.061509   0.101709   0.007576
     5  H    0.005395   0.001563   0.005226  -0.000259
     6  O    0.010139  -0.016579   0.011210   0.012789
     7  H    0.413984   0.038040   0.002713  -0.005992
     8  O    0.038040   7.902549   0.089427   0.212241
     9  O    0.002713   0.089427   8.176583  -0.025957
    10  H   -0.005992   0.212241  -0.025957   0.539257
 Mulliken atomic charges:
              1
     1  C   -0.100285
     2  O    0.016852
     3  O   -0.307644
     4  H    0.282881
     5  H    0.185184
     6  O   -0.190708
     7  H    0.308378
     8  O   -0.168342
     9  O   -0.288959
    10  H    0.262644
 Sum of Mulliken atomic charges =   0.00000
 Mulliken charges with hydrogens summed into heavy atoms:
              1
     1  C    0.084899
     2  O    0.016852
     3  O    0.000734
     6  O   -0.190708
     8  O    0.094302
     9  O   -0.006078
 Sum of Mulliken charges with hydrogens summed into heavy atoms =   0.00000
          Atomic-Atomic Spin Densities.
              1          2          3          4          5          6
     1  C    0.708747  -0.048321  -0.108036   0.101038  -0.017946  -0.005393
     2  O   -0.048321   0.480727   0.003084  -0.011818   0.004792  -0.155705
     3  O   -0.108036   0.003084   0.154311  -0.013890   0.003814   0.001492
     4  H    0.101038  -0.011818  -0.013890  -0.085848  -0.001895  -0.001242
     5  H   -0.017946   0.004792   0.003814  -0.001895   0.001913   0.000999
     6  O   -0.005393  -0.155705   0.001492  -0.001242   0.000999   0.885038
     7  H   -0.019402   0.001169   0.011908  -0.000024   0.000555   0.000452
     8  O    0.072466  -0.006296  -0.023947   0.033027  -0.002002  -0.002781
     9  O   -0.168619   0.015777   0.035964  -0.033570   0.005254   0.004615
    10  H   -0.005969   0.000569   0.001321  -0.002656   0.000092   0.000152
              7          8          9         10
     1  C   -0.019402   0.072466  -0.168619  -0.005969
     2  O    0.001169  -0.006296   0.015777   0.000569
     3  O    0.011908  -0.023947   0.035964   0.001321
     4  H   -0.000024   0.033027  -0.033570  -0.002656
     5  H    0.000555  -0.002002   0.005254   0.000092
     6  O    0.000452  -0.002781   0.004615   0.000152
     7  H    0.007668  -0.014651   0.010122   0.001282
     8  O   -0.014651   0.130968  -0.101773  -0.008650
     9  O    0.010122  -0.101773   0.583698   0.010742
    10  H    0.001282  -0.008650   0.010742   0.000578
 Mulliken atomic spin densities:
              1
     1  C    0.508564
     2  O    0.283978
     3  O    0.066022
     4  H   -0.016878
     5  H   -0.004424
     6  O    0.727628
     7  H   -0.000923
     8  O    0.076361
     9  O    0.362210
    10  H   -0.002538
 Sum of Mulliken atomic spin densities =   2.00000
 APT atomic charges:
              1
     1  C    1.101308
     2  O   -0.495030
     3  O   -0.686566
     4  H   -0.253686
     5  H    0.013061
     6  O   -0.040013
     7  H    0.327594
     8  O   -0.304359
     9  O    0.062225
    10  H    0.275467
 Sum of APT charges=   0.00000
 APT Atomic charges with hydrogens summed into heavy atoms:
              1
     1  C    1.114369
     2  O   -0.495030
     3  O   -0.358973
     4  H    0.000000
     5  H    0.000000
     6  O   -0.040013
     7  H    0.000000
     8  O   -0.028893
     9  O   -0.191462
    10  H    0.000000
 Sum of APT charges=   0.00000
 Electronic spatial extent (au):  <R**2>=            572.9367
 Charge=              0.0000 electrons
 Dipole moment (field-independent basis, Debye):
    X=             -0.4526    Y=              0.2148    Z=             -0.1179  Tot=              0.5146
 Quadrupole moment (field-independent basis, Debye-Ang):
   XX=            -39.4625   YY=            -35.9128   ZZ=            -32.0995
   XY=             -3.6330   XZ=             -4.1423   YZ=              2.7295
 Traceless Quadrupole moment (field-independent basis, Debye-Ang):
   XX=             -3.6375   YY=             -0.0879   ZZ=              3.7254
   XY=             -3.6330   XZ=             -4.1423   YZ=              2.7295
 Octapole moment (field-independent basis, Debye-Ang**2):
  XXX=             -5.0737  YYY=             -6.2341  ZZZ=             -4.1829  XYY=              6.0008
  XXY=             -1.0000  XXZ=             -1.6933  XZZ=             -0.4526  YZZ=              0.7974
  YYZ=              0.9546  XYZ=             -0.5635
 Hexadecapole moment (field-independent basis, Debye-Ang**3):
 XXXX=           -378.0117 YYYY=           -200.2185 ZZZZ=            -97.3908 XXXY=             -8.5727
 XXXZ=             -3.0280 YYYX=             -5.2171 YYYZ=              5.1877 ZZZX=             -5.8843
 ZZZY=              0.9597 XXYY=            -87.6406 XXZZ=            -78.2217 YYZZ=            -45.7466
 XXYZ=              6.0239 YYXZ=             -9.1507 ZZXY=             -2.1065
 N-N= 2.617488741178D+02 E-N=-2.239394799323D+03  KE= 6.196206218774D+02
  Exact polarizability:  56.492  -7.093  42.429  -1.869   3.283  38.960
 Approx polarizability:  59.638  -9.039  48.588  -3.924   4.211  49.506
                          Isotropic Fermi Contact Couplings
        Atom                 a.u.       MegaHertz       Gauss      10(-4) cm-1
     1  C(13)              0.21019     118.14444      42.15687      39.40874
     2  O(17)              0.06623     -20.07548      -7.16343      -6.69646
     3  O(17)              0.01294      -3.92161      -1.39933      -1.30811
     4  H(1)              -0.03132     -70.00622     -24.97996     -23.35156
     5  H(1)               0.00379       8.47559       3.02430       2.82715
     6  O(17)              0.12068     -36.57930     -13.05240     -12.20154
     7  H(1)               0.00558      12.47863       4.45268       4.16242
     8  O(17)              0.01069      -3.23879      -1.15568      -1.08034
     9  O(17)              0.07972     -24.16252      -8.62179      -8.05975
    10  H(1)              -0.00147      -3.27482      -1.16854      -1.09236
 --------------------------------------------------------
       Center         ----  Spin Dipole Couplings  ----
                      3XX-RR        3YY-RR        3ZZ-RR
 --------------------------------------------------------
     1   Atom        0.421459     -0.176785     -0.244674
     2   Atom       -0.317502     -0.515487      0.832990
     3   Atom        0.266727     -0.181249     -0.085479
     4   Atom        0.196542     -0.085944     -0.110598
     5   Atom       -0.010921     -0.001437      0.012358
     6   Atom       -0.914346     -0.799508      1.713854
     7   Atom       -0.006427     -0.006442      0.012869
     8   Atom        0.364221     -0.099607     -0.264614
     9   Atom        1.579543     -0.665136     -0.914407
    10   Atom        0.008705      0.000439     -0.009144
 --------------------------------------------------------
                        XY            XZ            YZ
 --------------------------------------------------------
     1   Atom       -0.315445      0.258239     -0.097104
     2   Atom       -0.244143      0.912458     -0.756468
     3   Atom       -0.190666      0.281290     -0.131164
     4   Atom       -0.100170      0.033619     -0.001209
     5   Atom       -0.022219     -0.014144      0.039151
     6   Atom       -0.696639      1.431240     -1.593005
     7   Atom       -0.005876     -0.024764      0.003803
     8   Atom       -0.226176      0.011128      0.008481
     9   Atom       -0.876919      0.383407     -0.137777
    10   Atom        0.004189     -0.003704      0.016163
 --------------------------------------------------------


 ---------------------------------------------------------------------------------
              Anisotropic Spin Dipole Couplings in Principal Axis System
 ---------------------------------------------------------------------------------

       Atom             a.u.   MegaHertz   Gauss  10(-4) cm-1        Axes

              Baa    -0.3365   -45.149   -16.110   -15.060 -0.4201 -0.3116  0.8523
     1 C(13)  Bbb    -0.3062   -41.091   -14.662   -13.706  0.2259  0.8737  0.4308
              Bcc     0.6427    86.240    30.773    28.767  0.8789 -0.3735  0.2967
 
              Baa    -0.9540    69.034    24.633    23.027 -0.5360  0.6437  0.5462
     2 O(17)  Bbb    -0.6684    48.364    17.258    16.133  0.7236  0.6836 -0.0954
              Bcc     1.6224  -117.399   -41.891   -39.160  0.4347 -0.3441  0.8322
 
              Baa    -0.2732    19.768     7.054     6.594 -0.0393  0.7905  0.6112
     3 O(17)  Bbb    -0.2272    16.441     5.867     5.484 -0.5653 -0.5220  0.6388
              Bcc     0.5004   -36.209   -12.920   -12.078  0.8240 -0.3204  0.4673
 
              Baa    -0.1250   -66.704   -23.802   -22.250  0.2918  0.7289 -0.6193
     4 H(1)   Bbb    -0.1065   -56.828   -20.278   -18.956  0.1169  0.6154  0.7795
              Bcc     0.2315   123.532    44.079    41.206  0.9493 -0.2999  0.0943
 
              Baa    -0.0376   -20.057    -7.157    -6.690  0.3816  0.7769 -0.5009
     5 H(1)   Bbb    -0.0173    -9.236    -3.296    -3.081  0.8515 -0.0846  0.5175
              Bcc     0.0549    29.294    10.453     9.771 -0.3597  0.6240  0.6938
 
              Baa    -1.5720   113.751    40.589    37.943  0.0735  0.9096  0.4090
     6 O(17)  Bbb    -1.5430   111.649    39.839    37.242  0.9271  0.0888 -0.3640
              Bcc     3.1150  -225.400   -80.428   -75.185  0.3674 -0.4059  0.8368
 
              Baa    -0.0238   -12.697    -4.531    -4.235  0.8256  0.1610  0.5409
     7 H(1)   Bbb    -0.0071    -3.799    -1.356    -1.267 -0.0377  0.9721 -0.2317
              Bcc     0.0309    16.496     5.886     5.503 -0.5631  0.1709  0.8086
 
              Baa    -0.2666    19.292     6.884     6.435 -0.0688 -0.1433  0.9873
     8 O(17)  Bbb    -0.1897    13.727     4.898     4.579  0.3705  0.9152  0.1586
              Bcc     0.4563   -33.019   -11.782   -11.014  0.9263 -0.3767  0.0099
 
              Baa    -0.9759    70.613    25.196    23.554  0.0567  0.5342  0.8435
     9 O(17)  Bbb    -0.9638    69.739    24.885    23.262  0.3476  0.7814 -0.5182
              Bcc     1.9397  -140.352   -50.081   -46.816  0.9359 -0.3226  0.1413
 
              Baa    -0.0222   -11.835    -4.223    -3.948  0.1747 -0.5936  0.7855
    10 H(1)   Bbb     0.0093     4.953     1.768     1.652  0.9294 -0.1640 -0.3306
              Bcc     0.0129     6.882     2.456     2.296  0.3251  0.7879  0.5231
 

 ---------------------------------------------------------------------------------

 Calling FoFJK, ICntrl=    100127 FMM=F ISym2X=0 I1Cent= 0 IOpClX= 1 NMat=1 NMatS=1 NMatT=0.
 -------------------------------------------------------------------
 Center     Atomic                   Forces (Hartrees/Bohr)
 Number     Number              X              Y              Z
 -------------------------------------------------------------------
      1        6          -0.000000815    0.000004383   -0.000007786
      2        8          -0.000007431    0.000011151   -0.000008365
      3        8           0.000015939   -0.000001005   -0.000005166
      4        1           0.000008141   -0.000004138   -0.000004707
      5        1           0.000000435    0.000011227   -0.000008958
      6        8          -0.000006596    0.000006949   -0.000002575
      7        1           0.000013014   -0.000003412   -0.000006833
      8        8          -0.000004426   -0.000008186    0.000011967
      9        8          -0.000015235   -0.000005561    0.000020467
     10        1          -0.000003024   -0.000011409    0.000011957
 -------------------------------------------------------------------
 Cartesian Forces:  Max     0.000020467 RMS     0.000009026
 IRC-IRC-IRC-IRC-IRC-IRC-IRC-IRC-IRC-IRC-IRC-IRC-IRC-IRC-IRC-IRC-IRC-IRC
          ******** Start new reaction path calculation ********
 Supplied step size of   0.1000 bohr.
    Integration on MW PES will use step size of   0.1050 sqrt(amu)*bohr.
 Point Number:   0          Path Number:   1
 Calculating another point on the path.
 IRC-IRC-IRC-IRC-IRC-IRC-IRC-IRC-IRC-IRC-IRC-IRC-IRC-IRC-IRC-IRC-IRC-IRC
                          Input orientation:                          
 ---------------------------------------------------------------------
 Center     Atomic      Atomic             Coordinates (Angstroms)
 Number     Number       Type             X           Y           Z
 ---------------------------------------------------------------------
      1          6           0       -0.728263    0.724502    0.505900
      2          8           0       -1.516732   -0.465793    0.306950
      3          8           0       -0.499968    1.417315   -0.614644
      4          1           0        0.426484    0.294874    0.918190
      5          1           0       -1.228019    1.299780    1.279932
      6          8           0       -0.878968   -1.341853   -0.411816
      7          1           0        0.208726    0.982653   -1.118427
      8          8           0        1.803108   -0.142703   -0.521035
      9          8           0        1.581169   -0.107875    0.841366
     10          1           0        1.509534   -1.032138   -0.768091
 ---------------------------------------------------------------------
                    Distance matrix (angstroms):
                    1          2          3          4          5
     1  C    0.000000
     2  O    1.441550   0.000000
     3  O    1.337059   2.330073   0.000000
     4  H    1.299232   2.174469   2.113710   0.000000
     5  H    1.086198   2.036491   2.033049   1.969282   0.000000
     6  O    2.265996   1.300327   2.792452   2.480322   3.156276
     7  H    1.892888   2.665877   0.972099   2.160617   2.813704
     8  O    2.866091   3.436755   2.783268   2.039102   3.809458
     9  O    2.477673   3.163969   2.962651   1.225319   3.172597
    10  H    3.117142   3.261096   3.171981   2.403643   4.138410
                    6          7          8          9         10
     6  O    0.000000
     7  H    2.661899   0.000000
     8  O    2.939970   2.040921   0.000000
     9  O    3.024144   2.629379   1.380799   0.000000
    10  H    2.434707   2.423678   0.968667   1.857349   0.000000
 Symmetry turned off by external request.
 Stoichiometry    CH4O5(3)
 Framework group  C1[X(CH4O5)]
 Deg. of freedom    24
 Full point group                 C1      NOp   1
 Rotational constants (GHZ):      4.6683591      2.6748834      2.1904761
 Standard basis: 6-311+G(2df,2p) (5D, 7F)
 Integral buffers will be    131072 words long.
 Raffenetti 2 integral format.
 Two-electron integral symmetry is turned off.
   240 basis functions,   356 primitive gaussians,   270 cartesian basis functions
    26 alpha electrons       24 beta electrons
       nuclear repulsion energy       261.7589047278 Hartrees.
 NAtoms=   10 NActive=   10 NUniq=   10 SFac= 1.00D+00 NAtFMM=   50 NAOKFM=F Big=F
 One-electron integrals computed using PRISM.
 NBasis=   240 RedAO= T  NBF=   240
 NBsUse=   240 1.00D-06 NBFU=   240
 Initial guess read from the read-write file.
 B after Tr=     0.000000    0.000000    0.000000
         Rot=    1.000000    0.000000    0.000000    0.000000 Ang=   0.00 deg.
 Initial guess <Sx>= 0.0000 <Sy>= 0.0000 <Sz>= 1.0000 <S**2>= 2.0141 S= 1.0047
 Harris functional with IExCor= 1009 diagonalized for initial guess.
 ExpMin= 4.38D-02 ExpMax= 8.59D+03 ExpMxC= 1.30D+03 IAcc=2 IRadAn=         0 AccDes= 0.00D+00
 HarFok:  IExCor= 1009 AccDes= 0.00D+00 IRadAn=         0 IDoV= 1
 ScaDFX=  1.000000  1.000000  1.000000  1.000000
 FoFCou: FMM=F IPFlag=           0 FMFlag=      100000 FMFlg1=           0
         NFxFlg=           0 DoJE=T BraDBF=F KetDBF=T FulRan=T
         Omega=  0.000000  0.000000  1.000000  0.000000  0.000000 ICntrl=     500 IOpCl=  0
         NMat0=    1 NMatS0=    1 NMatT0=    0 NMatD0=    1 NMtDS0=    0 NMtDT0=    0
         I1Cent=           4 NGrid=           0.
 Symmetry not used in FoFCou.
 Requested convergence on RMS density matrix=1.00D-08 within 128 cycles.
 Requested convergence on MAX density matrix=1.00D-06.
 Requested convergence on             energy=1.00D-06.
 No special actions if energy rises.
 SCF Done:  E(UM062X) =  -416.303352418     A.U. after   18 cycles
             Convg  =    0.3686D-08             -V/T =  2.0028
 <Sx>= 0.0000 <Sy>= 0.0000 <Sz>= 1.0000 <S**2>= 2.0144 S= 1.0048
 <L.S>= 0.000000000000E+00
 Annihilation of the first spin contaminant:
 S**2 before annihilation     2.0144,   after     2.0001
 Range of M.O.s used for correlation:     1   240
 NBasis=   240 NAE=    26 NBE=    24 NFC=     0 NFV=     0
 NROrb=    240 NOA=    26 NOB=    24 NVA=   214 NVB=   216

 **** Warning!!: The largest alpha MO coefficient is  0.17154473D+02


 **** Warning!!: The largest beta MO coefficient is  0.16303188D+02

 Symmetrizing basis deriv contribution to polar:
 IMax=3 JMax=2 DiffMx= 0.00D+00
 G2DrvN: will do    11 centers at a time, making    1 passes doing MaxLOS=3.
 Calling FoFCou, ICntrl=  3107 FMM=F I1Cent=   0 AccDes= 0.00D+00.
 FoFDir/FoFCou used for L=0 through L=3.
 End of G2Drv Frequency-dependent properties file   721 does not exist.
 End of G2Drv Frequency-dependent properties file   722 does not exist.
          IDoAtm=1111111111
          Differentiating once with respect to electric field.
                with respect to dipole field.
          Differentiating once with respect to nuclear coordinates.
          There are    33 degrees of freedom in the 1st order CPHF.  IDoFFX=5.
     30 vectors produced by pass  0 Test12= 3.26D-14 3.03D-09 XBig12= 6.46D+01 4.44D+00.
 AX will form    30 AO Fock derivatives at one time.
     30 vectors produced by pass  1 Test12= 3.26D-14 3.03D-09 XBig12= 1.27D+01 7.08D-01.
     30 vectors produced by pass  2 Test12= 3.26D-14 3.03D-09 XBig12= 6.10D-01 1.52D-01.
     30 vectors produced by pass  3 Test12= 3.26D-14 3.03D-09 XBig12= 1.07D-02 2.00D-02.
     30 vectors produced by pass  4 Test12= 3.26D-14 3.03D-09 XBig12= 2.08D-04 1.53D-03.
     30 vectors produced by pass  5 Test12= 3.26D-14 3.03D-09 XBig12= 3.74D-06 2.27D-04.
     30 vectors produced by pass  6 Test12= 3.26D-14 3.03D-09 XBig12= 4.05D-08 2.01D-05.
     27 vectors produced by pass  7 Test12= 3.26D-14 3.03D-09 XBig12= 4.20D-10 2.02D-06.
      7 vectors produced by pass  8 Test12= 3.26D-14 3.03D-09 XBig12= 3.04D-12 1.73D-07.
      3 vectors produced by pass  9 Test12= 3.26D-14 3.03D-09 XBig12= 2.19D-14 1.44D-08.
 Inverted reduced A of dimension   247 with in-core refinement.
 Isotropic polarizability for W=    0.000000       46.55 Bohr**3.
 End of Minotr Frequency-dependent properties file   721 does not exist.
 End of Minotr Frequency-dependent properties file   722 does not exist.
 Calling FoFJK, ICntrl=    100127 FMM=F ISym2X=0 I1Cent= 0 IOpClX= 1 NMat=1 NMatS=1 NMatT=0.
 -------------------------------------------------------------------
 Center     Atomic                   Forces (Hartrees/Bohr)
 Number     Number              X              Y              Z
 -------------------------------------------------------------------
      1        6           0.009269293   -0.003310502    0.005119373
      2        8          -0.001072355   -0.000925911   -0.000594307
      3        8          -0.001301347    0.001145925   -0.002716009
      4        1          -0.014395877    0.004800450   -0.000532938
      5        1          -0.000803679    0.000106649   -0.000805543
      6        8          -0.000260347    0.000784204    0.000275871
      7        1          -0.000126116    0.000543964    0.000215555
      8        8           0.000145101   -0.000281463    0.006360533
      9        8           0.008939821   -0.002815302   -0.007277190
     10        1          -0.000394495   -0.000048014   -0.000045345
 -------------------------------------------------------------------
 Cartesian Forces:  Max     0.014395877 RMS     0.004283085
 IRC-IRC-IRC-IRC-IRC-IRC-IRC-IRC-IRC-IRC-IRC-IRC-IRC-IRC-IRC-IRC-IRC-IRC
 Pt  1 Step number   1 out of a maximum of  20
 CORRECTOR INTEGRATION CONVERGENCE:
   Recorrection delta-x convergence threshold:    0.010000
   Delta-x Convergence Met
 Point Number:   1          Path Number:   1
   CHANGE IN THE REACTION COORDINATE =    0.10495
   NET REACTION COORDINATE UP TO THIS POINT =    0.10495
  # OF POINTS ALONG THE PATH =   1
  # OF STEPS =   1

 Calculating another point on the path.
 IRC-IRC-IRC-IRC-IRC-IRC-IRC-IRC-IRC-IRC-IRC-IRC-IRC-IRC-IRC-IRC-IRC-IRC
                          Input orientation:                          
 ---------------------------------------------------------------------
 Center     Atomic      Atomic             Coordinates (Angstroms)
 Number     Number       Type             X           Y           Z
 ---------------------------------------------------------------------
      1          6           0       -0.725730    0.723592    0.507389
      2          8           0       -1.516986   -0.466001    0.306814
      3          8           0       -0.500259    1.417590   -0.615249
      4          1           0        0.376657    0.311541    0.916456
      5          1           0       -1.231064    1.300235    1.277063
      6          8           0       -0.879017   -1.341681   -0.411755
      7          1           0        0.208387    0.984450   -1.117785
      8          8           0        1.803121   -0.142774   -0.519615
      9          8           0        1.583288   -0.108546    0.839766
     10          1           0        1.508193   -1.032238   -0.768210
 ---------------------------------------------------------------------
                    Distance matrix (angstroms):
                    1          2          3          4          5
     1  C    0.000000
     2  O    1.442723   0.000000
     3  O    1.338950   2.330633   0.000000
     4  H    1.245946   2.135912   2.082894   0.000000
     5  H    1.086406   2.035369   2.031919   1.921541   0.000000
     6  O    2.265761   1.300062   2.792569   2.464549   3.155275
     7  H    1.892568   2.666497   0.970738   2.149247   2.811946
     8  O    2.863637   3.436651   2.783781   2.074488   3.810066
     9  O    2.476791   3.165993   2.964342   1.279965   3.177494
    10  H    3.114563   3.260062   3.171581   2.433970   4.138489
                    6          7          8          9         10
     6  O    0.000000
     7  H    2.663046   0.000000
     8  O    2.939877   2.042454   0.000000
     9  O    3.024876   2.630019   1.377467   0.000000
    10  H    2.433431   2.424609   0.969498   1.855918   0.000000
 Symmetry turned off by external request.
 Stoichiometry    CH4O5(3)
 Framework group  C1[X(CH4O5)]
 Deg. of freedom    24
 Full point group                 C1      NOp   1
 Rotational constants (GHZ):      4.6700705      2.6749791      2.1899478
 Standard basis: 6-311+G(2df,2p) (5D, 7F)
 Integral buffers will be    131072 words long.
 Raffenetti 2 integral format.
 Two-electron integral symmetry is turned off.
   240 basis functions,   356 primitive gaussians,   270 cartesian basis functions
    26 alpha electrons       24 beta electrons
       nuclear repulsion energy       261.7793798122 Hartrees.
 NAtoms=   10 NActive=   10 NUniq=   10 SFac= 1.00D+00 NAtFMM=   50 NAOKFM=F Big=F
 One-electron integrals computed using PRISM.
 NBasis=   240 RedAO= T  NBF=   240
 NBsUse=   240 1.00D-06 NBFU=   240
 Initial guess read from the read-write file.
 B after Tr=     0.000000    0.000000    0.000000
         Rot=    1.000000    0.000000    0.000000    0.000000 Ang=   0.00 deg.
 Initial guess <Sx>= 0.0000 <Sy>= 0.0000 <Sz>= 1.0000 <S**2>= 2.0142 S= 1.0047
 Harris functional with IExCor= 1009 diagonalized for initial guess.
 ExpMin= 4.38D-02 ExpMax= 8.59D+03 ExpMxC= 1.30D+03 IAcc=2 IRadAn=         0 AccDes= 0.00D+00
 HarFok:  IExCor= 1009 AccDes= 0.00D+00 IRadAn=         0 IDoV= 1
 ScaDFX=  1.000000  1.000000  1.000000  1.000000
 FoFCou: FMM=F IPFlag=           0 FMFlag=      100000 FMFlg1=           0
         NFxFlg=           0 DoJE=T BraDBF=F KetDBF=T FulRan=T
         Omega=  0.000000  0.000000  1.000000  0.000000  0.000000 ICntrl=     500 IOpCl=  0
         NMat0=    1 NMatS0=    1 NMatT0=    0 NMatD0=    1 NMtDS0=    0 NMtDT0=    0
         I1Cent=           4 NGrid=           0.
 Symmetry not used in FoFCou.
 Requested convergence on RMS density matrix=1.00D-08 within 128 cycles.
 Requested convergence on MAX density matrix=1.00D-06.
 Requested convergence on             energy=1.00D-06.
 No special actions if energy rises.
 SCF Done:  E(UM062X) =  -416.305777777     A.U. after   18 cycles
             Convg  =    0.2760D-08             -V/T =  2.0027
 <Sx>= 0.0000 <Sy>= 0.0000 <Sz>= 1.0000 <S**2>= 2.0135 S= 1.0045
 <L.S>= 0.000000000000E+00
 Annihilation of the first spin contaminant:
 S**2 before annihilation     2.0135,   after     2.0001
 Range of M.O.s used for correlation:     1   240
 NBasis=   240 NAE=    26 NBE=    24 NFC=     0 NFV=     0
 NROrb=    240 NOA=    26 NOB=    24 NVA=   214 NVB=   216

 **** Warning!!: The largest alpha MO coefficient is  0.17441540D+02


 **** Warning!!: The largest beta MO coefficient is  0.16716334D+02

 Symmetrizing basis deriv contribution to polar:
 IMax=3 JMax=2 DiffMx= 0.00D+00
 G2DrvN: will do    11 centers at a time, making    1 passes doing MaxLOS=3.
 Calling FoFCou, ICntrl=  3107 FMM=F I1Cent=   0 AccDes= 0.00D+00.
 FoFDir/FoFCou used for L=0 through L=3.
 End of G2Drv Frequency-dependent properties file   721 does not exist.
 End of G2Drv Frequency-dependent properties file   722 does not exist.
          IDoAtm=1111111111
          Differentiating once with respect to electric field.
                with respect to dipole field.
          Differentiating once with respect to nuclear coordinates.
          There are    33 degrees of freedom in the 1st order CPHF.  IDoFFX=5.
     30 vectors produced by pass  0 Test12= 3.26D-14 3.03D-09 XBig12= 6.30D+01 4.62D+00.
 AX will form    30 AO Fock derivatives at one time.
     30 vectors produced by pass  1 Test12= 3.26D-14 3.03D-09 XBig12= 1.19D+01 7.11D-01.
     30 vectors produced by pass  2 Test12= 3.26D-14 3.03D-09 XBig12= 5.50D-01 1.61D-01.
     30 vectors produced by pass  3 Test12= 3.26D-14 3.03D-09 XBig12= 9.49D-03 1.90D-02.
     30 vectors produced by pass  4 Test12= 3.26D-14 3.03D-09 XBig12= 1.92D-04 1.66D-03.
     30 vectors produced by pass  5 Test12= 3.26D-14 3.03D-09 XBig12= 3.61D-06 2.50D-04.
     30 vectors produced by pass  6 Test12= 3.26D-14 3.03D-09 XBig12= 4.01D-08 2.07D-05.
     27 vectors produced by pass  7 Test12= 3.26D-14 3.03D-09 XBig12= 4.44D-10 2.65D-06.
      7 vectors produced by pass  8 Test12= 3.26D-14 3.03D-09 XBig12= 3.43D-12 1.74D-07.
      3 vectors produced by pass  9 Test12= 3.26D-14 3.03D-09 XBig12= 2.40D-14 1.75D-08.
 Inverted reduced A of dimension   247 with in-core refinement.
 Isotropic polarizability for W=    0.000000       46.40 Bohr**3.
 End of Minotr Frequency-dependent properties file   721 does not exist.
 End of Minotr Frequency-dependent properties file   722 does not exist.
 Calling FoFJK, ICntrl=    100127 FMM=F ISym2X=0 I1Cent= 0 IOpClX= 1 NMat=1 NMatS=1 NMatT=0.
 -------------------------------------------------------------------
 Center     Atomic                   Forces (Hartrees/Bohr)
 Number     Number              X              Y              Z
 -------------------------------------------------------------------
      1        6           0.015805700   -0.005656627    0.010056263
      2        8          -0.002467073   -0.001990715   -0.001260637
      3        8          -0.002687319    0.002614607   -0.005673895
      4        1          -0.026357284    0.008728329   -0.000652881
      5        1          -0.001867308    0.000271975   -0.001718889
      6        8          -0.000371259    0.001587347    0.000574370
      7        1          -0.000232544    0.001072875    0.000395214
      8        8           0.000135496   -0.000688039    0.013265517
      9        8           0.018825213   -0.005893013   -0.014902839
     10        1          -0.000783621   -0.000046739   -0.000082223
 -------------------------------------------------------------------
 Cartesian Forces:  Max     0.026357284 RMS     0.008188031
 IRC-IRC-IRC-IRC-IRC-IRC-IRC-IRC-IRC-IRC-IRC-IRC-IRC-IRC-IRC-IRC-IRC-IRC
 Pt  2 Step number   1 out of a maximum of  20
 CORRECTOR INTEGRATION CONVERGENCE:
   Recorrection delta-x convergence threshold:    0.010000
   Delta-x Convergence Met
 Point Number:   2          Path Number:   1
   CHANGE IN THE REACTION COORDINATE =    0.10491
   NET REACTION COORDINATE UP TO THIS POINT =    0.20986
  # OF POINTS ALONG THE PATH =   2
  # OF STEPS =   1

 Calculating another point on the path.
 IRC-IRC-IRC-IRC-IRC-IRC-IRC-IRC-IRC-IRC-IRC-IRC-IRC-IRC-IRC-IRC-IRC-IRC
                          Input orientation:                          
 ---------------------------------------------------------------------
 Center     Atomic      Atomic             Coordinates (Angstroms)
 Number     Number       Type             X           Y           Z
 ---------------------------------------------------------------------
      1          6           0       -0.723362    0.722747    0.509024
      2          8           0       -1.517313   -0.466257    0.306652
      3          8           0       -0.500600    1.417932   -0.615966
      4          1           0        0.327310    0.327778    0.915741
      5          1           0       -1.235018    1.300865    1.273600
      6          8           0       -0.879055   -1.341481   -0.411682
      7          1           0        0.207990    0.986562   -1.117072
      8          8           0        1.803129   -0.142870   -0.517925
      9          8           0        1.585690   -0.109294    0.837884
     10          1           0        1.506633   -1.032295   -0.768363
 ---------------------------------------------------------------------
                    Distance matrix (angstroms):
                    1          2          3          4          5
     1  C    0.000000
     2  O    1.443968   0.000000
     3  O    1.341085   2.331330   0.000000
     4  H    1.193872   2.098598   2.054263   0.000000
     5  H    1.086549   2.034060   2.030649   1.875055   0.000000
     6  O    2.265607   1.299767   2.792726   2.450265   3.154184
     7  H    1.892407   2.667272   0.969169   2.140225   2.810049
     8  O    2.861307   3.436545   2.784401   2.110675   3.811073
     9  O    2.476320   3.168320   2.966261   1.334396   3.183518
    10  H    3.112036   3.258880   3.171091   2.465118   4.138828
                    6          7          8          9         10
     6  O    0.000000
     7  H    2.664399   0.000000
     8  O    2.939740   2.044276   0.000000
     9  O    3.025668   2.630743   1.373544   0.000000
    10  H    2.431938   2.425665   0.970415   1.854241   0.000000
 Symmetry turned off by external request.
 Stoichiometry    CH4O5(3)
 Framework group  C1[X(CH4O5)]
 Deg. of freedom    24
 Full point group                 C1      NOp   1
 Rotational constants (GHZ):      4.6718736      2.6748012      2.1890960
 Standard basis: 6-311+G(2df,2p) (5D, 7F)
 Integral buffers will be    131072 words long.
 Raffenetti 2 integral format.
 Two-electron integral symmetry is turned off.
   240 basis functions,   356 primitive gaussians,   270 cartesian basis functions
    26 alpha electrons       24 beta electrons
       nuclear repulsion energy       261.8190200576 Hartrees.
 NAtoms=   10 NActive=   10 NUniq=   10 SFac= 1.00D+00 NAtFMM=   50 NAOKFM=F Big=F
 One-electron integrals computed using PRISM.
 NBasis=   240 RedAO= T  NBF=   240
 NBsUse=   240 1.00D-06 NBFU=   240
 Initial guess read from the read-write file.
 B after Tr=     0.000000    0.000000    0.000000
         Rot=    1.000000    0.000000    0.000000    0.000000 Ang=   0.00 deg.
 Initial guess <Sx>= 0.0000 <Sy>= 0.0000 <Sz>= 1.0000 <S**2>= 2.0134 S= 1.0044
 Harris functional with IExCor= 1009 diagonalized for initial guess.
 ExpMin= 4.38D-02 ExpMax= 8.59D+03 ExpMxC= 1.30D+03 IAcc=2 IRadAn=         0 AccDes= 0.00D+00
 HarFok:  IExCor= 1009 AccDes= 0.00D+00 IRadAn=         0 IDoV= 1
 ScaDFX=  1.000000  1.000000  1.000000  1.000000
 FoFCou: FMM=F IPFlag=           0 FMFlag=      100000 FMFlg1=           0
         NFxFlg=           0 DoJE=T BraDBF=F KetDBF=T FulRan=T
         Omega=  0.000000  0.000000  1.000000  0.000000  0.000000 ICntrl=     500 IOpCl=  0
         NMat0=    1 NMatS0=    1 NMatT0=    0 NMatD0=    1 NMtDS0=    0 NMtDT0=    0
         I1Cent=           4 NGrid=           0.
 Symmetry not used in FoFCou.
 Requested convergence on RMS density matrix=1.00D-08 within 128 cycles.
 Requested convergence on MAX density matrix=1.00D-06.
 Requested convergence on             energy=1.00D-06.
 No special actions if energy rises.
 SCF Done:  E(UM062X) =  -416.309212009     A.U. after   18 cycles
             Convg  =    0.2581D-08             -V/T =  2.0027
 <Sx>= 0.0000 <Sy>= 0.0000 <Sz>= 1.0000 <S**2>= 2.0124 S= 1.0041
 <L.S>= 0.000000000000E+00
 Annihilation of the first spin contaminant:
 S**2 before annihilation     2.0124,   after     2.0001
 Range of M.O.s used for correlation:     1   240
 NBasis=   240 NAE=    26 NBE=    24 NFC=     0 NFV=     0
 NROrb=    240 NOA=    26 NOB=    24 NVA=   214 NVB=   216

 **** Warning!!: The largest alpha MO coefficient is  0.17728033D+02


 **** Warning!!: The largest beta MO coefficient is  0.17110366D+02

 Symmetrizing basis deriv contribution to polar:
 IMax=3 JMax=2 DiffMx= 0.00D+00
 G2DrvN: will do    11 centers at a time, making    1 passes doing MaxLOS=3.
 Calling FoFCou, ICntrl=  3107 FMM=F I1Cent=   0 AccDes= 0.00D+00.
 FoFDir/FoFCou used for L=0 through L=3.
 End of G2Drv Frequency-dependent properties file   721 does not exist.
 End of G2Drv Frequency-dependent properties file   722 does not exist.
          IDoAtm=1111111111
          Differentiating once with respect to electric field.
                with respect to dipole field.
          Differentiating once with respect to nuclear coordinates.
          There are    33 degrees of freedom in the 1st order CPHF.  IDoFFX=5.
     30 vectors produced by pass  0 Test12= 3.26D-14 3.03D-09 XBig12= 5.79D+01 4.53D+00.
 AX will form    30 AO Fock derivatives at one time.
     30 vectors produced by pass  1 Test12= 3.26D-14 3.03D-09 XBig12= 1.04D+01 6.84D-01.
     30 vectors produced by pass  2 Test12= 3.26D-14 3.03D-09 XBig12= 5.91D-01 1.65D-01.
     30 vectors produced by pass  3 Test12= 3.26D-14 3.03D-09 XBig12= 8.22D-03 1.81D-02.
     30 vectors produced by pass  4 Test12= 3.26D-14 3.03D-09 XBig12= 1.56D-04 1.73D-03.
     30 vectors produced by pass  5 Test12= 3.26D-14 3.03D-09 XBig12= 2.88D-06 2.07D-04.
     30 vectors produced by pass  6 Test12= 3.26D-14 3.03D-09 XBig12= 3.11D-08 1.88D-05.
     26 vectors produced by pass  7 Test12= 3.26D-14 3.03D-09 XBig12= 3.25D-10 2.44D-06.
      7 vectors produced by pass  8 Test12= 3.26D-14 3.03D-09 XBig12= 2.86D-12 2.01D-07.
      3 vectors produced by pass  9 Test12= 3.26D-14 3.03D-09 XBig12= 2.48D-14 2.17D-08.
 Inverted reduced A of dimension   246 with in-core refinement.
 Isotropic polarizability for W=    0.000000       45.34 Bohr**3.
 End of Minotr Frequency-dependent properties file   721 does not exist.
 End of Minotr Frequency-dependent properties file   722 does not exist.
 Calling FoFJK, ICntrl=    100127 FMM=F ISym2X=0 I1Cent= 0 IOpClX= 1 NMat=1 NMatS=1 NMatT=0.
 -------------------------------------------------------------------
 Center     Atomic                   Forces (Hartrees/Bohr)
 Number     Number              X              Y              Z
 -------------------------------------------------------------------
      1        6           0.016015567   -0.005647125    0.012821531
      2        8          -0.003804166   -0.002949311   -0.001888308
      3        8          -0.003869099    0.003927803   -0.008048800
      4        1          -0.030574210    0.009959578    0.000503186
      5        1          -0.002965038    0.000494096   -0.002539824
      6        8          -0.000345289    0.002215015    0.000819189
      7        1          -0.000213567    0.001488745    0.000443148
      8        8          -0.000004299   -0.001216355    0.019311598
      9        8           0.026860249   -0.008286207   -0.021325172
     10        1          -0.001100149    0.000013762   -0.000096547
 -------------------------------------------------------------------
 Cartesian Forces:  Max     0.030574210 RMS     0.010413294
 IRC-IRC-IRC-IRC-IRC-IRC-IRC-IRC-IRC-IRC-IRC-IRC-IRC-IRC-IRC-IRC-IRC-IRC
 Pt  3 Step number   1 out of a maximum of  20
 CORRECTOR INTEGRATION CONVERGENCE:
   Recorrection delta-x convergence threshold:    0.010000
   Delta-x Convergence Met
 Point Number:   3          Path Number:   1
   CHANGE IN THE REACTION COORDINATE =    0.10490
   NET REACTION COORDINATE UP TO THIS POINT =    0.31476
  # OF POINTS ALONG THE PATH =   3
  # OF STEPS =   1

 Calculating another point on the path.
 IRC-IRC-IRC-IRC-IRC-IRC-IRC-IRC-IRC-IRC-IRC-IRC-IRC-IRC-IRC-IRC-IRC-IRC
                          Input orientation:                          
 ---------------------------------------------------------------------
 Center     Atomic      Atomic             Coordinates (Angstroms)
 Number     Number       Type             X           Y           Z
 ---------------------------------------------------------------------
      1          6           0       -0.721487    0.722097    0.510822
      2          8           0       -1.517760   -0.466596    0.306432
      3          8           0       -0.501042    1.418381   -0.616865
      4          1           0        0.279256    0.343280    0.918024
      5          1           0       -1.240671    1.301894    1.268992
      6          8           0       -0.879083   -1.341231   -0.411590
      7          1           0        0.207769    0.989183   -1.116379
      8          8           0        1.803121   -0.143026   -0.515725
      9          8           0        1.588729   -0.110225    0.835475
     10          1           0        1.504664   -1.032173   -0.768527
 ---------------------------------------------------------------------
                    Distance matrix (angstroms):
                    1          2          3          4          5
     1  C    0.000000
     2  O    1.445274   0.000000
     3  O    1.343534   2.332237   0.000000
     4  H    1.144902   2.063786   2.029923   0.000000
     5  H    1.086526   2.032451   2.029059   1.830928   0.000000
     6  O    2.265614   1.299404   2.792940   2.438688   3.152969
     7  H    1.892785   2.668546   0.967542   2.135672   2.808160
     8  O    2.859350   3.436407   2.785209   2.148091   3.812831
     9  O    2.476945   3.171303   2.968681   1.388237   3.191790
    10  H    3.109653   3.257371   3.170343   2.497589   4.139592
                    6          7          8          9         10
     6  O    0.000000
     7  H    2.666235   0.000000
     8  O    2.939517   2.046419   0.000000
     9  O    3.026656   2.631631   1.368496   0.000000
    10  H    2.430056   2.426689   0.971374   1.851992   0.000000
 Symmetry turned off by external request.
 Stoichiometry    CH4O5(3)
 Framework group  C1[X(CH4O5)]
 Deg. of freedom    24
 Full point group                 C1      NOp   1
 Rotational constants (GHZ):      4.6738452      2.6740615      2.1876095
 Standard basis: 6-311+G(2df,2p) (5D, 7F)
 Integral buffers will be    131072 words long.
 Raffenetti 2 integral format.
 Two-electron integral symmetry is turned off.
   240 basis functions,   356 primitive gaussians,   270 cartesian basis functions
    26 alpha electrons       24 beta electrons
       nuclear repulsion energy       261.8695382948 Hartrees.
 NAtoms=   10 NActive=   10 NUniq=   10 SFac= 1.00D+00 NAtFMM=   50 NAOKFM=F Big=F
 One-electron integrals computed using PRISM.
 NBasis=   240 RedAO= T  NBF=   240
 NBsUse=   240 1.00D-06 NBFU=   240
 Initial guess read from the read-write file.
 B after Tr=     0.000000    0.000000    0.000000
         Rot=    1.000000    0.000000    0.000000    0.000000 Ang=   0.00 deg.
 Initial guess <Sx>= 0.0000 <Sy>= 0.0000 <Sz>= 1.0000 <S**2>= 2.0123 S= 1.0041
 Harris functional with IExCor= 1009 diagonalized for initial guess.
 ExpMin= 4.38D-02 ExpMax= 8.59D+03 ExpMxC= 1.30D+03 IAcc=2 IRadAn=         0 AccDes= 0.00D+00
 HarFok:  IExCor= 1009 AccDes= 0.00D+00 IRadAn=         0 IDoV= 1
 ScaDFX=  1.000000  1.000000  1.000000  1.000000
 FoFCou: FMM=F IPFlag=           0 FMFlag=      100000 FMFlg1=           0
         NFxFlg=           0 DoJE=T BraDBF=F KetDBF=T FulRan=T
         Omega=  0.000000  0.000000  1.000000  0.000000  0.000000 ICntrl=     500 IOpCl=  0
         NMat0=    1 NMatS0=    1 NMatT0=    0 NMatD0=    1 NMtDS0=    0 NMtDT0=    0
         I1Cent=           4 NGrid=           0.
 Symmetry not used in FoFCou.
 Requested convergence on RMS density matrix=1.00D-08 within 128 cycles.
 Requested convergence on MAX density matrix=1.00D-06.
 Requested convergence on             energy=1.00D-06.
 No special actions if energy rises.
 SCF Done:  E(UM062X) =  -416.312693656     A.U. after   17 cycles
             Convg  =    0.6068D-08             -V/T =  2.0026
 <Sx>= 0.0000 <Sy>= 0.0000 <Sz>= 1.0000 <S**2>= 2.0115 S= 1.0038
 <L.S>= 0.000000000000E+00
 Annihilation of the first spin contaminant:
 S**2 before annihilation     2.0115,   after     2.0001
 Range of M.O.s used for correlation:     1   240
 NBasis=   240 NAE=    26 NBE=    24 NFC=     0 NFV=     0
 NROrb=    240 NOA=    26 NOB=    24 NVA=   214 NVB=   216

 **** Warning!!: The largest alpha MO coefficient is  0.17957313D+02


 **** Warning!!: The largest beta MO coefficient is  0.17420847D+02

 Symmetrizing basis deriv contribution to polar:
 IMax=3 JMax=2 DiffMx= 0.00D+00
 G2DrvN: will do    11 centers at a time, making    1 passes doing MaxLOS=3.
 Calling FoFCou, ICntrl=  3107 FMM=F I1Cent=   0 AccDes= 0.00D+00.
 FoFDir/FoFCou used for L=0 through L=3.
 End of G2Drv Frequency-dependent properties file   721 does not exist.
 End of G2Drv Frequency-dependent properties file   722 does not exist.
          IDoAtm=1111111111
          Differentiating once with respect to electric field.
                with respect to dipole field.
          Differentiating once with respect to nuclear coordinates.
          There are    33 degrees of freedom in the 1st order CPHF.  IDoFFX=5.
     30 vectors produced by pass  0 Test12= 3.26D-14 3.03D-09 XBig12= 5.14D+01 4.20D+00.
 AX will form    30 AO Fock derivatives at one time.
     30 vectors produced by pass  1 Test12= 3.26D-14 3.03D-09 XBig12= 9.06D+00 6.20D-01.
     30 vectors produced by pass  2 Test12= 3.26D-14 3.03D-09 XBig12= 6.41D-01 1.62D-01.
     30 vectors produced by pass  3 Test12= 3.26D-14 3.03D-09 XBig12= 8.90D-03 1.72D-02.
     30 vectors produced by pass  4 Test12= 3.26D-14 3.03D-09 XBig12= 1.58D-04 1.75D-03.
     30 vectors produced by pass  5 Test12= 3.26D-14 3.03D-09 XBig12= 2.89D-06 2.31D-04.
     30 vectors produced by pass  6 Test12= 3.26D-14 3.03D-09 XBig12= 3.72D-08 1.96D-05.
     25 vectors produced by pass  7 Test12= 3.26D-14 3.03D-09 XBig12= 3.79D-10 1.70D-06.
      7 vectors produced by pass  8 Test12= 3.26D-14 3.03D-09 XBig12= 3.14D-12 2.02D-07.
      3 vectors produced by pass  9 Test12= 3.26D-14 3.03D-09 XBig12= 2.86D-14 2.00D-08.
 Inverted reduced A of dimension   245 with in-core refinement.
 Isotropic polarizability for W=    0.000000       43.97 Bohr**3.
 End of Minotr Frequency-dependent properties file   721 does not exist.
 End of Minotr Frequency-dependent properties file   722 does not exist.
 Calling FoFJK, ICntrl=    100127 FMM=F ISym2X=0 I1Cent= 0 IOpClX= 1 NMat=1 NMatS=1 NMatT=0.
 -------------------------------------------------------------------
 Center     Atomic                   Forces (Hartrees/Bohr)
 Number     Number              X              Y              Z
 -------------------------------------------------------------------
      1        6           0.008611014   -0.002748757    0.012235865
      2        8          -0.004865939   -0.003630654   -0.002369093
      3        8          -0.004671440    0.004701818   -0.009214097
      4        1          -0.025482884    0.007958092    0.003319544
      5        1          -0.003982353    0.000777156   -0.003130493
      6        8          -0.000162689    0.002628020    0.000970778
      7        1           0.000004360    0.001695192    0.000358423
      8        8          -0.000129269   -0.001863637    0.023215093
      9        8           0.031961918   -0.009698578   -0.025287436
     10        1          -0.001282717    0.000181349   -0.000098585
 -------------------------------------------------------------------
 Cartesian Forces:  Max     0.031961918 RMS     0.010743665
 IRC-IRC-IRC-IRC-IRC-IRC-IRC-IRC-IRC-IRC-IRC-IRC-IRC-IRC-IRC-IRC-IRC-IRC
 Pt  4 Step number   1 out of a maximum of  20
 CORRECTOR INTEGRATION CONVERGENCE:
   Recorrection delta-x convergence threshold:    0.010000
   Delta-x Convergence Met
 Point Number:   4          Path Number:   1
   CHANGE IN THE REACTION COORDINATE =    0.10477
   NET REACTION COORDINATE UP TO THIS POINT =    0.41953
  # OF POINTS ALONG THE PATH =   4
  # OF STEPS =   1

 Calculating another point on the path.
 IRC-IRC-IRC-IRC-IRC-IRC-IRC-IRC-IRC-IRC-IRC-IRC-IRC-IRC-IRC-IRC-IRC-IRC
                          Input orientation:                          
 ---------------------------------------------------------------------
 Center     Atomic      Atomic             Coordinates (Angstroms)
 Number     Number       Type             X           Y           Z
 ---------------------------------------------------------------------
      1          6           0       -0.720923    0.721982    0.512752
      2          8           0       -1.518452   -0.467096    0.306099
      3          8           0       -0.501677    1.419002   -0.618068
      4          1           0        0.236133    0.356419    0.928007
      5          1           0       -1.249943    1.303878    1.262138
      6          8           0       -0.879084   -1.340874   -0.411461
      7          1           0        0.208128    0.992719   -1.115748
      8          8           0        1.803104   -0.143315   -0.512595
      9          8           0        1.593105   -0.111541    0.832081
     10          1           0        1.501896   -1.031581   -0.768754
 ---------------------------------------------------------------------
                    Distance matrix (angstroms):
                    1          2          3          4          5
     1  C    0.000000
     2  O    1.446605   0.000000
     3  O    1.346350   2.333513   0.000000
     4  H    1.105455   2.035562   2.015885   0.000000
     5  H    1.086299   2.030384   2.026902   1.793807   0.000000
     6  O    2.265956   1.298911   2.793212   2.432834   3.151695
     7  H    1.894319   2.670915   0.966035   2.140700   2.806623
     8  O    2.858459   3.436252   2.786390   2.186428   3.816430
     9  O    2.480214   3.175668   2.972138   1.438597   3.204884
    10  H    3.107759   3.255219   3.168969   2.531343   4.141438
                    6          7          8          9         10
     6  O    0.000000
     7  H    2.669027   0.000000
     8  O    2.939134   2.048979   0.000000
     9  O    3.028098   2.632791   1.361346   0.000000
    10  H    2.427423   2.427351   0.972297   1.848639   0.000000
 Symmetry turned off by external request.
 Stoichiometry    CH4O5(3)
 Framework group  C1[X(CH4O5)]
 Deg. of freedom    24
 Full point group                 C1      NOp   1
 Rotational constants (GHZ):      4.6760428      2.6720613      2.1848060
 Standard basis: 6-311+G(2df,2p) (5D, 7F)
 Integral buffers will be    131072 words long.
 Raffenetti 2 integral format.
 Two-electron integral symmetry is turned off.
   240 basis functions,   356 primitive gaussians,   270 cartesian basis functions
    26 alpha electrons       24 beta electrons
       nuclear repulsion energy       261.9051152977 Hartrees.
 NAtoms=   10 NActive=   10 NUniq=   10 SFac= 1.00D+00 NAtFMM=   50 NAOKFM=F Big=F
 One-electron integrals computed using PRISM.
 NBasis=   240 RedAO= T  NBF=   240
 NBsUse=   240 1.00D-06 NBFU=   240
 Initial guess read from the read-write file.
 B after Tr=     0.000000    0.000000    0.000000
         Rot=    1.000000    0.000000    0.000000    0.000000 Ang=   0.00 deg.
 Initial guess <Sx>= 0.0000 <Sy>= 0.0000 <Sz>= 1.0000 <S**2>= 2.0115 S= 1.0038
 Harris functional with IExCor= 1009 diagonalized for initial guess.
 ExpMin= 4.38D-02 ExpMax= 8.59D+03 ExpMxC= 1.30D+03 IAcc=2 IRadAn=         0 AccDes= 0.00D+00
 HarFok:  IExCor= 1009 AccDes= 0.00D+00 IRadAn=         0 IDoV= 1
 ScaDFX=  1.000000  1.000000  1.000000  1.000000
 FoFCou: FMM=F IPFlag=           0 FMFlag=      100000 FMFlg1=           0
         NFxFlg=           0 DoJE=T BraDBF=F KetDBF=T FulRan=T
         Omega=  0.000000  0.000000  1.000000  0.000000  0.000000 ICntrl=     500 IOpCl=  0
         NMat0=    1 NMatS0=    1 NMatT0=    0 NMatD0=    1 NMtDS0=    0 NMtDT0=    0
         I1Cent=           4 NGrid=           0.
 Symmetry not used in FoFCou.
 Requested convergence on RMS density matrix=1.00D-08 within 128 cycles.
 Requested convergence on MAX density matrix=1.00D-06.
 Requested convergence on             energy=1.00D-06.
 No special actions if energy rises.
 Restarting incremental Fock formation.
 SCF Done:  E(UM062X) =  -416.315471862     A.U. after   20 cycles
             Convg  =    0.8686D-08             -V/T =  2.0025
 <Sx>= 0.0000 <Sy>= 0.0000 <Sz>= 1.0000 <S**2>= 2.0110 S= 1.0037
 <L.S>= 0.000000000000E+00
 Annihilation of the first spin contaminant:
 S**2 before annihilation     2.0110,   after     2.0001
 Range of M.O.s used for correlation:     1   240
 NBasis=   240 NAE=    26 NBE=    24 NFC=     0 NFV=     0
 NROrb=    240 NOA=    26 NOB=    24 NVA=   214 NVB=   216

 **** Warning!!: The largest alpha MO coefficient is  0.18093076D+02


 **** Warning!!: The largest beta MO coefficient is  0.17603114D+02

 Symmetrizing basis deriv contribution to polar:
 IMax=3 JMax=2 DiffMx= 0.00D+00
 G2DrvN: will do    11 centers at a time, making    1 passes doing MaxLOS=3.
 Calling FoFCou, ICntrl=  3107 FMM=F I1Cent=   0 AccDes= 0.00D+00.
 FoFDir/FoFCou used for L=0 through L=3.
 End of G2Drv Frequency-dependent properties file   721 does not exist.
 End of G2Drv Frequency-dependent properties file   722 does not exist.
          IDoAtm=1111111111
          Differentiating once with respect to electric field.
                with respect to dipole field.
          Differentiating once with respect to nuclear coordinates.
          There are    33 degrees of freedom in the 1st order CPHF.  IDoFFX=5.
     30 vectors produced by pass  0 Test12= 3.26D-14 3.03D-09 XBig12= 4.54D+01 3.77D+00.
 AX will form    30 AO Fock derivatives at one time.
     30 vectors produced by pass  1 Test12= 3.26D-14 3.03D-09 XBig12= 8.95D+00 4.88D-01.
     30 vectors produced by pass  2 Test12= 3.26D-14 3.03D-09 XBig12= 6.73D-01 1.89D-01.
     30 vectors produced by pass  3 Test12= 3.26D-14 3.03D-09 XBig12= 9.43D-03 1.64D-02.
     30 vectors produced by pass  4 Test12= 3.26D-14 3.03D-09 XBig12= 1.59D-04 1.70D-03.
     30 vectors produced by pass  5 Test12= 3.26D-14 3.03D-09 XBig12= 3.16D-06 2.47D-04.
     30 vectors produced by pass  6 Test12= 3.26D-14 3.03D-09 XBig12= 4.18D-08 2.11D-05.
     26 vectors produced by pass  7 Test12= 3.26D-14 3.03D-09 XBig12= 4.11D-10 1.88D-06.
      7 vectors produced by pass  8 Test12= 3.26D-14 3.03D-09 XBig12= 3.27D-12 1.89D-07.
      3 vectors produced by pass  9 Test12= 3.26D-14 3.03D-09 XBig12= 2.88D-14 1.58D-08.
 Inverted reduced A of dimension   246 with in-core refinement.
 Isotropic polarizability for W=    0.000000       42.76 Bohr**3.
 End of Minotr Frequency-dependent properties file   721 does not exist.
 End of Minotr Frequency-dependent properties file   722 does not exist.
 Calling FoFJK, ICntrl=    100127 FMM=F ISym2X=0 I1Cent= 0 IOpClX= 1 NMat=1 NMatS=1 NMatT=0.
 -------------------------------------------------------------------
 Center     Atomic                   Forces (Hartrees/Bohr)
 Number     Number              X              Y              Z
 -------------------------------------------------------------------
      1        6          -0.003249978    0.001857274    0.009168821
      2        8          -0.005609134   -0.003939620   -0.002693079
      3        8          -0.004905398    0.004633229   -0.008903825
      4        1          -0.014916997    0.004362829    0.006782715
      5        1          -0.004870870    0.001103640   -0.003468575
      6        8           0.000143912    0.002784807    0.000982464
      7        1           0.000360464    0.001675699    0.000222031
      8        8          -0.000106004   -0.002554278    0.023992479
      9        8           0.034513427   -0.010330577   -0.025969048
     10        1          -0.001359422    0.000406998   -0.000113982
 -------------------------------------------------------------------
 Cartesian Forces:  Max     0.034513427 RMS     0.010279221
 IRC-IRC-IRC-IRC-IRC-IRC-IRC-IRC-IRC-IRC-IRC-IRC-IRC-IRC-IRC-IRC-IRC-IRC
 Pt  5 Step number   1 out of a maximum of  20
 CORRECTOR INTEGRATION CONVERGENCE:
   Recorrection delta-x convergence threshold:    0.010000
   Delta-x Convergence Met
 Point Number:   5          Path Number:   1
   CHANGE IN THE REACTION COORDINATE =    0.10411
   NET REACTION COORDINATE UP TO THIS POINT =    0.52364
  # OF POINTS ALONG THE PATH =   5
  # OF STEPS =   1

 Calculating another point on the path.
 IRC-IRC-IRC-IRC-IRC-IRC-IRC-IRC-IRC-IRC-IRC-IRC-IRC-IRC-IRC-IRC-IRC-IRC
                          Input orientation:                          
 ---------------------------------------------------------------------
 Center     Atomic      Atomic             Coordinates (Angstroms)
 Number     Number       Type             X           Y           Z
 ---------------------------------------------------------------------
      1          6           0       -0.722690    0.722813    0.514577
      2          8           0       -1.519454   -0.467773    0.305618
      3          8           0       -0.502489    1.419723   -0.619481
      4          1           0        0.206434    0.365250    0.948459
      5          1           0       -1.264228    1.307328    1.252523
      6          8           0       -0.879024   -1.340398   -0.411302
      7          1           0        0.209518    0.997080   -1.115156
      8          8           0        1.803109   -0.143802   -0.508653
      9          8           0        1.599103   -0.113327    0.827810
     10          1           0        1.498106   -1.030274   -0.769150
 ---------------------------------------------------------------------
                    Distance matrix (angstroms):
                    1          2          3          4          5
     1  C    0.000000
     2  O    1.447754   0.000000
     3  O    1.349170   2.335094   0.000000
     4  H    1.085991   2.021351   2.018148   0.000000
     5  H    1.086041   2.027992   2.024174   1.772798   0.000000
     6  O    2.266834   1.298306   2.793454   2.436475   3.150738
     7  H    1.897436   2.674647   0.965025   2.158177   2.806080
     8  O    2.859665   3.436192   2.787952   2.220739   3.823098
     9  O    2.487563   3.181778   2.976842   1.477539   3.224486
    10  H    3.106961   3.252261   3.166586   2.562438   4.145122
                    6          7          8          9         10
     6  O    0.000000
     7  H    2.672853   0.000000
     8  O    2.938564   2.051582   0.000000
     9  O    3.030217   2.634211   1.352287   0.000000
    10  H    2.423836   2.427003   0.972994   1.844254   0.000000
 Symmetry turned off by external request.
 Stoichiometry    CH4O5(3)
 Framework group  C1[X(CH4O5)]
 Deg. of freedom    24
 Full point group                 C1      NOp   1
 Rotational constants (GHZ):      4.6780776      2.6681495      2.1802688
 Standard basis: 6-311+G(2df,2p) (5D, 7F)
 Integral buffers will be    131072 words long.
 Raffenetti 2 integral format.
 Two-electron integral symmetry is turned off.
   240 basis functions,   356 primitive gaussians,   270 cartesian basis functions
    26 alpha electrons       24 beta electrons
       nuclear repulsion energy       261.8808197343 Hartrees.
 NAtoms=   10 NActive=   10 NUniq=   10 SFac= 1.00D+00 NAtFMM=   50 NAOKFM=F Big=F
 One-electron integrals computed using PRISM.
 NBasis=   240 RedAO= T  NBF=   240
 NBsUse=   240 1.00D-06 NBFU=   240
 Initial guess read from the read-write file.
 B after Tr=     0.000000    0.000000    0.000000
         Rot=    1.000000    0.000000    0.000000    0.000000 Ang=   0.00 deg.
 Initial guess <Sx>= 0.0000 <Sy>= 0.0000 <Sz>= 1.0000 <S**2>= 2.0110 S= 1.0037
 Harris functional with IExCor= 1009 diagonalized for initial guess.
 ExpMin= 4.38D-02 ExpMax= 8.59D+03 ExpMxC= 1.30D+03 IAcc=2 IRadAn=         0 AccDes= 0.00D+00
 HarFok:  IExCor= 1009 AccDes= 0.00D+00 IRadAn=         0 IDoV= 1
 ScaDFX=  1.000000  1.000000  1.000000  1.000000
 FoFCou: FMM=F IPFlag=           0 FMFlag=      100000 FMFlg1=           0
         NFxFlg=           0 DoJE=T BraDBF=F KetDBF=T FulRan=T
         Omega=  0.000000  0.000000  1.000000  0.000000  0.000000 ICntrl=     500 IOpCl=  0
         NMat0=    1 NMatS0=    1 NMatT0=    0 NMatD0=    1 NMtDS0=    0 NMtDT0=    0
         I1Cent=           4 NGrid=           0.
 Symmetry not used in FoFCou.
 Requested convergence on RMS density matrix=1.00D-08 within 128 cycles.
 Requested convergence on MAX density matrix=1.00D-06.
 Requested convergence on             energy=1.00D-06.
 No special actions if energy rises.
 Restarting incremental Fock formation.
 SCF Done:  E(UM062X) =  -416.317598352     A.U. after   20 cycles
             Convg  =    0.5252D-08             -V/T =  2.0024
 <Sx>= 0.0000 <Sy>= 0.0000 <Sz>= 1.0000 <S**2>= 2.0107 S= 1.0036
 <L.S>= 0.000000000000E+00
 Annihilation of the first spin contaminant:
 S**2 before annihilation     2.0107,   after     2.0001
 Range of M.O.s used for correlation:     1   240
 NBasis=   240 NAE=    26 NBE=    24 NFC=     0 NFV=     0
 NROrb=    240 NOA=    26 NOB=    24 NVA=   214 NVB=   216

 **** Warning!!: The largest alpha MO coefficient is  0.18100621D+02


 **** Warning!!: The largest beta MO coefficient is  0.17615489D+02

 Symmetrizing basis deriv contribution to polar:
 IMax=3 JMax=2 DiffMx= 0.00D+00
[...]
 Alpha virt. eigenvalues --    0.25020   0.27440   0.28033   0.29268   0.30442
 Alpha virt. eigenvalues --    0.30998   0.32215   0.33117   0.33761   0.36676
 Alpha virt. eigenvalues --    0.38667   0.42431   0.48380   0.52633   0.53905
 Alpha virt. eigenvalues --    0.59561   0.60202   0.60814   0.64578   0.67493
 Alpha virt. eigenvalues --    0.71400   0.74379   0.75173   0.78879   0.80042
 Alpha virt. eigenvalues --    0.89017   0.90593   0.93655   0.95496   0.96220
 Alpha virt. eigenvalues --    0.97790   1.00447   1.02800   1.04535   1.05608
 Alpha virt. eigenvalues --    1.07715   1.09418   1.10267   1.11638   1.12693
 Alpha virt. eigenvalues --    1.14666   1.16611   1.18442   1.20543   1.23362
 Alpha virt. eigenvalues --    1.24309   1.29262   1.32605   1.37380   1.41445
 Alpha virt. eigenvalues --    1.42686   1.46834   1.49536   1.52740   1.53894
 Alpha virt. eigenvalues --    1.55913   1.60372   1.60706   1.62829   1.63587
 Alpha virt. eigenvalues --    1.68304   1.73588   1.76109   1.85274   1.86658
 Alpha virt. eigenvalues --    1.95258   1.96750   2.02108   2.03795   2.08734
 Alpha virt. eigenvalues --    2.16637   2.17266   2.19607   2.23433   2.25719
 Alpha virt. eigenvalues --    2.28327   2.34799   2.38123   2.38681   2.42892
 Alpha virt. eigenvalues --    2.54963   2.56625   2.59373   2.74760   2.77098
 Alpha virt. eigenvalues --    2.88932   3.00582   3.08046   3.08582   3.19171
 Alpha virt. eigenvalues --    3.27132   3.29412   3.34137   3.39862   3.44431
 Alpha virt. eigenvalues --    3.47682   3.55594   3.61299   3.65009   3.66898
 Alpha virt. eigenvalues --    3.72043   3.74108   3.78392   3.80776   3.83678
 Alpha virt. eigenvalues --    3.95246   4.03038   4.14626   4.19217   4.21817
 Alpha virt. eigenvalues --    4.30665   4.32873   4.47052   4.56111   4.60147
 Alpha virt. eigenvalues --    4.63312   4.68549   4.72700   4.76080   4.76822
 Alpha virt. eigenvalues --    4.86627   4.92519   4.98008   4.98078   4.98781
 Alpha virt. eigenvalues --    5.03374   5.08512   5.09899   5.11298   5.11659
 Alpha virt. eigenvalues --    5.13665   5.16884   5.17407   5.19984   5.21081
 Alpha virt. eigenvalues --    5.25418   5.26406   5.28230   5.30265   5.32768
 Alpha virt. eigenvalues --    5.35853   5.37558   5.42803   5.49416   5.50818
 Alpha virt. eigenvalues --    5.55586   5.56809   5.61875   5.66971   5.68603
 Alpha virt. eigenvalues --    5.98129   6.00532   6.04403   6.17676   6.25512
 Alpha virt. eigenvalues --    6.34473   6.49021   6.63753   6.68253   6.73581
 Alpha virt. eigenvalues --    6.76586   6.80866   6.83196   6.86230   6.89333
 Alpha virt. eigenvalues --    6.91753   6.95436   6.98455   7.01814   7.02430
 Alpha virt. eigenvalues --    7.08171   7.09033   7.11157   7.18355   7.23233
 Alpha virt. eigenvalues --    7.26039   7.27381   7.30228   7.33402   7.43268
 Alpha virt. eigenvalues --    7.46586   7.48790   7.58894   7.65806   7.71539
 Alpha virt. eigenvalues --    7.85900   7.90198   7.94370  24.44958  49.93138
 Alpha virt. eigenvalues --   49.99264  50.00939  50.03245  50.13147
  Beta  occ. eigenvalues --  -19.77011 -19.72520 -19.70377 -19.69398 -19.68711
  Beta  occ. eigenvalues --  -10.67935  -1.34483  -1.27656  -1.22509  -1.01920
  Beta  occ. eigenvalues --   -0.98670  -0.76900  -0.67421  -0.63857  -0.62570
  Beta  occ. eigenvalues --   -0.60779  -0.56198  -0.53327  -0.51633  -0.51455
  Beta  occ. eigenvalues --   -0.45809  -0.40930  -0.39232  -0.37631
  Beta virt. eigenvalues --   -0.11538  -0.05392   0.01476   0.01855   0.04454
  Beta virt. eigenvalues --    0.04786   0.06880   0.09858   0.12075   0.15255
  Beta virt. eigenvalues --    0.16433   0.17472   0.18078   0.18380   0.19846
  Beta virt. eigenvalues --    0.20278   0.20997   0.21638   0.23066   0.23685
  Beta virt. eigenvalues --    0.24217   0.24770   0.25261   0.27755   0.29106
  Beta virt. eigenvalues --    0.29762   0.30600   0.32086   0.32307   0.33349
  Beta virt. eigenvalues --    0.34049   0.37272   0.38812   0.42618   0.48893
  Beta virt. eigenvalues --    0.53687   0.54200   0.60077   0.60982   0.61396
  Beta virt. eigenvalues --    0.66129   0.68334   0.71945   0.74983   0.75341
  Beta virt. eigenvalues --    0.79331   0.80271   0.89263   0.91260   0.93972
  Beta virt. eigenvalues --    0.95659   0.96984   0.98286   1.00978   1.04164
  Beta virt. eigenvalues --    1.05064   1.06228   1.08728   1.10613   1.12089
  Beta virt. eigenvalues --    1.12578   1.13096   1.14941   1.17364   1.19010
  Beta virt. eigenvalues --    1.21206   1.23901   1.24878   1.29783   1.33139
  Beta virt. eigenvalues --    1.38318   1.42671   1.43902   1.47976   1.50884
  Beta virt. eigenvalues --    1.53182   1.54471   1.57552   1.61241   1.62012
  Beta virt. eigenvalues --    1.63196   1.65372   1.69081   1.74783   1.77194
  Beta virt. eigenvalues --    1.85926   1.87587   1.95832   1.97106   2.02778
  Beta virt. eigenvalues --    2.05197   2.10028   2.17289   2.17620   2.20860
  Beta virt. eigenvalues --    2.24892   2.26117   2.29183   2.36090   2.38763
  Beta virt. eigenvalues --    2.39115   2.43752   2.55643   2.57915   2.59963
  Beta virt. eigenvalues --    2.76026   2.77729   2.90804   3.05592   3.11485
  Beta virt. eigenvalues --    3.13201   3.24036   3.31245   3.32893   3.39034
  Beta virt. eigenvalues --    3.47495   3.49507   3.53173   3.58901   3.66195
  Beta virt. eigenvalues --    3.66615   3.68114   3.73962   3.74570   3.79373
  Beta virt. eigenvalues --    3.83161   3.87084   3.97315   4.04175   4.14887
  Beta virt. eigenvalues --    4.20893   4.24625   4.32983   4.34966   4.50306
  Beta virt. eigenvalues --    4.56133   4.61152   4.63393   4.68726   4.74371
  Beta virt. eigenvalues --    4.76199   4.77045   4.88015   4.92614   5.00825
  Beta virt. eigenvalues --    5.01540   5.04388   5.05695   5.09961   5.11419
  Beta virt. eigenvalues --    5.12520   5.13503   5.14950   5.17557   5.18106
  Beta virt. eigenvalues --    5.20931   5.21808   5.26626   5.26996   5.29133
  Beta virt. eigenvalues --    5.30995   5.33158   5.36187   5.38205   5.44246
  Beta virt. eigenvalues --    5.49553   5.51830   5.56286   5.58205   5.62908
  Beta virt. eigenvalues --    5.67558   5.69404   5.99345   6.00610   6.04705
  Beta virt. eigenvalues --    6.18768   6.27050   6.37789   6.50058   6.65739
  Beta virt. eigenvalues --    6.74736   6.78531   6.80846   6.85971   6.86533
  Beta virt. eigenvalues --    6.87364   6.89913   6.93413   6.98149   6.99773
  Beta virt. eigenvalues --    7.02828   7.04271   7.08552   7.11256   7.12162
  Beta virt. eigenvalues --    7.18866   7.26086   7.27169   7.27912   7.32692
  Beta virt. eigenvalues --    7.34927   7.43303   7.47104   7.49565   7.59361
  Beta virt. eigenvalues --    7.66002   7.72115   7.86308   7.91802   7.94545
  Beta virt. eigenvalues --   24.46331  49.92695  49.99118  50.00454  50.03079
  Beta virt. eigenvalues --   50.12808
          Condensed to atoms (all electrons):
              1          2          3          4          5          6
     1  C    5.437090   0.115796   0.141224   0.092900   0.433452  -0.064680
     2  O    0.115796   7.734159   0.004886   0.005315  -0.041449   0.180124
     3  O    0.141224   0.004886   7.923571   0.004436  -0.037433   0.008706
     4  H    0.092900   0.005315   0.004436   0.442925  -0.011559  -0.003873
     5  H    0.433452  -0.041449  -0.037433  -0.011559   0.447434   0.006334
     6  O   -0.064680   0.180124   0.008706  -0.003873   0.006334   8.021372
     7  H   -0.020127  -0.010982   0.264518  -0.007388   0.004731   0.013505
     8  O    0.046483   0.001748  -0.044889  -0.082146   0.000556  -0.023152
     9  O   -0.094287   0.009467   0.018807   0.262495   0.003955   0.013555
    10  H   -0.003096  -0.005628   0.006190   0.010886  -0.000168   0.012421
              7          8          9         10
     1  C   -0.020127   0.046483  -0.094287  -0.003096
     2  O   -0.010982   0.001748   0.009467  -0.005628
     3  O    0.264518  -0.044889   0.018807   0.006190
     4  H   -0.007388  -0.082146   0.262495   0.010886
     5  H    0.004731   0.000556   0.003955  -0.000168
     6  O    0.013505  -0.023152   0.013555   0.012421
     7  H    0.401620   0.035679   0.003147  -0.005384
     8  O    0.035679   7.963017   0.094866   0.205665
     9  O    0.003147   0.094866   8.035690  -0.021600
    10  H   -0.005384   0.205665  -0.021600   0.545109
 Mulliken atomic charges:
              1
     1  C   -0.084755
     2  O    0.006564
     3  O   -0.290014
     4  H    0.286009
     5  H    0.194146
     6  O   -0.164313
     7  H    0.320681
     8  O   -0.197826
     9  O   -0.326097
    10  H    0.255605
 Sum of Mulliken atomic charges =   0.00000
 Mulliken charges with hydrogens summed into heavy atoms:
              1
     1  C    0.109391
     2  O    0.006564
     3  O    0.030667
     6  O   -0.164313
     8  O    0.057778
     9  O   -0.040088
 Sum of Mulliken charges with hydrogens summed into heavy atoms =   0.00000
          Atomic-Atomic Spin Densities.
              1          2          3          4          5          6
     1  C    1.176879  -0.089127  -0.179786   0.063889  -0.025666  -0.016144
     2  O   -0.089127   0.482826   0.010157  -0.006975   0.006560  -0.148440
     3  O   -0.179786   0.010157   0.231215  -0.007254   0.005138   0.001611
     4  H    0.063889  -0.006975  -0.007254  -0.067452  -0.000719  -0.001432
     5  H   -0.025666   0.006560   0.005138  -0.000719  -0.009721   0.001339
     6  O   -0.016144  -0.148440   0.001611  -0.001432   0.001339   0.907782
     7  H   -0.028014   0.000599   0.012416  -0.000221   0.000737   0.001332
     8  O    0.051271  -0.004322  -0.015748   0.009542  -0.000966  -0.002768
     9  O   -0.127397   0.010179   0.026031   0.012999   0.003345   0.006461
    10  H   -0.004829   0.000753   0.001101  -0.001185   0.000040  -0.000105
              7          8          9         10
     1  C   -0.028014   0.051271  -0.127397  -0.004829
     2  O    0.000599  -0.004322   0.010179   0.000753
     3  O    0.012416  -0.015748   0.026031   0.001101
     4  H   -0.000221   0.009542   0.012999  -0.001185
     5  H    0.000737  -0.000966   0.003345   0.000040
     6  O    0.001332  -0.002768   0.006461  -0.000105
     7  H    0.016428  -0.007940   0.007291   0.000824
     8  O   -0.007940   0.031824  -0.038253  -0.006337
     9  O    0.007291  -0.038253   0.175899   0.006147
    10  H    0.000824  -0.006337   0.006147   0.002060
 Mulliken atomic spin densities:
              1
     1  C    0.821074
     2  O    0.262210
     3  O    0.084881
     4  H    0.001191
     5  H   -0.019914
     6  O    0.749635
     7  H    0.003451
     8  O    0.016303
     9  O    0.082701
    10  H   -0.001532
 Sum of Mulliken atomic spin densities =   2.00000
 APT atomic charges:
              1
     1  C    0.774681
     2  O   -0.461033
     3  O   -0.667368
     4  H    0.237655
     5  H    0.054682
     6  O   -0.009096
     7  H    0.395701
     8  O   -0.316269
     9  O   -0.293653
    10  H    0.284701
 Sum of APT charges=   0.00000
 APT Atomic charges with hydrogens summed into heavy atoms:
              1
     1  C    0.829363
     2  O   -0.461033
     3  O   -0.271666
     4  H    0.000000
     5  H    0.000000
     6  O   -0.009096
     7  H    0.000000
     8  O   -0.031568
     9  O   -0.055998
    10  H    0.000000
 Sum of APT charges=   0.00000
 Electronic spatial extent (au):  <R**2>=            584.5341
 Charge=              0.0000 electrons
 Dipole moment (field-independent basis, Debye):
    X=             -1.1288    Y=              0.3416    Z=             -0.0959  Tot=              1.1833
 Quadrupole moment (field-independent basis, Debye-Ang):
   XX=            -40.3658   YY=            -35.5970   ZZ=            -32.0502
   XY=             -3.6124   XZ=             -4.1312   YZ=              2.9437
 Traceless Quadrupole moment (field-independent basis, Debye-Ang):
   XX=             -4.3615   YY=              0.4073   ZZ=              3.9541
   XY=             -3.6124   XZ=             -4.1312   YZ=              2.9437
 Octapole moment (field-independent basis, Debye-Ang**2):
  XXX=             -9.8315  YYY=             -7.7885  ZZZ=             -4.2394  XYY=              5.0348
  XXY=             -1.2303  XXZ=             -2.7606  XZZ=             -1.5844  YZZ=              0.4931
  YYZ=              0.8388  XYZ=             -0.3814
 Hexadecapole moment (field-independent basis, Debye-Ang**3):
 XXXX=           -396.7607 YYYY=           -200.1798 ZZZZ=            -98.4931 XXXY=             -6.8766
 XXXZ=             -6.2034 YYYX=             -3.5024 YYYZ=              5.9363 ZZZX=             -6.8653
 ZZZY=              1.7985 XXYY=            -89.0285 XXZZ=            -81.7201 YYZZ=            -46.0801
 XXYZ=              6.8357 YYXZ=             -9.4302 ZZXY=             -1.2804
 N-N= 2.599482416906D+02 E-N=-2.234737711545D+03  KE= 6.200759801554D+02
  Exact polarizability:  41.820  -3.299  41.774  -2.600   3.250  39.406
 Approx polarizability:  44.588  -4.217  47.211  -4.350   4.129  48.459
                          Isotropic Fermi Contact Couplings
        Atom                 a.u.       MegaHertz       Gauss      10(-4) cm-1
     1  C(13)              0.26595     149.49130      53.34221      49.86493
     2  O(17)              0.06518     -19.75685      -7.04974      -6.59018
     3  O(17)              0.02093      -6.34327      -2.26344      -2.11589
     4  H(1)              -0.01598     -35.70898     -12.74185     -11.91123
     5  H(1)              -0.00037      -0.82440      -0.29417      -0.27499
     6  O(17)              0.12783     -38.74425     -13.82491     -12.92369
     7  H(1)               0.00930      20.79209       7.41913       6.93549
     8  O(17)             -0.00045       0.13601       0.04853       0.04537
     9  O(17)              0.04408     -13.36026      -4.76727      -4.45650
    10  H(1)              -0.00004      -0.08586      -0.03064      -0.02864
 --------------------------------------------------------
       Center         ----  Spin Dipole Couplings  ----
                      3XX-RR        3YY-RR        3ZZ-RR
 --------------------------------------------------------
     1   Atom        0.599593     -0.276532     -0.323062
     2   Atom       -0.239229     -0.592224      0.831453
     3   Atom        0.312309     -0.290399     -0.021910
     4   Atom        0.129255     -0.056431     -0.072824
     5   Atom       -0.011935     -0.009108      0.021043
     6   Atom       -0.872822     -0.926107      1.798929
     7   Atom       -0.009650     -0.008272      0.017923
     8   Atom        0.056534     -0.004264     -0.052270
     9   Atom        0.488045     -0.205228     -0.282816
    10   Atom        0.015242     -0.008209     -0.007033
 --------------------------------------------------------
                        XY            XZ            YZ
 --------------------------------------------------------
     1   Atom       -0.447194      0.419207     -0.158374
     2   Atom       -0.198202      0.987954     -0.641367
     3   Atom       -0.214078      0.464609     -0.164684
     4   Atom       -0.063784      0.022135      0.002172
     5   Atom       -0.034494     -0.018863      0.052422
     6   Atom       -0.713731      1.545757     -1.511361
     7   Atom       -0.005906     -0.034569      0.010868
     8   Atom       -0.037137     -0.030869      0.014266
     9   Atom       -0.265311      0.076138     -0.025681
    10   Atom       -0.002265     -0.007938      0.005469
 --------------------------------------------------------


 ---------------------------------------------------------------------------------
              Anisotropic Spin Dipole Couplings in Principal Axis System
 ---------------------------------------------------------------------------------

       Atom             a.u.   MegaHertz   Gauss  10(-4) cm-1        Axes

              Baa    -0.4904   -65.806   -23.481   -21.950 -0.4605 -0.3630  0.8101
     1 C(13)  Bbb    -0.4552   -61.089   -21.798   -20.377  0.1722  0.8587  0.4827
              Bcc     0.9456   126.895    45.279    42.328  0.8708 -0.3618  0.3329
 
              Baa    -0.9597    69.444    24.779    23.164 -0.5602  0.6322  0.5353
     2 O(17)  Bbb    -0.6540    47.320    16.885    15.784  0.6790  0.7206 -0.1405
              Bcc     1.6137  -116.764   -41.664   -38.948  0.4746 -0.2848  0.8329
 
              Baa    -0.3692    26.712     9.532     8.910 -0.0889  0.8487  0.5214
     3 O(17)  Bbb    -0.3425    24.781     8.842     8.266 -0.6089 -0.4606  0.6459
              Bcc     0.7116   -51.493   -18.374   -17.176  0.7883 -0.2601  0.5577
 
              Baa    -0.0841   -44.872   -16.012   -14.968  0.2752  0.6871 -0.6724
     4 H(1)   Bbb    -0.0668   -35.659   -12.724   -11.895  0.1335  0.6653  0.7345
              Bcc     0.1509    80.531    28.736    26.862  0.9521 -0.2919  0.0914
 
              Baa    -0.0564   -30.103   -10.742   -10.041  0.4316  0.7924 -0.4311
     5 H(1)   Bbb    -0.0191   -10.203    -3.641    -3.404  0.8151 -0.1378  0.5627
              Bcc     0.0755    40.307    14.382    13.445 -0.3864  0.5943  0.7054
 
              Baa    -1.6154   116.892    41.710    38.991  0.5641  0.8187  0.1070
     6 O(17)  Bbb    -1.5700   113.604    40.537    37.894  0.7294 -0.4335 -0.5292
              Bcc     3.1854  -230.496   -82.247   -76.885  0.3868 -0.3766  0.8418
 
              Baa    -0.0331   -17.684    -6.310    -5.899  0.8217 -0.0528  0.5675
     7 H(1)   Bbb    -0.0111    -5.920    -2.112    -1.975  0.1722  0.9722 -0.1589
              Bcc     0.0442    23.604     8.423     7.874 -0.5433  0.2283  0.8079
 
              Baa    -0.0608     4.402     1.571     1.468  0.2242 -0.0973  0.9697
     8 O(17)  Bbb    -0.0219     1.581     0.564     0.528  0.4257  0.9048 -0.0076
              Bcc     0.0827    -5.984    -2.135    -1.996  0.8767 -0.4145 -0.2443
 
              Baa    -0.2951    21.354     7.620     7.123  0.3227  0.9463 -0.0217
     9 O(17)  Bbb    -0.2903    21.002     7.494     7.006 -0.0803  0.0502  0.9955
              Bcc     0.5854   -42.356   -15.114   -14.129  0.9431 -0.3195  0.0922
 
              Baa    -0.0137    -7.291    -2.602    -2.432  0.1476 -0.6690  0.7285
    10 H(1)   Bbb    -0.0047    -2.498    -0.892    -0.833  0.3233  0.7287  0.6037
              Bcc     0.0183     9.789     3.493     3.265  0.9347 -0.1464 -0.3239
 

 ---------------------------------------------------------------------------------

 -------------------------------------------------------------------
 Center     Atomic                   Forces (Hartrees/Bohr)
 Number     Number              X              Y              Z
 -------------------------------------------------------------------
      1        6          -0.009481499    0.003089037   -0.001459245
      2        8          -0.004880134   -0.000642579   -0.001599397
      3        8           0.000122231    0.000208173   -0.000368420
      4        1           0.001300594   -0.000081031    0.000826676
      5        1          -0.001341667    0.000350941   -0.000536811
      6        8           0.001832804    0.001692870    0.001372044
      7        1           0.000015642   -0.000373694    0.000398832
      8        8          -0.002207877    0.000540988   -0.000957720
      9        8           0.014349084   -0.004688479    0.002278227
     10        1           0.000290821   -0.000096226    0.000045813
 -------------------------------------------------------------------
 Cartesian Forces:  Max     0.014349084 RMS     0.003562767

 This type of calculation cannot be archived.


 ABSOLUTISM, OBSOLETISM -- IF IT WORKS, IT'S OUT OF DATE

                          -- STAFFORD BEER
 Job cpu time:  1 days 17 hours 59 minutes 44.9 seconds.
 File lengths (MBytes):  RWF=   2352 Int=      0 D2E=      0 Chk=     32 Scr=     32
 Normal termination of Gaussian 09 at Fri Aug  4 04:24:31 2017.
