 Entering Gaussian System, Link 0=/shared/apps/gaussian/G09_LINUX_LINDA/g09/g09
 Input=/gss_gpfs_scratch/harms.n/QMscratch/[O]O+[O]O_OO+[O][O].gjf
 Output=/gss_gpfs_scratch/harms.n/QMscratch/[O]O+[O]O_OO+[O][O].log
 Initial command:
 /shared/apps/gaussian/G09_LINUX_LINDA/g09/l1.exe /home/harms.n/Code/OOHabstraction/Biofuels/results/Gau-17160.inp -scrdir=/home/harms.n/Code/OOHabstraction/Biofuels/results/
 Entering Link 1 = /shared/apps/gaussian/G09_LINUX_LINDA/g09/l1.exe PID=     17161.
  
 Copyright (c) 1988,1990,1992,1993,1995,1998,2003,2009,2010,
            Gaussian, Inc.  All Rights Reserved.
  
 This is part of the Gaussian(R) 09 program.  It is based on
 the Gaussian(R) 03 system (copyright 2003, Gaussian, Inc.),
 the Gaussian(R) 98 system (copyright 1998, Gaussian, Inc.),
 the Gaussian(R) 94 system (copyright 1995, Gaussian, Inc.),
 the Gaussian 92(TM) system (copyright 1992, Gaussian, Inc.),
 the Gaussian 90(TM) system (copyright 1990, Gaussian, Inc.),
 the Gaussian 88(TM) system (copyright 1988, Gaussian, Inc.),
 the Gaussian 86(TM) system (copyright 1986, Carnegie Mellon
 University), and the Gaussian 82(TM) system (copyright 1983,
 Carnegie Mellon University). Gaussian is a federally registered
 trademark of Gaussian, Inc.
  
 This software contains proprietary and confidential information,
 including trade secrets, belonging to Gaussian, Inc.
  
 This software is provided under written license and may be
 used, copied, transmitted, or stored only in accord with that
 written license.
  
 The following legend is applicable only to US Government
 contracts under FAR:
  
                    RESTRICTED RIGHTS LEGEND
  
 Use, reproduction and disclosure by the US Government is
 subject to restrictions as set forth in subparagraphs (a)
 and (c) of the Commercial Computer Software - Restricted
 Rights clause in FAR 52.227-19.
  
 Gaussian, Inc.
 340 Quinnipiac St., Bldg. 40, Wallingford CT 06492
  
  
 ---------------------------------------------------------------
 Warning -- This program may not be used in any manner that
 competes with the business of Gaussian, Inc. or will provide
 assistance to any competitor of Gaussian, Inc.  The licensee
 of this program is prohibited from giving any competitor of
 Gaussian, Inc. access to this program.  By using this program,
 the user acknowledges that Gaussian, Inc. is engaged in the
 business of creating and licensing software in the field of
 computational chemistry and represents and warrants to the
 licensee that it is not a competitor of Gaussian, Inc. and that
 it will not use this program in any manner prohibited above.
 ---------------------------------------------------------------
  

 Cite this work as:
 Gaussian 09, Revision B.01,
 M. J. Frisch, G. W. Trucks, H. B. Schlegel, G. E. Scuseria, 
 M. A. Robb, J. R. Cheeseman, G. Scalmani, V. Barone, B. Mennucci, 
 G. A. Petersson, H. Nakatsuji, M. Caricato, X. Li, H. P. Hratchian, 
 A. F. Izmaylov, J. Bloino, G. Zheng, J. L. Sonnenberg, M. Hada, 
 M. Ehara, K. Toyota, R. Fukuda, J. Hasegawa, M. Ishida, T. Nakajima, 
 Y. Honda, O. Kitao, H. Nakai, T. Vreven, J. A. Montgomery, Jr., 
 J. E. Peralta, F. Ogliaro, M. Bearpark, J. J. Heyd, E. Brothers, 
 K. N. Kudin, V. N. Staroverov, T. Keith, R. Kobayashi, J. Normand, 
 K. Raghavachari, A. Rendell, J. C. Burant, S. S. Iyengar, J. Tomasi, 
 M. Cossi, N. Rega, J. M. Millam, M. Klene, J. E. Knox, J. B. Cross, 
 V. Bakken, C. Adamo, J. Jaramillo, R. Gomperts, R. E. Stratmann, 
 O. Yazyev, A. J. Austin, R. Cammi, C. Pomelli, J. W. Ochterski, 
 R. L. Martin, K. Morokuma, V. G. Zakrzewski, G. A. Voth, 
 P. Salvador, J. J. Dannenberg, S. Dapprich, A. D. Daniels, 
 O. Farkas, J. B. Foresman, J. V. Ortiz, J. Cioslowski, 
 and D. J. Fox, Gaussian, Inc., Wallingford CT, 2010.
 
 ******************************************
 Gaussian 09:  EM64L-G09RevB.01 12-Aug-2010
                11-May-2017 
 ******************************************
 %nprocshared=20
 Will use up to   20 processors via shared memory.
 %mem=5GB
 %chk=/gss_gpfs_scratch/harms.n/QMscratch/[O]O+[O]O_OO+[O][O]
 --------------------------------------------------------
 # m062x/6-311+g(2df,2p) opt=(ts,calcfc,noeigentest) freq
 --------------------------------------------------------
 1/5=1,10=4,11=1,14=-1,18=20,26=3,38=1/1,3;
 2/9=110,12=2,17=6,18=5,40=1/2;
 3/5=4,6=6,7=214,11=2,16=1,25=1,30=1,71=2,74=-55/1,2,3;
 4//1;
 5/5=2,38=5/2;
 8/6=4,10=90,11=11/1;
 11/6=1,8=1,9=11,15=111,16=1/1,2,10;
 10/6=1,7=6,13=1/2;
 6/7=2,8=2,9=2,10=2,28=1/1;
 7/10=1,18=20,25=1/1,2,3,16;
 1/5=1,10=4,11=1,14=-1,18=20/3(2);
 2/9=110/2;
 99//99;
 2/9=110/2;
 3/5=4,6=6,7=214,11=2,16=1,25=1,30=1,71=1,74=-55/1,2,3;
 4/5=5,16=3/1;
 5/5=2,38=5/2;
 7//1,2,3,16;
 1/5=1,11=1,14=-1,18=20/3(-5);
 2/9=110/2;
 6/7=2,8=2,9=2,10=2,19=2,28=1/1;
 99/9=1/99;
 -------------------
 [O]O+[O]O_OO+[O][O]
 -------------------
 Symbolic Z-matrix:
 Charge =  0 Multiplicity = 3
 O                    -1.24764  -0.58687  -0.0908 
 O                    -1.31344   0.66723   0.07586 
 H                    -0.20982  -0.83909  -0.03229 
 O                     1.31339   0.58242  -0.18164 
 O                     1.13859  -0.69311   0.12312 
 H                     1.0826    1.08177   0.61998 
 

 GradGradGradGradGradGradGradGradGradGradGradGradGradGradGradGradGradGrad
 Berny optimization.
 Initialization pass.
                           ----------------------------
                           !    Initial Parameters    !
                           ! (Angstroms and Degrees)  !
 --------------------------                            --------------------------
 ! Name  Definition              Value          Derivative Info.                !
 --------------------------------------------------------------------------------
 ! R1    R(1,2)                  1.2668         calculate D2E/DX2 analytically  !
 ! R2    R(1,3)                  1.0696         calculate D2E/DX2 analytically  !
 ! R3    R(3,5)                  1.3652         calculate D2E/DX2 analytically  !
 ! R4    R(4,5)                  1.323          calculate D2E/DX2 analytically  !
 ! R5    R(4,6)                  0.9722         calculate D2E/DX2 analytically  !
 ! A1    A(2,1,3)              106.059          calculate D2E/DX2 analytically  !
 ! A2    A(1,3,5)              159.9456         calculate D2E/DX2 analytically  !
 ! A3    A(5,4,6)              105.8961         calculate D2E/DX2 analytically  !
 ! A4    A(3,5,4)              101.9678         calculate D2E/DX2 analytically  !
 ! D1    D(2,1,3,5)              1.7176         calculate D2E/DX2 analytically  !
 ! D2    D(1,3,5,4)            -23.9677         calculate D2E/DX2 analytically  !
 ! D3    D(6,4,5,3)             81.2899         calculate D2E/DX2 analytically  !
 --------------------------------------------------------------------------------
 Trust Radius=3.00D-01 FncErr=1.00D-07 GrdErr=1.00D-06
 Number of steps in this run=     22 maximum allowed number of steps=    100.
 Search for a saddle point of order  1.
 GradGradGradGradGradGradGradGradGradGradGradGradGradGradGradGradGradGrad

                          Input orientation:                          
 ---------------------------------------------------------------------
 Center     Atomic      Atomic             Coordinates (Angstroms)
 Number     Number       Type             X           Y           Z
 ---------------------------------------------------------------------
      1          8           0       -1.247642   -0.586872   -0.090795
      2          8           0       -1.313438    0.667233    0.075860
      3          1           0       -0.209824   -0.839089   -0.032293
      4          8           0        1.313389    0.582417   -0.181642
      5          8           0        1.138594   -0.693114    0.123115
      6          1           0        1.082602    1.081775    0.619984
 ---------------------------------------------------------------------
                    Distance matrix (angstroms):
                    1          2          3          4          5
     1  O    0.000000
     2  O    1.266840   0.000000
     3  H    1.069627   1.870472   0.000000
     4  O    2.816801   2.640780   2.088818   0.000000
     5  O    2.398159   2.804503   1.365171   1.323030   0.000000
     6  H    2.952901   2.491771   2.405317   0.972227   1.843975
                    6
     6  H    0.000000
 Stoichiometry    H2O4(3)
 Framework group  C1[X(H2O4)]
 Deg. of freedom    12
 Full point group                 C1      NOp   1
 Largest Abelian subgroup         C1      NOp   1
 Largest concise Abelian subgroup C1      NOp   1
                         Standard orientation:                         
 ---------------------------------------------------------------------
 Center     Atomic      Atomic             Coordinates (Angstroms)
 Number     Number       Type             X           Y           Z
 ---------------------------------------------------------------------
      1          8           0       -1.247642   -0.586872   -0.090795
      2          8           0       -1.313438    0.667233    0.075860
      3          1           0       -0.209824   -0.839089   -0.032293
      4          8           0        1.313389    0.582417   -0.181642
      5          8           0        1.138594   -0.693114    0.123115
      6          1           0        1.082602    1.081775    0.619984
 ---------------------------------------------------------------------
 Rotational constants (GHZ):     17.4409729      4.8869259      3.8970296
 Standard basis: 6-311+G(2df,2p) (5D, 7F)
 There are   154 symmetry adapted basis functions of A   symmetry.
 Integral buffers will be    131072 words long.
 Raffenetti 2 integral format.
 Two-electron integral symmetry is turned on.
   154 basis functions,   230 primitive gaussians,   174 cartesian basis functions
    18 alpha electrons       16 beta electrons
       nuclear repulsion energy       124.7300230763 Hartrees.
 NAtoms=    6 NActive=    6 NUniq=    6 SFac= 1.00D+00 NAtFMM=   50 NAOKFM=F Big=F
 One-electron integrals computed using PRISM.
 NBasis=   154 RedAO= T  NBF=   154
 NBsUse=   154 1.00D-06 NBFU=   154
 Harris functional with IExCor= 1009 diagonalized for initial guess.
 ExpMin= 8.45D-02 ExpMax= 8.59D+03 ExpMxC= 1.30D+03 IAcc=2 IRadAn=         0 AccDes= 0.00D+00
 HarFok:  IExCor= 1009 AccDes= 0.00D+00 IRadAn=         0 IDoV= 1
 ScaDFX=  1.000000  1.000000  1.000000  1.000000
 FoFCou: FMM=F IPFlag=           0 FMFlag=      100000 FMFlg1=           0
         NFxFlg=           0 DoJE=T BraDBF=F KetDBF=T FulRan=T
         Omega=  0.000000  0.000000  1.000000  0.000000  0.000000 ICntrl=     500 IOpCl=  0
         NMat0=    1 NMatS0=    1 NMatT0=    0 NMatD0=    1 NMtDS0=    0 NMtDT0=    0
         I1Cent=           4 NGrid=           0.
 Petite list used in FoFCou.
 Initial guess orbital symmetries:
 Alpha Orbitals:
       Occupied  (A) (A) (A) (A) (A) (A) (A) (A) (A) (A) (A) (A)
                 (A) (A) (A) (A) (A) (A)
       Virtual   (A) (A) (A) (A) (A) (A) (A) (A) (A) (A) (A) (A)
                 (A) (A) (A) (A) (A) (A) (A) (A) (A) (A) (A) (A)
                 (A) (A) (A) (A) (A) (A) (A) (A) (A) (A) (A) (A)
                 (A) (A) (A) (A) (A) (A) (A) (A) (A) (A) (A) (A)
                 (A) (A) (A) (A) (A) (A) (A) (A) (A) (A) (A) (A)
                 (A) (A) (A) (A) (A) (A) (A) (A) (A) (A) (A) (A)
                 (A) (A) (A) (A) (A) (A) (A) (A) (A) (A) (A) (A)
                 (A) (A) (A) (A) (A) (A) (A) (A) (A) (A) (A) (A)
                 (A) (A) (A) (A) (A) (A) (A) (A) (A) (A) (A) (A)
                 (A) (A) (A) (A) (A) (A) (A) (A) (A) (A) (A) (A)
                 (A) (A) (A) (A) (A) (A) (A) (A) (A) (A) (A) (A)
                 (A) (A) (A) (A)
 Beta  Orbitals:
       Occupied  (A) (A) (A) (A) (A) (A) (A) (A) (A) (A) (A) (A)
                 (A) (A) (A) (A)
       Virtual   (A) (A) (A) (A) (A) (A) (A) (A) (A) (A) (A) (A)
                 (A) (A) (A) (A) (A) (A) (A) (A) (A) (A) (A) (A)
                 (A) (A) (A) (A) (A) (A) (A) (A) (A) (A) (A) (A)
                 (A) (A) (A) (A) (A) (A) (A) (A) (A) (A) (A) (A)
                 (A) (A) (A) (A) (A) (A) (A) (A) (A) (A) (A) (A)
                 (A) (A) (A) (A) (A) (A) (A) (A) (A) (A) (A) (A)
                 (A) (A) (A) (A) (A) (A) (A) (A) (A) (A) (A) (A)
                 (A) (A) (A) (A) (A) (A) (A) (A) (A) (A) (A) (A)
                 (A) (A) (A) (A) (A) (A) (A) (A) (A) (A) (A) (A)
                 (A) (A) (A) (A) (A) (A) (A) (A) (A) (A) (A) (A)
                 (A) (A) (A) (A) (A) (A) (A) (A) (A) (A) (A) (A)
                 (A) (A) (A) (A) (A) (A)
 The electronic state of the initial guess is 3-A.
 Initial guess <Sx>= 0.0000 <Sy>= 0.0000 <Sz>= 1.0000 <S**2>= 2.0000 S= 1.0000
 Requested convergence on RMS density matrix=1.00D-08 within 128 cycles.
 Requested convergence on MAX density matrix=1.00D-06.
 Requested convergence on             energy=1.00D-06.
 No special actions if energy rises.
 Keep R1 and R2 ints in memory in canonical form, NReq=234660103.
 Integral accuracy reduced to 1.0D-05 until final iterations.
 Initial convergence to 1.0D-05 achieved.  Increase integral accuracy.
 SCF Done:  E(UM062X) =  -301.805834478     A.U. after   25 cycles
             Convg  =    0.4545D-08             -V/T =  2.0025
 <Sx>= 0.0000 <Sy>= 0.0000 <Sz>= 1.0000 <S**2>= 2.0173 S= 1.0058
 <L.S>= 0.000000000000E+00
 Annihilation of the first spin contaminant:
 S**2 before annihilation     2.0173,   after     2.0002
 Range of M.O.s used for correlation:     1   154
 NBasis=   154 NAE=    18 NBE=    16 NFC=     0 NFV=     0
 NROrb=    154 NOA=    18 NOB=    16 NVA=   136 NVB=   138

 **** Warning!!: The largest alpha MO coefficient is  0.17659796D+02


 **** Warning!!: The largest beta MO coefficient is  0.18297825D+02

 Symmetrizing basis deriv contribution to polar:
 IMax=3 JMax=2 DiffMx= 0.00D+00
 G2DrvN: will do     7 centers at a time, making    1 passes doing MaxLOS=3.
 Calling FoFCou, ICntrl=  3107 FMM=F I1Cent=   0 AccDes= 0.00D+00.
 FoFDir/FoFCou used for L=0 through L=3.
 End of G2Drv Frequency-dependent properties file   721 does not exist.
 End of G2Drv Frequency-dependent properties file   722 does not exist.
          IDoAtm=111111
          Differentiating once with respect to nuclear coordinates.
          Keep R1 and R2 ints in memory in canonical form, NReq=233758395.
          There are    21 degrees of freedom in the 1st order CPHF.  IDoFFX=5.
     15 vectors produced by pass  0 Test12= 2.22D-10 4.76D-07 XBig12= 2.27D-01 3.52D-01.
 AX will form    15 AO Fock derivatives at one time.
     15 vectors produced by pass  1 Test12= 2.22D-10 4.76D-07 XBig12= 2.77D-02 6.58D-02.
     15 vectors produced by pass  2 Test12= 2.22D-10 4.76D-07 XBig12= 2.04D-03 1.33D-02.
     15 vectors produced by pass  3 Test12= 2.22D-10 4.76D-07 XBig12= 5.57D-05 2.52D-03.
     15 vectors produced by pass  4 Test12= 2.22D-10 4.76D-07 XBig12= 1.30D-06 1.94D-04.
     15 vectors produced by pass  5 Test12= 2.22D-10 4.76D-07 XBig12= 3.26D-08 2.89D-05.
      8 vectors produced by pass  6 Test12= 2.22D-10 4.76D-07 XBig12= 5.26D-10 5.19D-06.
      1 vectors produced by pass  7 Test12= 2.22D-10 4.76D-07 XBig12= 1.08D-11 5.96D-07.
 Inverted reduced A of dimension    99 with in-core refinement.
 End of Minotr Frequency-dependent properties file   721 does not exist.
 End of Minotr Frequency-dependent properties file   722 does not exist.

 **********************************************************************

            Population analysis using the SCF density.

 **********************************************************************

 Orbital symmetries:
 Alpha Orbitals:
       Occupied  (A) (A) (A) (A) (A) (A) (A) (A) (A) (A) (A) (A)
                 (A) (A) (A) (A) (A) (A)
       Virtual   (A) (A) (A) (A) (A) (A) (A) (A) (A) (A) (A) (A)
                 (A) (A) (A) (A) (A) (A) (A) (A) (A) (A) (A) (A)
                 (A) (A) (A) (A) (A) (A) (A) (A) (A) (A) (A) (A)
                 (A) (A) (A) (A) (A) (A) (A) (A) (A) (A) (A) (A)
                 (A) (A) (A) (A) (A) (A) (A) (A) (A) (A) (A) (A)
                 (A) (A) (A) (A) (A) (A) (A) (A) (A) (A) (A) (A)
                 (A) (A) (A) (A) (A) (A) (A) (A) (A) (A) (A) (A)
                 (A) (A) (A) (A) (A) (A) (A) (A) (A) (A) (A) (A)
                 (A) (A) (A) (A) (A) (A) (A) (A) (A) (A) (A) (A)
                 (A) (A) (A) (A) (A) (A) (A) (A) (A) (A) (A) (A)
                 (A) (A) (A) (A) (A) (A) (A) (A) (A) (A) (A) (A)
                 (A) (A) (A) (A)
 Beta  Orbitals:
       Occupied  (A) (A) (A) (A) (A) (A) (A) (A) (A) (A) (A) (A)
                 (A) (A) (A) (A)
       Virtual   (A) (A) (A) (A) (A) (A) (A) (A) (A) (A) (A) (A)
                 (A) (A) (A) (A) (A) (A) (A) (A) (A) (A) (A) (A)
                 (A) (A) (A) (A) (A) (A) (A) (A) (A) (A) (A) (A)
                 (A) (A) (A) (A) (A) (A) (A) (A) (A) (A) (A) (A)
                 (A) (A) (A) (A) (A) (A) (A) (A) (A) (A) (A) (A)
                 (A) (A) (A) (A) (A) (A) (A) (A) (A) (A) (A) (A)
                 (A) (A) (A) (A) (A) (A) (A) (A) (A) (A) (A) (A)
                 (A) (A) (A) (A) (A) (A) (A) (A) (A) (A) (A) (A)
                 (A) (A) (A) (A) (A) (A) (A) (A) (A) (A) (A) (A)
                 (A) (A) (A) (A) (A) (A) (A) (A) (A) (A) (A) (A)
                 (A) (A) (A) (A) (A) (A) (A) (A) (A) (A) (A) (A)
                 (A) (A) (A) (A) (A) (A)
 The electronic state is 3-A.
 Alpha  occ. eigenvalues --  -19.77111 -19.77079 -19.74082 -19.73017  -1.39313
 Alpha  occ. eigenvalues --   -1.35780  -1.03113  -0.98175  -0.72053  -0.66891
 Alpha  occ. eigenvalues --   -0.63243  -0.61240  -0.59360  -0.58951  -0.45044
 Alpha  occ. eigenvalues --   -0.41664  -0.39618  -0.37380
 Alpha virt. eigenvalues --    0.03224   0.06442   0.10914   0.11807   0.13215
 Alpha virt. eigenvalues --    0.15985   0.16324   0.17107   0.19342   0.20545
 Alpha virt. eigenvalues --    0.22187   0.23844   0.24817   0.25227   0.26101
 Alpha virt. eigenvalues --    0.30363   0.31345   0.33367   0.36343   0.38129
 Alpha virt. eigenvalues --    0.48633   0.57145   0.65637   0.71332   0.74046
 Alpha virt. eigenvalues --    0.78740   0.87343   0.92429   0.94753   0.97908
 Alpha virt. eigenvalues --    0.99467   1.01821   1.04323   1.06883   1.08956
 Alpha virt. eigenvalues --    1.10113   1.11867   1.16032   1.29487   1.31127
 Alpha virt. eigenvalues --    1.32583   1.37127   1.38755   1.45304   1.46625
 Alpha virt. eigenvalues --    1.53051   1.55434   1.58552   1.61030   1.67153
 Alpha virt. eigenvalues --    1.70917   1.78180   2.01868   2.03508   2.13124
 Alpha virt. eigenvalues --    2.18326   2.20946   2.23383   2.27438   2.29616
 Alpha virt. eigenvalues --    2.44581   2.46857   2.56818   2.63579   2.64696
 Alpha virt. eigenvalues --    2.83845   3.60877   3.62847   3.71812   3.83597
 Alpha virt. eigenvalues --    3.90258   4.07426   4.43568   4.47744   4.55881
 Alpha virt. eigenvalues --    4.58067   4.63092   4.65430   4.67544   4.68633
 Alpha virt. eigenvalues --    4.77553   4.80620   4.92743   4.95371   4.96045
 Alpha virt. eigenvalues --    4.98959   5.02689   5.04490   5.04801   5.08095
 Alpha virt. eigenvalues --    5.08255   5.08871   5.12717   5.13564   5.16876
 Alpha virt. eigenvalues --    5.19583   5.27099   5.27947   5.34366   5.37278
 Alpha virt. eigenvalues --    5.51351   5.55846   5.60585   5.64601   6.27032
 Alpha virt. eigenvalues --    6.28001   6.45163   6.47853   6.60494   6.67507
 Alpha virt. eigenvalues --    6.71708   6.72750   6.78515   6.80223   6.83324
 Alpha virt. eigenvalues --    6.85751   6.91088   6.94084   6.95934   6.98265
 Alpha virt. eigenvalues --    6.99578   7.19527   7.21033   7.23784   7.26585
 Alpha virt. eigenvalues --    7.35688   7.47166   7.65417   7.80215   7.84205
 Alpha virt. eigenvalues --    7.88373   7.95200  49.91972  49.95490  49.96192
 Alpha virt. eigenvalues --   50.01500
  Beta  occ. eigenvalues --  -19.76326 -19.75749 -19.72254 -19.71967  -1.35028
  Beta  occ. eigenvalues --   -1.32618  -0.99185  -0.91979  -0.68640  -0.63779
  Beta  occ. eigenvalues --   -0.57565  -0.57141  -0.51930  -0.50478  -0.39552
  Beta  occ. eigenvalues --   -0.34957
  Beta virt. eigenvalues --   -0.12881  -0.07478   0.03933   0.07007   0.11569
  Beta virt. eigenvalues --    0.12159   0.13699   0.16506   0.16747   0.17652
  Beta virt. eigenvalues --    0.20011   0.21706   0.22557   0.24144   0.25115
  Beta virt. eigenvalues --    0.26518   0.27228   0.31838   0.32092   0.33492
  Beta virt. eigenvalues --    0.36610   0.38432   0.49035   0.57863   0.66254
  Beta virt. eigenvalues --    0.71929   0.74296   0.78821   0.87607   0.93312
  Beta virt. eigenvalues --    0.95546   0.98427   1.02480   1.04690   1.05081
  Beta virt. eigenvalues --    1.09139   1.09748   1.11355   1.14147   1.17617
  Beta virt. eigenvalues --    1.31130   1.31924   1.35372   1.38747   1.40374
  Beta virt. eigenvalues --    1.46286   1.47875   1.53571   1.56469   1.60522
  Beta virt. eigenvalues --    1.63547   1.68646   1.72275   1.79184   2.02757
  Beta virt. eigenvalues --    2.04778   2.14005   2.19290   2.21651   2.24835
  Beta virt. eigenvalues --    2.28054   2.30618   2.44956   2.47481   2.57136
  Beta virt. eigenvalues --    2.64287   2.64738   2.81940   3.61418   3.63395
  Beta virt. eigenvalues --    3.72107   3.83669   3.89956   4.07276   4.46961
  Beta virt. eigenvalues --    4.49958   4.56281   4.59519   4.64000   4.66438
  Beta virt. eigenvalues --    4.67530   4.69932   4.78152   4.81079   4.95329
  Beta virt. eigenvalues --    4.98422   5.00363   5.01618   5.05253   5.06060
  Beta virt. eigenvalues --    5.08736   5.09178   5.09793   5.11331   5.14323
  Beta virt. eigenvalues --    5.15497   5.18868   5.20682   5.28619   5.29304
  Beta virt. eigenvalues --    5.35768   5.40050   5.52230   5.57160   5.61180
  Beta virt. eigenvalues --    5.65198   6.28360   6.28771   6.46883   6.51119
  Beta virt. eigenvalues --    6.68224   6.68506   6.80673   6.80925   6.82445
  Beta virt. eigenvalues --    6.84225   6.86444   6.87605   6.92986   6.97556
  Beta virt. eigenvalues --    6.98456   7.01158   7.03598   7.22358   7.24544
  Beta virt. eigenvalues --    7.27744   7.28965   7.38238   7.47220   7.66686
  Beta virt. eigenvalues --    7.80499   7.85107   7.89382   7.97409  49.91373
  Beta virt. eigenvalues --   49.94647  49.95466  50.00684
          Condensed to atoms (all electrons):
              1          2          3          4          5          6
     1  O    7.699870   0.228658   0.231414   0.011884  -0.016920  -0.002535
     2  O    0.228658   7.960645  -0.073488   0.005063   0.025342   0.008942
     3  H    0.231414  -0.073488   0.382636  -0.009443   0.069822   0.000317
     4  O    0.011884   0.005063  -0.009443   7.608831   0.168934   0.255949
     5  O   -0.016920   0.025342   0.069822   0.168934   8.120170  -0.051781
     6  H   -0.002535   0.008942   0.000317   0.255949  -0.051781   0.523532
 Mulliken atomic charges:
              1
     1  O   -0.152371
     2  O   -0.155163
     3  H    0.398742
     4  O   -0.041218
     5  O   -0.315566
     6  H    0.265575
 Sum of Mulliken atomic charges =   0.00000
 Mulliken charges with hydrogens summed into heavy atoms:
              1
     1  O    0.246371
     2  O   -0.155163
     4  O    0.224357
     5  O   -0.315566
 Sum of Mulliken charges with hydrogens summed into heavy atoms =   0.00000
          Atomic-Atomic Spin Densities.
              1          2          3          4          5          6
     1  O    0.726031  -0.239917   0.022453   0.017749  -0.028175   0.000144
     2  O   -0.239917   1.035489   0.012284  -0.039480   0.027444  -0.001053
     3  H    0.022453   0.012284  -0.094040   0.006506   0.007779   0.000877
     4  O    0.017749  -0.039480   0.006506   0.405484  -0.110803   0.001665
     5  O   -0.028175   0.027444   0.007779  -0.110803   0.586647   0.001173
     6  H    0.000144  -0.001053   0.000877   0.001665   0.001173  -0.016904
 Mulliken atomic spin densities:
              1
     1  O    0.498285
     2  O    0.794767
     3  H   -0.044142
     4  O    0.281121
     5  O    0.484066
     6  H   -0.014098
 Sum of Mulliken atomic spin densities =   2.00000
 APT atomic charges:
              1
     1  O   -0.168199
     2  O   -0.155223
     3  H    0.396902
     4  O   -0.278218
     5  O   -0.265193
     6  H    0.469932
 Sum of APT charges=   0.00000
 APT Atomic charges with hydrogens summed into heavy atoms:
              1
     1  O    0.228703
     2  O   -0.155223
     3  H    0.000000
     4  O    0.191714
     5  O   -0.265193
     6  H    0.000000
 Sum of APT charges=   0.00000
 Electronic spatial extent (au):  <R**2>=            291.2219
 Charge=              0.0000 electrons
 Dipole moment (field-independent basis, Debye):
    X=              0.8353    Y=              0.7547    Z=              1.1461  Tot=              1.6066
 Quadrupole moment (field-independent basis, Debye-Ang):
   XX=            -25.6654   YY=            -21.0658   ZZ=            -21.8520
   XY=              2.5466   XZ=              1.4755   YZ=              1.6381
 Traceless Quadrupole moment (field-independent basis, Debye-Ang):
   XX=             -2.8043   YY=              1.7953   ZZ=              1.0091
   XY=              2.5466   XZ=              1.4755   YZ=              1.6381
 Octapole moment (field-independent basis, Debye-Ang**2):
  XXX=              2.3559  YYY=              2.0630  ZZZ=              0.7031  XYY=              2.0400
  XXY=              2.0775  XXZ=              1.8634  XZZ=              0.2431  YZZ=              1.4123
  YYZ=              1.9325  XYZ=              2.1041
 Hexadecapole moment (field-independent basis, Debye-Ang**3):
 XXXX=           -230.7680 YYYY=            -68.1907 ZZZZ=            -19.7808 XXXY=              3.4482
 XXXZ=              2.6451 YYYX=              4.7613 YYYZ=              2.1655 ZZZX=              0.8764
 ZZZY=              1.6033 XXYY=            -51.2933 XXZZ=            -39.7434 YYZZ=            -15.1549
 XXYZ=              1.9676 YYXZ=              2.2926 ZZXY=              1.4762
 N-N= 1.247300230763D+02 E-N=-1.427425409134D+03  KE= 4.479807130350D+02
  Exact polarizability:   0.000   0.000   0.000   0.000   0.000   0.000
 Approx polarizability:  52.306  -4.193  39.962  -0.483   0.720  19.359
                          Isotropic Fermi Contact Couplings
        Atom                 a.u.       MegaHertz       Gauss      10(-4) cm-1
     1  O(17)              0.07097     -21.51026      -7.67539      -7.17505
     2  O(17)              0.13268     -40.21532     -14.34983     -13.41439
     3  H(1)              -0.03192     -71.33439     -25.45388     -23.79459
     4  O(17)              0.06325     -19.17110      -6.84072      -6.39479
     5  O(17)              0.07763     -23.53075      -8.39636      -7.84901
     6  H(1)              -0.00598     -13.35462      -4.76526      -4.45462
 --------------------------------------------------------
       Center         ----  Spin Dipole Couplings  ----
                      3XX-RR        3YY-RR        3ZZ-RR
 --------------------------------------------------------
     1   Atom       -0.042312     -1.380395      1.422707
     2   Atom       -0.640155     -1.828767      2.468922
     3   Atom        0.203588     -0.092212     -0.111376
     4   Atom        1.402514     -0.786431     -0.616083
     5   Atom        2.005278     -1.139561     -0.865717
     6   Atom       -0.011183     -0.010346      0.021529
 --------------------------------------------------------
                        XY            XZ            YZ
 --------------------------------------------------------
     1   Atom        0.055546     -0.057164     -0.382520
     2   Atom        0.078655     -0.280419     -0.605885
     3   Atom       -0.046008      0.016552     -0.003378
     4   Atom       -0.188462      0.568476     -0.014236
     5   Atom       -0.310533      0.889357     -0.079458
     6   Atom       -0.006004     -0.004711      0.052702
 --------------------------------------------------------


 ---------------------------------------------------------------------------------
              Anisotropic Spin Dipole Couplings in Principal Axis System
 ---------------------------------------------------------------------------------

       Atom             a.u.   MegaHertz   Gauss  10(-4) cm-1        Axes

              Baa    -1.4333   103.711    37.007    34.594 -0.0341  0.9907  0.1320
     1 O(17)  Bbb    -0.0434     3.140     1.120     1.047  0.9985  0.0282  0.0463
              Bcc     1.4767  -106.851   -38.127   -35.642 -0.0421 -0.1334  0.9902
 
              Baa    -1.9138   138.481    49.413    46.192 -0.0315  0.9904  0.1349
     2 O(17)  Bbb    -0.6648    48.103    17.164    16.045  0.9955  0.0190  0.0928
              Bcc     2.5786  -186.584   -66.578   -62.238 -0.0893 -0.1372  0.9865
 
              Baa    -0.1123   -59.925   -21.383   -19.989 -0.0417  0.0719  0.9965
     3 H(1)   Bbb    -0.0991   -52.900   -18.876   -17.646  0.1534  0.9860 -0.0647
              Bcc     0.2115   112.825    40.259    37.634  0.9873 -0.1502  0.0522
 
              Baa    -0.8215    59.446    21.212    19.829  0.1955  0.8542 -0.4818
     4 O(17)  Bbb    -0.7447    53.889    19.229    17.976 -0.1771  0.5140  0.8393
              Bcc     1.5663  -113.336   -40.441   -37.805  0.9646 -0.0788  0.2518
 
              Baa    -1.1709    84.727    30.233    28.262  0.1327  0.9825 -0.1310
     5 O(17)  Bbb    -1.1175    80.860    28.853    26.972 -0.2554  0.1616  0.9532
              Bcc     2.2884  -165.587   -59.086   -55.234  0.9577 -0.0931  0.2724
 
              Baa    -0.0496   -26.451    -9.438    -8.823  0.0530  0.8039 -0.5924
     6 H(1)   Bbb    -0.0118    -6.308    -2.251    -2.104  0.9935  0.0175  0.1127
              Bcc     0.0614    32.759    11.689    10.927 -0.1009  0.5945  0.7978
 

 ---------------------------------------------------------------------------------

 Calling FoFJK, ICntrl=    100147 FMM=F ISym2X=0 I1Cent= 0 IOpClX= 1 NMat=1 NMatS=1 NMatT=0.
 ***** Axes restored to original set *****
 -------------------------------------------------------------------
 Center     Atomic                   Forces (Hartrees/Bohr)
 Number     Number              X              Y              Z
 -------------------------------------------------------------------
      1        8          -0.000000359    0.000011363    0.000002531
      2        8           0.000015494    0.000019755   -0.000008420
      3        1          -0.000013337    0.000024548    0.000004235
      4        8          -0.000011560    0.000013795   -0.000016496
      5        8          -0.000000373   -0.000066285    0.000030038
      6        1           0.000010135   -0.000003175   -0.000011887
 -------------------------------------------------------------------
 Cartesian Forces:  Max     0.000066285 RMS     0.000020792

 GradGradGradGradGradGradGradGradGradGradGradGradGradGradGradGradGradGrad
 Berny optimization.
 Internal  Forces:  Max     0.000066571 RMS     0.000023805
 Search for a saddle point.
 Step number   1 out of a maximum of   22
 All quantities printed in internal units (Hartrees-Bohrs-Radians)
 Swaping is turned off.
 Second derivative matrix not updated -- analytic derivatives used.
 The second derivative matrix:
                          R1        R2        R3        R4        R5
           R1           0.55910
           R2           0.07555   0.23569
           R3          -0.06441   0.13169   0.03494
           R4           0.06176  -0.04686   0.04567   0.46870
           R5          -0.00767   0.00349  -0.00496   0.01835   0.49421
           A1           0.07586   0.03380   0.01611  -0.02293   0.00009
           A2          -0.01540   0.05177   0.03366  -0.00971  -0.00123
           A3           0.00392  -0.00175   0.00224   0.08064  -0.00527
           A4          -0.02516   0.03044   0.01670   0.05107  -0.00202
           D1           0.00606  -0.00987   0.00342  -0.00674   0.00230
           D2           0.00803  -0.01351   0.00306  -0.00758   0.00322
           D3           0.01233  -0.00845   0.01139  -0.00681   0.00398
                          A1        A2        A3        A4        D1
           A1           0.31009
           A2           0.06968   0.11288
           A3          -0.00244   0.00031   0.24716
           A4           0.02222   0.04613   0.01290   0.16450
           D1          -0.00999  -0.00812  -0.00514  -0.00050   0.01643
           D2          -0.01359  -0.01333  -0.00632  -0.00503   0.01364
           D3          -0.01142  -0.00094   0.00149   0.01124  -0.00372
                          D2        D3
           D2           0.01541
           D3          -0.00271   0.00439
 ITU=  0
     Eigenvalues ---   -0.06341   0.00192   0.00770   0.02910   0.06833
     Eigenvalues ---    0.14621   0.22156   0.26657   0.36984   0.48449
     Eigenvalues ---    0.51618   0.61502
 Eigenvectors required to have negative eigenvalues:
                          R3        R2        D3        R1        R4
   1                    0.80598  -0.43301  -0.26899   0.16724  -0.14724
                          D2        D1        A4        A1        A2
   1                   -0.13621  -0.11131   0.07139  -0.05232  -0.03500
 RFO step:  Lambda0=1.469718895D-09 Lambda=-3.93879684D-08.
 Linear search not attempted -- option 19 set.
 Iteration  1 RMS(Cart)=  0.00055555 RMS(Int)=  0.00000015
 Iteration  2 RMS(Cart)=  0.00000017 RMS(Int)=  0.00000000
 Variable       Old X    -DE/DX   Delta X   Delta X   Delta X     New X
                                 (Linear)    (Quad)   (Total)
    R1        2.39398   0.00000   0.00000   0.00000   0.00000   2.39398
    R2        2.02130  -0.00001   0.00000  -0.00003  -0.00003   2.02127
    R3        2.57980  -0.00001   0.00000   0.00002   0.00002   2.57982
    R4        2.50017   0.00003   0.00000   0.00010   0.00010   2.50026
    R5        1.83724   0.00000   0.00000   0.00000   0.00000   1.83725
    A1        1.85108  -0.00002   0.00000  -0.00005  -0.00005   1.85103
    A2        2.79158  -0.00002   0.00000  -0.00004  -0.00004   2.79153
    A3        1.84824   0.00000   0.00000  -0.00001  -0.00001   1.84822
    A4        1.77967  -0.00007   0.00000  -0.00042  -0.00042   1.77926
    D1        0.02998  -0.00001   0.00000   0.00027   0.00027   0.03025
    D2       -0.41831  -0.00001   0.00000  -0.00089  -0.00089  -0.41920
    D3        1.41878   0.00000   0.00000  -0.00026  -0.00026   1.41851
         Item               Value     Threshold  Converged?
 Maximum Force            0.000067     0.000450     YES
 RMS     Force            0.000024     0.000300     YES
 Maximum Displacement     0.001201     0.001800     YES
 RMS     Displacement     0.000556     0.001200     YES
 Predicted change in Energy=-1.895912D-08
 Optimization completed.
    -- Stationary point found.
                           ----------------------------
                           !   Optimized Parameters   !
                           ! (Angstroms and Degrees)  !
 --------------------------                            --------------------------
 ! Name  Definition              Value          Derivative Info.                !
 --------------------------------------------------------------------------------
 ! R1    R(1,2)                  1.2668         -DE/DX =    0.0                 !
 ! R2    R(1,3)                  1.0696         -DE/DX =    0.0                 !
 ! R3    R(3,5)                  1.3652         -DE/DX =    0.0                 !
 ! R4    R(4,5)                  1.323          -DE/DX =    0.0                 !
 ! R5    R(4,6)                  0.9722         -DE/DX =    0.0                 !
 ! A1    A(2,1,3)              106.059          -DE/DX =    0.0                 !
 ! A2    A(1,3,5)              159.9456         -DE/DX =    0.0                 !
 ! A3    A(5,4,6)              105.8961         -DE/DX =    0.0                 !
 ! A4    A(3,5,4)              101.9678         -DE/DX =   -0.0001              !
 ! D1    D(2,1,3,5)              1.7176         -DE/DX =    0.0                 !
 ! D2    D(1,3,5,4)            -23.9677         -DE/DX =    0.0                 !
 ! D3    D(6,4,5,3)             81.2899         -DE/DX =    0.0                 !
 --------------------------------------------------------------------------------
 GradGradGradGradGradGradGradGradGradGradGradGradGradGradGradGradGradGrad

                          Input orientation:                          
 ---------------------------------------------------------------------
 Center     Atomic      Atomic             Coordinates (Angstroms)
 Number     Number       Type             X           Y           Z
 ---------------------------------------------------------------------
      1          8           0       -1.247642   -0.586872   -0.090795
      2          8           0       -1.313438    0.667233    0.075860
      3          1           0       -0.209824   -0.839089   -0.032293
      4          8           0        1.313389    0.582417   -0.181642
      5          8           0        1.138594   -0.693114    0.123115
      6          1           0        1.082602    1.081775    0.619984
 ---------------------------------------------------------------------
                    Distance matrix (angstroms):
                    1          2          3          4          5
     1  O    0.000000
     2  O    1.266840   0.000000
     3  H    1.069627   1.870472   0.000000
     4  O    2.816801   2.640780   2.088818   0.000000
     5  O    2.398159   2.804503   1.365171   1.323030   0.000000
     6  H    2.952901   2.491771   2.405317   0.972227   1.843975
                    6
     6  H    0.000000
 Stoichiometry    H2O4(3)
 Framework group  C1[X(H2O4)]
 Deg. of freedom    12
 Full point group                 C1      NOp   1
 Largest Abelian subgroup         C1      NOp   1
 Largest concise Abelian subgroup C1      NOp   1
                         Standard orientation:                         
 ---------------------------------------------------------------------
 Center     Atomic      Atomic             Coordinates (Angstroms)
 Number     Number       Type             X           Y           Z
 ---------------------------------------------------------------------
      1          8           0       -1.247642   -0.586872   -0.090795
      2          8           0       -1.313438    0.667233    0.075860
      3          1           0       -0.209824   -0.839089   -0.032293
      4          8           0        1.313389    0.582417   -0.181642
      5          8           0        1.138594   -0.693114    0.123115
      6          1           0        1.082602    1.081775    0.619984
 ---------------------------------------------------------------------
 Rotational constants (GHZ):     17.4409729      4.8869259      3.8970296
 1\1\GINC-COMPUTE-3-041\FTS\UM062X\6-311+G(2df,2p)\H2O4(3)\ROOT\11-May-
 2017\0\\# m062x/6-311+g(2df,2p) opt=(ts,calcfc,noeigentest) freq\\[O]O
 +[O]O_OO+[O][O]\\0,3\O,-1.247642,-0.586872,-0.090795\O,-1.313438,0.667
 233,0.07586\H,-0.209824,-0.839089,-0.032293\O,1.313389,0.582417,-0.181
 642\O,1.138594,-0.693114,0.123115\H,1.082602,1.081775,0.619984\\Versio
 n=EM64L-G09RevB.01\State=3-A\HF=-301.8058345\S2=2.017346\S2-1=0.\S2A=2
 .000164\RMSD=4.545e-09\RMSF=2.079e-05\Dipole=0.3286451,0.2969345,0.450
 9251\Polar=0.,0.,0.,0.,0.,0.\Quadrupole=-2.0849532,1.3347367,0.7502166
 ,1.8933457,1.0969989,1.2178618\PG=C01 [X(H2O4)]\\@


 THOSE WITH THE GOLD MAKE THE RULES.

             -- PETER'S GOLDEN RULE
 Job cpu time:  0 days  0 hours 37 minutes 36.3 seconds.
 File lengths (MBytes):  RWF=     92 Int=      0 D2E=      0 Chk=     32 Scr=      1
 Normal termination of Gaussian 09 at Thu May 11 17:35:47 2017.
 Link1:  Proceeding to internal job step number  2.
 ----------------------------------------------------------------------
 #N Geom=AllCheck Guess=TCheck SCRF=Check GenChk UM062X/6-311+G(2df,2p)
  Freq
 ----------------------------------------------------------------------
 1/5=1,10=4,11=1,29=7,30=1,38=1,40=1/1,3;
 2/12=2,40=1/2;
 3/5=4,6=6,7=214,11=2,14=-4,16=1,25=1,30=1,70=2,71=2,74=-55,116=2/1,2,3;
 4/5=101/1;
 5/5=2,98=1/2;
 8/6=4,10=90,11=11/1;
 11/6=1,8=1,9=11,15=111,16=1/1,2,10;
 10/6=1/2;
 6/7=2,8=2,9=2,10=2,18=1,28=1/1;
 7/8=1,10=1,25=1/1,2,3,16;
 1/5=1,10=4,11=1,30=1/3;
 99//99;
 -------------------
 [O]O+[O]O_OO+[O][O]
 -------------------
 Redundant internal coordinates taken from checkpoint file:
 /gss_gpfs_scratch/harms.n/QMscratch/[O]O+[O]O_OO+[O][O].chk
 Charge =  0 Multiplicity = 3
 O,0,-1.247642,-0.586872,-0.090795
 O,0,-1.313438,0.667233,0.07586
 H,0,-0.209824,-0.839089,-0.032293
 O,0,1.313389,0.582417,-0.181642
 O,0,1.138594,-0.693114,0.123115
 H,0,1.082602,1.081775,0.619984
 Recover connectivity data from disk.

 GradGradGradGradGradGradGradGradGradGradGradGradGradGradGradGradGradGrad
 Berny optimization.
 Initialization pass.
                           ----------------------------
                           !    Initial Parameters    !
                           ! (Angstroms and Degrees)  !
 --------------------------                            --------------------------
 ! Name  Definition              Value          Derivative Info.                !
 --------------------------------------------------------------------------------
 ! R1    R(1,2)                  1.2668         calculate D2E/DX2 analytically  !
 ! R2    R(1,3)                  1.0696         calculate D2E/DX2 analytically  !
 ! R3    R(3,5)                  1.3652         calculate D2E/DX2 analytically  !
 ! R4    R(4,5)                  1.323          calculate D2E/DX2 analytically  !
 ! R5    R(4,6)                  0.9722         calculate D2E/DX2 analytically  !
 ! A1    A(2,1,3)              106.059          calculate D2E/DX2 analytically  !
 ! A2    A(1,3,5)              159.9456         calculate D2E/DX2 analytically  !
 ! A3    A(5,4,6)              105.8961         calculate D2E/DX2 analytically  !
 ! A4    A(3,5,4)              101.9678         calculate D2E/DX2 analytically  !
 ! D1    D(2,1,3,5)              1.7176         calculate D2E/DX2 analytically  !
 ! D2    D(1,3,5,4)            -23.9677         calculate D2E/DX2 analytically  !
 ! D3    D(6,4,5,3)             81.2899         calculate D2E/DX2 analytically  !
 --------------------------------------------------------------------------------
 Trust Radius=3.00D-01 FncErr=1.00D-07 GrdErr=1.00D-07
 Number of steps in this run=      2 maximum allowed number of steps=      2.
 Search for a saddle point of order  1.
 GradGradGradGradGradGradGradGradGradGradGradGradGradGradGradGradGradGrad

                          Input orientation:                          
 ---------------------------------------------------------------------
 Center     Atomic      Atomic             Coordinates (Angstroms)
 Number     Number       Type             X           Y           Z
 ---------------------------------------------------------------------
      1          8           0       -1.247642   -0.586872   -0.090795
      2          8           0       -1.313438    0.667233    0.075860
      3          1           0       -0.209824   -0.839089   -0.032293
      4          8           0        1.313389    0.582417   -0.181642
      5          8           0        1.138594   -0.693114    0.123115
      6          1           0        1.082602    1.081775    0.619984
 ---------------------------------------------------------------------
                    Distance matrix (angstroms):
                    1          2          3          4          5
     1  O    0.000000
     2  O    1.266840   0.000000
     3  H    1.069627   1.870472   0.000000
     4  O    2.816801   2.640780   2.088818   0.000000
     5  O    2.398159   2.804503   1.365171   1.323030   0.000000
     6  H    2.952901   2.491771   2.405317   0.972227   1.843975
                    6
     6  H    0.000000
 Stoichiometry    H2O4(3)
 Framework group  C1[X(H2O4)]
 Deg. of freedom    12
 Full point group                 C1      NOp   1
 Largest Abelian subgroup         C1      NOp   1
 Largest concise Abelian subgroup C1      NOp   1
                         Standard orientation:                         
 ---------------------------------------------------------------------
 Center     Atomic      Atomic             Coordinates (Angstroms)
 Number     Number       Type             X           Y           Z
 ---------------------------------------------------------------------
      1          8           0       -1.247642   -0.586872   -0.090795
      2          8           0       -1.313438    0.667233    0.075860
      3          1           0       -0.209824   -0.839089   -0.032293
      4          8           0        1.313389    0.582417   -0.181642
      5          8           0        1.138594   -0.693114    0.123115
      6          1           0        1.082602    1.081775    0.619984
 ---------------------------------------------------------------------
 Rotational constants (GHZ):     17.4409729      4.8869259      3.8970296
 Standard basis: 6-311+G(2df,2p) (5D, 7F)
 There are   154 symmetry adapted basis functions of A   symmetry.
 Integral buffers will be    131072 words long.
 Raffenetti 2 integral format.
 Two-electron integral symmetry is turned on.
   154 basis functions,   230 primitive gaussians,   174 cartesian basis functions
    18 alpha electrons       16 beta electrons
       nuclear repulsion energy       124.7300230763 Hartrees.
 NAtoms=    6 NActive=    6 NUniq=    6 SFac= 1.00D+00 NAtFMM=   50 NAOKFM=F Big=F
 One-electron integrals computed using PRISM.
 NBasis=   154 RedAO= T  NBF=   154
 NBsUse=   154 1.00D-06 NBFU=   154
 Initial guess read from the checkpoint file:  /gss_gpfs_scratch/harms.n/QMscratch/[O]O+[O]O_OO+[O][O].chk
 B after Tr=     0.000000    0.000000    0.000000
         Rot=    1.000000    0.000000    0.000000    0.000000 Ang=   0.00 deg.
 Initial guess orbital symmetries:
 Alpha Orbitals:
       Occupied  (A) (A) (A) (A) (A) (A) (A) (A) (A) (A) (A) (A)
                 (A) (A) (A) (A) (A) (A)
       Virtual   (A) (A) (A) (A) (A) (A) (A) (A) (A) (A) (A) (A)
                 (A) (A) (A) (A) (A) (A) (A) (A) (A) (A) (A) (A)
                 (A) (A) (A) (A) (A) (A) (A) (A) (A) (A) (A) (A)
                 (A) (A) (A) (A) (A) (A) (A) (A) (A) (A) (A) (A)
                 (A) (A) (A) (A) (A) (A) (A) (A) (A) (A) (A) (A)
                 (A) (A) (A) (A) (A) (A) (A) (A) (A) (A) (A) (A)
                 (A) (A) (A) (A) (A) (A) (A) (A) (A) (A) (A) (A)
                 (A) (A) (A) (A) (A) (A) (A) (A) (A) (A) (A) (A)
                 (A) (A) (A) (A) (A) (A) (A) (A) (A) (A) (A) (A)
                 (A) (A) (A) (A) (A) (A) (A) (A) (A) (A) (A) (A)
                 (A) (A) (A) (A) (A) (A) (A) (A) (A) (A) (A) (A)
                 (A) (A) (A) (A)
 Beta  Orbitals:
       Occupied  (A) (A) (A) (A) (A) (A) (A) (A) (A) (A) (A) (A)
                 (A) (A) (A) (A)
       Virtual   (A) (A) (A) (A) (A) (A) (A) (A) (A) (A) (A) (A)
                 (A) (A) (A) (A) (A) (A) (A) (A) (A) (A) (A) (A)
                 (A) (A) (A) (A) (A) (A) (A) (A) (A) (A) (A) (A)
                 (A) (A) (A) (A) (A) (A) (A) (A) (A) (A) (A) (A)
                 (A) (A) (A) (A) (A) (A) (A) (A) (A) (A) (A) (A)
                 (A) (A) (A) (A) (A) (A) (A) (A) (A) (A) (A) (A)
                 (A) (A) (A) (A) (A) (A) (A) (A) (A) (A) (A) (A)
                 (A) (A) (A) (A) (A) (A) (A) (A) (A) (A) (A) (A)
                 (A) (A) (A) (A) (A) (A) (A) (A) (A) (A) (A) (A)
                 (A) (A) (A) (A) (A) (A) (A) (A) (A) (A) (A) (A)
                 (A) (A) (A) (A) (A) (A) (A) (A) (A) (A) (A) (A)
                 (A) (A) (A) (A) (A) (A)
 Initial guess <Sx>= 0.0000 <Sy>= 0.0000 <Sz>= 1.0000 <S**2>= 2.0173 S= 1.0058
 Requested convergence on RMS density matrix=1.00D-08 within 128 cycles.
 Requested convergence on MAX density matrix=1.00D-06.
 Requested convergence on             energy=1.00D-06.
 No special actions if energy rises.
 Keep R1 and R2 ints in memory in canonical form, NReq=234660103.
 SCF Done:  E(UM062X) =  -301.805834478     A.U. after    1 cycles
             Convg  =    0.6617D-09             -V/T =  2.0025
 <Sx>= 0.0000 <Sy>= 0.0000 <Sz>= 1.0000 <S**2>= 2.0173 S= 1.0058
 <L.S>= 0.000000000000E+00
 Annihilation of the first spin contaminant:
 S**2 before annihilation     2.0173,   after     2.0002
 Range of M.O.s used for correlation:     1   154
 NBasis=   154 NAE=    18 NBE=    16 NFC=     0 NFV=     0
 NROrb=    154 NOA=    18 NOB=    16 NVA=   136 NVB=   138

 **** Warning!!: The largest alpha MO coefficient is  0.17659797D+02


 **** Warning!!: The largest beta MO coefficient is  0.18297827D+02

 Symmetrizing basis deriv contribution to polar:
 IMax=3 JMax=2 DiffMx= 0.00D+00
 G2DrvN: will do     7 centers at a time, making    1 passes doing MaxLOS=3.
 Calling FoFCou, ICntrl=  3107 FMM=F I1Cent=   0 AccDes= 0.00D+00.
 FoFDir/FoFCou used for L=0 through L=3.
 End of G2Drv Frequency-dependent properties file   721 does not exist.
 End of G2Drv Frequency-dependent properties file   722 does not exist.
          IDoAtm=111111
          Differentiating once with respect to electric field.
                with respect to dipole field.
          Differentiating once with respect to nuclear coordinates.
          Keep R1 and R2 ints in memory in canonical form, NReq=233758395.
          There are    21 degrees of freedom in the 1st order CPHF.  IDoFFX=5.
     18 vectors produced by pass  0 Test12= 2.22D-14 4.76D-09 XBig12= 8.40D+01 8.39D+00.
 AX will form    18 AO Fock derivatives at one time.
     18 vectors produced by pass  1 Test12= 2.22D-14 4.76D-09 XBig12= 1.25D+01 6.92D-01.
     18 vectors produced by pass  2 Test12= 2.22D-14 4.76D-09 XBig12= 9.29D-01 2.68D-01.
     18 vectors produced by pass  3 Test12= 2.22D-14 4.76D-09 XBig12= 2.02D-02 2.30D-02.
     18 vectors produced by pass  4 Test12= 2.22D-14 4.76D-09 XBig12= 4.05D-04 3.12D-03.
     18 vectors produced by pass  5 Test12= 2.22D-14 4.76D-09 XBig12= 7.51D-06 4.16D-04.
     18 vectors produced by pass  6 Test12= 2.22D-14 4.76D-09 XBig12= 1.34D-07 5.70D-05.
     18 vectors produced by pass  7 Test12= 2.22D-14 4.76D-09 XBig12= 1.18D-09 4.88D-06.
      6 vectors produced by pass  8 Test12= 2.22D-14 4.76D-09 XBig12= 1.22D-11 5.52D-07.
      3 vectors produced by pass  9 Test12= 2.22D-14 4.76D-09 XBig12= 9.39D-14 3.66D-08.
 Inverted reduced A of dimension   153 with in-core refinement.
 Isotropic polarizability for W=    0.000000       35.42 Bohr**3.
 End of Minotr Frequency-dependent properties file   721 does not exist.
 End of Minotr Frequency-dependent properties file   722 does not exist.

 **********************************************************************

            Population analysis using the SCF density.

 **********************************************************************

 Orbital symmetries:
 Alpha Orbitals:
       Occupied  (A) (A) (A) (A) (A) (A) (A) (A) (A) (A) (A) (A)
                 (A) (A) (A) (A) (A) (A)
       Virtual   (A) (A) (A) (A) (A) (A) (A) (A) (A) (A) (A) (A)
                 (A) (A) (A) (A) (A) (A) (A) (A) (A) (A) (A) (A)
                 (A) (A) (A) (A) (A) (A) (A) (A) (A) (A) (A) (A)
                 (A) (A) (A) (A) (A) (A) (A) (A) (A) (A) (A) (A)
                 (A) (A) (A) (A) (A) (A) (A) (A) (A) (A) (A) (A)
                 (A) (A) (A) (A) (A) (A) (A) (A) (A) (A) (A) (A)
                 (A) (A) (A) (A) (A) (A) (A) (A) (A) (A) (A) (A)
                 (A) (A) (A) (A) (A) (A) (A) (A) (A) (A) (A) (A)
                 (A) (A) (A) (A) (A) (A) (A) (A) (A) (A) (A) (A)
                 (A) (A) (A) (A) (A) (A) (A) (A) (A) (A) (A) (A)
                 (A) (A) (A) (A) (A) (A) (A) (A) (A) (A) (A) (A)
                 (A) (A) (A) (A)
 Beta  Orbitals:
       Occupied  (A) (A) (A) (A) (A) (A) (A) (A) (A) (A) (A) (A)
                 (A) (A) (A) (A)
       Virtual   (A) (A) (A) (A) (A) (A) (A) (A) (A) (A) (A) (A)
                 (A) (A) (A) (A) (A) (A) (A) (A) (A) (A) (A) (A)
                 (A) (A) (A) (A) (A) (A) (A) (A) (A) (A) (A) (A)
                 (A) (A) (A) (A) (A) (A) (A) (A) (A) (A) (A) (A)
                 (A) (A) (A) (A) (A) (A) (A) (A) (A) (A) (A) (A)
                 (A) (A) (A) (A) (A) (A) (A) (A) (A) (A) (A) (A)
                 (A) (A) (A) (A) (A) (A) (A) (A) (A) (A) (A) (A)
                 (A) (A) (A) (A) (A) (A) (A) (A) (A) (A) (A) (A)
                 (A) (A) (A) (A) (A) (A) (A) (A) (A) (A) (A) (A)
                 (A) (A) (A) (A) (A) (A) (A) (A) (A) (A) (A) (A)
                 (A) (A) (A) (A) (A) (A) (A) (A) (A) (A) (A) (A)
                 (A) (A) (A) (A) (A) (A)
 The electronic state is 3-A.
 Alpha  occ. eigenvalues --  -19.77111 -19.77079 -19.74082 -19.73017  -1.39313
 Alpha  occ. eigenvalues --   -1.35780  -1.03113  -0.98175  -0.72053  -0.66891
 Alpha  occ. eigenvalues --   -0.63243  -0.61240  -0.59360  -0.58951  -0.45044
 Alpha  occ. eigenvalues --   -0.41664  -0.39618  -0.37380
 Alpha virt. eigenvalues --    0.03224   0.06442   0.10914   0.11807   0.13215
 Alpha virt. eigenvalues --    0.15985   0.16324   0.17107   0.19342   0.20545
 Alpha virt. eigenvalues --    0.22187   0.23844   0.24817   0.25227   0.26101
 Alpha virt. eigenvalues --    0.30363   0.31345   0.33367   0.36343   0.38129
 Alpha virt. eigenvalues --    0.48633   0.57145   0.65637   0.71332   0.74046
 Alpha virt. eigenvalues --    0.78740   0.87343   0.92429   0.94753   0.97908
 Alpha virt. eigenvalues --    0.99467   1.01821   1.04323   1.06883   1.08956
 Alpha virt. eigenvalues --    1.10113   1.11867   1.16032   1.29487   1.31127
 Alpha virt. eigenvalues --    1.32583   1.37127   1.38755   1.45304   1.46625
 Alpha virt. eigenvalues --    1.53051   1.55434   1.58552   1.61030   1.67153
 Alpha virt. eigenvalues --    1.70917   1.78180   2.01868   2.03508   2.13124
 Alpha virt. eigenvalues --    2.18326   2.20946   2.23383   2.27438   2.29616
 Alpha virt. eigenvalues --    2.44581   2.46857   2.56818   2.63579   2.64696
 Alpha virt. eigenvalues --    2.83845   3.60877   3.62847   3.71812   3.83597
 Alpha virt. eigenvalues --    3.90258   4.07426   4.43568   4.47744   4.55881
 Alpha virt. eigenvalues --    4.58067   4.63092   4.65430   4.67544   4.68633
 Alpha virt. eigenvalues --    4.77553   4.80620   4.92743   4.95371   4.96045
 Alpha virt. eigenvalues --    4.98959   5.02689   5.04490   5.04801   5.08095
 Alpha virt. eigenvalues --    5.08255   5.08871   5.12717   5.13564   5.16876
 Alpha virt. eigenvalues --    5.19583   5.27099   5.27947   5.34366   5.37278
 Alpha virt. eigenvalues --    5.51351   5.55846   5.60585   5.64601   6.27032
 Alpha virt. eigenvalues --    6.28001   6.45163   6.47853   6.60494   6.67507
 Alpha virt. eigenvalues --    6.71708   6.72750   6.78515   6.80223   6.83324
 Alpha virt. eigenvalues --    6.85751   6.91088   6.94084   6.95934   6.98265
 Alpha virt. eigenvalues --    6.99578   7.19527   7.21033   7.23784   7.26585
 Alpha virt. eigenvalues --    7.35688   7.47166   7.65417   7.80215   7.84205
 Alpha virt. eigenvalues --    7.88373   7.95200  49.91972  49.95490  49.96192
 Alpha virt. eigenvalues --   50.01500
  Beta  occ. eigenvalues --  -19.76326 -19.75749 -19.72254 -19.71967  -1.35028
  Beta  occ. eigenvalues --   -1.32618  -0.99185  -0.91979  -0.68640  -0.63779
  Beta  occ. eigenvalues --   -0.57565  -0.57141  -0.51930  -0.50478  -0.39552
  Beta  occ. eigenvalues --   -0.34957
  Beta virt. eigenvalues --   -0.12881  -0.07478   0.03934   0.07007   0.11569
  Beta virt. eigenvalues --    0.12159   0.13699   0.16506   0.16747   0.17652
  Beta virt. eigenvalues --    0.20011   0.21706   0.22557   0.24144   0.25115
  Beta virt. eigenvalues --    0.26518   0.27228   0.31838   0.32092   0.33492
  Beta virt. eigenvalues --    0.36610   0.38432   0.49035   0.57863   0.66254
  Beta virt. eigenvalues --    0.71929   0.74296   0.78821   0.87607   0.93312
  Beta virt. eigenvalues --    0.95546   0.98427   1.02480   1.04690   1.05081
  Beta virt. eigenvalues --    1.09139   1.09748   1.11355   1.14147   1.17617
  Beta virt. eigenvalues --    1.31130   1.31924   1.35372   1.38747   1.40374
  Beta virt. eigenvalues --    1.46286   1.47875   1.53571   1.56469   1.60522
  Beta virt. eigenvalues --    1.63547   1.68646   1.72275   1.79184   2.02757
  Beta virt. eigenvalues --    2.04778   2.14005   2.19290   2.21651   2.24835
  Beta virt. eigenvalues --    2.28054   2.30618   2.44956   2.47481   2.57136
  Beta virt. eigenvalues --    2.64287   2.64738   2.81940   3.61418   3.63395
  Beta virt. eigenvalues --    3.72107   3.83669   3.89956   4.07276   4.46961
  Beta virt. eigenvalues --    4.49958   4.56281   4.59519   4.64000   4.66438
  Beta virt. eigenvalues --    4.67530   4.69932   4.78152   4.81079   4.95329
  Beta virt. eigenvalues --    4.98422   5.00363   5.01618   5.05253   5.06060
  Beta virt. eigenvalues --    5.08736   5.09178   5.09793   5.11331   5.14323
  Beta virt. eigenvalues --    5.15497   5.18868   5.20682   5.28619   5.29304
  Beta virt. eigenvalues --    5.35768   5.40050   5.52230   5.57160   5.61180
  Beta virt. eigenvalues --    5.65198   6.28360   6.28771   6.46883   6.51119
  Beta virt. eigenvalues --    6.68224   6.68506   6.80673   6.80925   6.82445
  Beta virt. eigenvalues --    6.84225   6.86444   6.87605   6.92986   6.97556
  Beta virt. eigenvalues --    6.98456   7.01158   7.03598   7.22358   7.24544
  Beta virt. eigenvalues --    7.27744   7.28965   7.38238   7.47220   7.66686
  Beta virt. eigenvalues --    7.80499   7.85107   7.89382   7.97409  49.91373
  Beta virt. eigenvalues --   49.94647  49.95466  50.00684
          Condensed to atoms (all electrons):
              1          2          3          4          5          6
     1  O    7.699870   0.228658   0.231414   0.011884  -0.016920  -0.002535
     2  O    0.228658   7.960645  -0.073488   0.005063   0.025342   0.008942
     3  H    0.231414  -0.073488   0.382636  -0.009443   0.069822   0.000317
     4  O    0.011884   0.005063  -0.009443   7.608831   0.168934   0.255949
     5  O   -0.016920   0.025342   0.069822   0.168934   8.120170  -0.051781
     6  H   -0.002535   0.008942   0.000317   0.255949  -0.051781   0.523532
 Mulliken atomic charges:
              1
     1  O   -0.152371
     2  O   -0.155163
     3  H    0.398742
     4  O   -0.041218
     5  O   -0.315566
     6  H    0.265575
 Sum of Mulliken atomic charges =   0.00000
 Mulliken charges with hydrogens summed into heavy atoms:
              1
     1  O    0.246371
     2  O   -0.155163
     4  O    0.224357
     5  O   -0.315566
 Sum of Mulliken charges with hydrogens summed into heavy atoms =   0.00000
          Atomic-Atomic Spin Densities.
              1          2          3          4          5          6
     1  O    0.726031  -0.239917   0.022453   0.017749  -0.028175   0.000144
     2  O   -0.239917   1.035489   0.012284  -0.039480   0.027444  -0.001053
     3  H    0.022453   0.012284  -0.094041   0.006506   0.007779   0.000877
     4  O    0.017749  -0.039480   0.006506   0.405484  -0.110803   0.001665
     5  O   -0.028175   0.027444   0.007779  -0.110803   0.586647   0.001173
     6  H    0.000144  -0.001053   0.000877   0.001665   0.001173  -0.016904
 Mulliken atomic spin densities:
              1
     1  O    0.498285
     2  O    0.794767
     3  H   -0.044142
     4  O    0.281121
     5  O    0.484066
     6  H   -0.014098
 Sum of Mulliken atomic spin densities =   2.00000
 APT atomic charges:
              1
     1  O    0.113238
     2  O   -0.090580
     3  H   -0.295834
     4  O   -0.088084
     5  O    0.129638
     6  H    0.231622
 Sum of APT charges=   0.00000
 APT Atomic charges with hydrogens summed into heavy atoms:
              1
     1  O   -0.182596
     2  O   -0.090580
     3  H    0.000000
     4  O    0.143538
     5  O    0.129638
     6  H    0.000000
 Sum of APT charges=   0.00000
 Electronic spatial extent (au):  <R**2>=            291.2219
 Charge=              0.0000 electrons
 Dipole moment (field-independent basis, Debye):
    X=              0.8353    Y=              0.7547    Z=              1.1461  Tot=              1.6066
 Quadrupole moment (field-independent basis, Debye-Ang):
   XX=            -25.6654   YY=            -21.0658   ZZ=            -21.8520
   XY=              2.5466   XZ=              1.4755   YZ=              1.6381
 Traceless Quadrupole moment (field-independent basis, Debye-Ang):
   XX=             -2.8043   YY=              1.7953   ZZ=              1.0091
   XY=              2.5466   XZ=              1.4755   YZ=              1.6381
 Octapole moment (field-independent basis, Debye-Ang**2):
  XXX=              2.3559  YYY=              2.0630  ZZZ=              0.7031  XYY=              2.0400
  XXY=              2.0775  XXZ=              1.8634  XZZ=              0.2431  YZZ=              1.4123
  YYZ=              1.9325  XYZ=              2.1041
 Hexadecapole moment (field-independent basis, Debye-Ang**3):
 XXXX=           -230.7680 YYYY=            -68.1907 ZZZZ=            -19.7808 XXXY=              3.4482
 XXXZ=              2.6451 YYYX=              4.7613 YYYZ=              2.1655 ZZZX=              0.8764
 ZZZY=              1.6033 XXYY=            -51.2933 XXZZ=            -39.7434 YYZZ=            -15.1549
 XXYZ=              1.9676 YYXZ=              2.2926 ZZXY=              1.4762
 N-N= 1.247300230763D+02 E-N=-1.427425408783D+03  KE= 4.479807128915D+02
  Exact polarizability:  59.655  -2.648  29.815   0.474   0.758  16.791
 Approx polarizability:  52.306  -4.193  39.962  -0.483   0.720  19.359
                          Isotropic Fermi Contact Couplings
        Atom                 a.u.       MegaHertz       Gauss      10(-4) cm-1
     1  O(17)              0.07097     -21.51028      -7.67540      -7.17506
     2  O(17)              0.13268     -40.21534     -14.34983     -13.41439
     3  H(1)              -0.03192     -71.33441     -25.45389     -23.79460
     4  O(17)              0.06325     -19.17110      -6.84073      -6.39479
     5  O(17)              0.07763     -23.53076      -8.39636      -7.84902
     6  H(1)              -0.00598     -13.35462      -4.76526      -4.45462
 --------------------------------------------------------
       Center         ----  Spin Dipole Couplings  ----
                      3XX-RR        3YY-RR        3ZZ-RR
 --------------------------------------------------------
     1   Atom       -0.042312     -1.380395      1.422707
     2   Atom       -0.640155     -1.828767      2.468922
     3   Atom        0.203588     -0.092212     -0.111376
     4   Atom        1.402514     -0.786431     -0.616083
     5   Atom        2.005278     -1.139561     -0.865717
     6   Atom       -0.011183     -0.010346      0.021529
 --------------------------------------------------------
                        XY            XZ            YZ
 --------------------------------------------------------
     1   Atom        0.055546     -0.057164     -0.382520
     2   Atom        0.078655     -0.280419     -0.605885
     3   Atom       -0.046008      0.016552     -0.003378
     4   Atom       -0.188462      0.568476     -0.014236
     5   Atom       -0.310533      0.889357     -0.079458
     6   Atom       -0.006004     -0.004711      0.052702
 --------------------------------------------------------


 ---------------------------------------------------------------------------------
              Anisotropic Spin Dipole Couplings in Principal Axis System
 ---------------------------------------------------------------------------------

       Atom             a.u.   MegaHertz   Gauss  10(-4) cm-1        Axes

              Baa    -1.4333   103.711    37.007    34.594 -0.0341  0.9907  0.1320
     1 O(17)  Bbb    -0.0434     3.140     1.120     1.047  0.9985  0.0282  0.0463
              Bcc     1.4767  -106.851   -38.127   -35.642 -0.0421 -0.1334  0.9902
 
              Baa    -1.9138   138.481    49.413    46.192 -0.0315  0.9904  0.1349
     2 O(17)  Bbb    -0.6648    48.103    17.164    16.045  0.9955  0.0190  0.0928
              Bcc     2.5786  -186.584   -66.578   -62.238 -0.0893 -0.1372  0.9865
 
              Baa    -0.1123   -59.925   -21.383   -19.989 -0.0417  0.0719  0.9965
     3 H(1)   Bbb    -0.0991   -52.900   -18.876   -17.646  0.1534  0.9860 -0.0647
              Bcc     0.2115   112.825    40.259    37.634  0.9873 -0.1502  0.0522
 
              Baa    -0.8215    59.446    21.212    19.829  0.1955  0.8542 -0.4818
     4 O(17)  Bbb    -0.7447    53.889    19.229    17.976 -0.1771  0.5140  0.8393
              Bcc     1.5663  -113.336   -40.441   -37.805  0.9646 -0.0788  0.2518
 
              Baa    -1.1709    84.727    30.233    28.262  0.1327  0.9825 -0.1310
     5 O(17)  Bbb    -1.1175    80.860    28.853    26.972 -0.2554  0.1616  0.9532
              Bcc     2.2884  -165.587   -59.086   -55.234  0.9577 -0.0931  0.2724
 
              Baa    -0.0496   -26.451    -9.438    -8.823  0.0530  0.8039 -0.5924
     6 H(1)   Bbb    -0.0118    -6.308    -2.251    -2.104  0.9935  0.0175  0.1127
              Bcc     0.0614    32.759    11.689    10.927 -0.1009  0.5945  0.7978
 

 ---------------------------------------------------------------------------------

 Calling FoFJK, ICntrl=    100127 FMM=F ISym2X=0 I1Cent= 0 IOpClX= 1 NMat=1 NMatS=1 NMatT=0.
 Full mass-weighted force constant matrix:
 Low frequencies ----1131.8070  -33.3691  -11.9650   -0.0007   -0.0004   -0.0003
 Low frequencies ---   32.0059  131.3972  186.5237
 ******    1 imaginary frequencies (negative Signs) ****** 
 Harmonic frequencies (cm**-1), IR intensities (KM/Mole), Raman scattering
 activities (A**4/AMU), depolarization ratios for plane and unpolarized
 incident light, reduced masses (AMU), force constants (mDyne/A),
 and normal coordinates:
                     1                      2                      3
                     A                      A                      A
 Frequencies -- -1131.7760               131.3414               186.2319
 Red. masses --     1.5588                 6.1751                 3.4145
 Frc consts  --     1.1764                 0.0628                 0.0698
 IR Inten    --  2005.6888                18.7317                34.1841
  Atom  AN      X      Y      Z        X      Y      Z        X      Y      Z
     1   8     0.07   0.08   0.02    -0.06  -0.04   0.31     0.04   0.00   0.02
     2   8     0.00  -0.07  -0.02    -0.03   0.05  -0.30     0.29   0.02  -0.03
     3   1     0.95   0.08   0.06    -0.09   0.00   0.10     0.03  -0.16   0.01
     4   8    -0.02   0.05  -0.01    -0.02   0.07   0.23    -0.26   0.02   0.04
     5   8    -0.11  -0.07   0.00     0.09  -0.06  -0.28    -0.02  -0.03  -0.02
     6   1     0.22  -0.01   0.07     0.46  -0.29   0.59    -0.89  -0.02  -0.12
                     4                      5                      6
                     A                      A                      A
 Frequencies --   277.0560               370.2395               838.6196
 Red. masses --     1.7854                 5.5515                 8.9779
 Frc consts  --     0.0807                 0.4484                 3.7201
 IR Inten    --    97.6999                13.4787               554.0176
  Atom  AN      X      Y      Z        X      Y      Z        X      Y      Z
     1   8     0.00  -0.01   0.05     0.19   0.15  -0.01     0.51  -0.13   0.03
     2   8    -0.04  -0.02  -0.02    -0.30   0.11   0.01    -0.08   0.15   0.00
     3   1     0.11   0.06   0.05     0.22   0.21   0.20    -0.56   0.09   0.03
     4   8     0.18   0.01   0.04    -0.15  -0.09   0.00    -0.09  -0.23   0.06
     5   8    -0.09   0.01  -0.06     0.29  -0.17   0.00    -0.33   0.20  -0.09
     6   1    -0.91   0.06  -0.30    -0.72  -0.13  -0.14     0.37  -0.03   0.10
                     7                      8                      9
                     A                      A                      A
 Frequencies --   869.1255              1316.9010              1465.8356
 Red. masses --     1.0552                 8.1037                 1.1844
 Frc consts  --     0.4696                 8.2801                 1.4995
 IR Inten    --    95.7062                30.8740                71.3689
  Atom  AN      X      Y      Z        X      Y      Z        X      Y      Z
     1   8     0.01   0.00   0.04     0.12  -0.25  -0.02     0.01   0.05   0.01
     2   8    -0.01   0.01  -0.01    -0.02   0.25   0.03     0.00  -0.04  -0.01
     3   1     0.06   0.05  -0.99    -0.50  -0.14  -0.01    -0.06  -0.08   0.01
     4   8     0.00  -0.01   0.00     0.06   0.39  -0.13     0.02   0.00  -0.06
     5   8     0.00   0.00   0.03    -0.12  -0.37   0.10    -0.01   0.06   0.03
     6   1    -0.04   0.00  -0.01    -0.06  -0.39   0.31    -0.19  -0.88   0.41
                    10                     11                     12
                     A                      A                      A
 Frequencies --  1520.9563              1760.1545              3711.8741
 Red. masses --     2.1204                 1.1633                 1.0678
 Frc consts  --     2.8900                 2.1234                 8.6678
 IR Inten    --    26.9515               139.7123                82.1477
  Atom  AN      X      Y      Z        X      Y      Z        X      Y      Z
     1   8     0.08   0.18   0.03     0.02   0.03   0.01     0.00   0.00   0.00
     2   8    -0.02  -0.15  -0.02     0.03  -0.08  -0.01     0.00   0.00   0.00
     3   1    -0.67  -0.64  -0.05    -0.33   0.94   0.03    -0.02   0.00   0.00
     4   8     0.01   0.07   0.00    -0.01   0.02  -0.01    -0.02   0.03   0.05
     5   8    -0.04  -0.07   0.00    -0.02  -0.04   0.01     0.00   0.00   0.00
     6   1     0.07   0.25  -0.09     0.01   0.00   0.02     0.24  -0.50  -0.83

 -------------------
 - Thermochemistry -
 -------------------
 Temperature   298.150 Kelvin.  Pressure   1.00000 Atm.
 Atom     1 has atomic number  8 and mass  15.99491
 Atom     2 has atomic number  8 and mass  15.99491
 Atom     3 has atomic number  1 and mass   1.00783
 Atom     4 has atomic number  8 and mass  15.99491
 Atom     5 has atomic number  8 and mass  15.99491
 Atom     6 has atomic number  1 and mass   1.00783
 Molecular mass:    65.99531 amu.
 Principal axes and moments of inertia in atomic units:
                           1         2         3
     Eigenvalues --   103.47709 369.29989 463.10687
           X            0.99982   0.01774   0.00711
           Y           -0.01792   0.99948   0.02677
           Z           -0.00663  -0.02689   0.99962
 This molecule is an asymmetric top.
 Rotational symmetry number  1.
 Rotational temperatures (Kelvin)      0.83703     0.23454     0.18703
 Rotational constants (GHZ):          17.44097     4.88693     3.89703
    1 imaginary frequencies ignored.
 Zero-point vibrational energy      74457.6 (Joules/Mol)
                                   17.79579 (Kcal/Mol)
 Warning -- explicit consideration of   4 degrees of freedom as
           vibrations may cause significant error
 Vibrational temperatures:    188.97   267.95   398.62   532.69  1206.59
          (Kelvin)           1250.48  1894.72  2109.01  2188.31  2532.47
                             5340.55
 
 Zero-point correction=                           0.028359 (Hartree/Particle)
 Thermal correction to Energy=                    0.033391
 Thermal correction to Enthalpy=                  0.034335
 Thermal correction to Gibbs Free Energy=        -0.000473
 Sum of electronic and zero-point Energies=           -301.777475
 Sum of electronic and thermal Energies=              -301.772444
 Sum of electronic and thermal Enthalpies=            -301.771499
 Sum of electronic and thermal Free Energies=         -301.806307
 
                     E (Thermal)             CV                S
                      KCal/Mol        Cal/Mol-Kelvin    Cal/Mol-Kelvin
 Total                   20.953             14.448             73.259
 Electronic               0.000              0.000              2.183
 Translational            0.889              2.981             38.479
 Rotational               0.889              2.981             24.385
 Vibrational             19.176              8.486              8.212
 Vibration     1          0.612              1.922              2.926
 Vibration     2          0.632              1.859              2.265
 Vibration     3          0.678              1.716              1.552
 Vibration     4          0.742              1.533              1.079
                       Q            Log10(Q)             Ln(Q)
 Total Bot       0.164967D+01          0.217398          0.500578
 Total V=0       0.182720D+14         13.261786         30.536391
 Vib (Bot)       0.547966D-12        -12.261247        -28.232564
 Vib (Bot)    1  0.155165D+01          0.190795          0.439322
 Vib (Bot)    2  0.107614D+01          0.031870          0.073384
 Vib (Bot)    3  0.695019D+00         -0.158003         -0.363816
 Vib (Bot)    4  0.491653D+00         -0.308341         -0.709982
 Vib (V=0)       0.606934D+01          0.783141          1.803250
 Vib (V=0)    1  0.213022D+01          0.328425          0.756227
 Vib (V=0)    2  0.168663D+01          0.227019          0.522731
 Vib (V=0)    3  0.135618D+01          0.132319          0.304675
 Vib (V=0)    4  0.120123D+01          0.079626          0.183345
 Electronic      0.300000D+01          0.477121          1.098612
 Translational   0.210729D+08          7.323725         16.863500
 Rotational      0.476210D+05          4.677799         10.771030
 ***** Axes restored to original set *****
 -------------------------------------------------------------------
 Center     Atomic                   Forces (Hartrees/Bohr)
 Number     Number              X              Y              Z
 -------------------------------------------------------------------
      1        8          -0.000000365    0.000011368    0.000002533
      2        8           0.000015491    0.000019753   -0.000008422
      3        1          -0.000013318    0.000024545    0.000004235
      4        8          -0.000011565    0.000013799   -0.000016492
      5        8          -0.000000380   -0.000066290    0.000030037
      6        1           0.000010137   -0.000003175   -0.000011892
 -------------------------------------------------------------------
 Cartesian Forces:  Max     0.000066290 RMS     0.000020792

 GradGradGradGradGradGradGradGradGradGradGradGradGradGradGradGradGradGrad
 Berny optimization.
 Internal  Forces:  Max     0.000066577 RMS     0.000023806
 Search for a saddle point.
 Step number   1 out of a maximum of    2
 All quantities printed in internal units (Hartrees-Bohrs-Radians)
 Swaping is turned off.
 Second derivative matrix not updated -- analytic derivatives used.
 The second derivative matrix:
                          R1        R2        R3        R4        R5
           R1           0.55908
           R2           0.07554   0.23568
           R3          -0.06442   0.13168   0.03492
           R4           0.06176  -0.04686   0.04566   0.46869
           R5          -0.00767   0.00349  -0.00497   0.01835   0.49421
           A1           0.07584   0.03377   0.01609  -0.02293   0.00009
           A2          -0.01541   0.05174   0.03363  -0.00972  -0.00124
           A3           0.00392  -0.00175   0.00223   0.08064  -0.00527
           A4          -0.02516   0.03042   0.01667   0.05105  -0.00202
           D1           0.00606  -0.00987   0.00342  -0.00674   0.00230
           D2           0.00803  -0.01351   0.00306  -0.00758   0.00322
           D3           0.01233  -0.00845   0.01139  -0.00682   0.00398
                          A1        A2        A3        A4        D1
           A1           0.31004
           A2           0.06964   0.11282
           A3          -0.00244   0.00031   0.24716
           A4           0.02222   0.04609   0.01288   0.16442
           D1          -0.00999  -0.00812  -0.00514  -0.00050   0.01643
           D2          -0.01360  -0.01334  -0.00632  -0.00503   0.01365
           D3          -0.01142  -0.00095   0.00148   0.01122  -0.00371
                          D2        D3
           D2           0.01541
           D3          -0.00271   0.00438
 ITU=  0
     Eigenvalues ---   -0.06341   0.00192   0.00769   0.02910   0.06832
     Eigenvalues ---    0.14615   0.22155   0.26656   0.36972   0.48448
     Eigenvalues ---    0.51616   0.61499
 Eigenvectors required to have negative eigenvalues:
                          R3        R2        D3        R1        R4
   1                    0.80600  -0.43301  -0.26895   0.16725  -0.14723
                          D2        D1        A4        A1        A2
   1                   -0.13619  -0.11128   0.07144  -0.05232  -0.03498
 Angle between quadratic step and forces=  64.22 degrees.
 Linear search not attempted -- option 19 set.
 Iteration  1 RMS(Cart)=  0.00055643 RMS(Int)=  0.00000015
 Iteration  2 RMS(Cart)=  0.00000017 RMS(Int)=  0.00000000
 Variable       Old X    -DE/DX   Delta X   Delta X   Delta X     New X
                                 (Linear)    (Quad)   (Total)
    R1        2.39398   0.00000   0.00000   0.00000   0.00000   2.39398
    R2        2.02130  -0.00001   0.00000  -0.00003  -0.00003   2.02127
    R3        2.57980  -0.00001   0.00000   0.00002   0.00002   2.57982
    R4        2.50017   0.00003   0.00000   0.00010   0.00010   2.50026
    R5        1.83724   0.00000   0.00000   0.00000   0.00000   1.83725
    A1        1.85108  -0.00002   0.00000  -0.00005  -0.00005   1.85103
    A2        2.79158  -0.00002   0.00000  -0.00005  -0.00005   2.79153
    A3        1.84824   0.00000   0.00000  -0.00001  -0.00001   1.84822
    A4        1.77967  -0.00007   0.00000  -0.00042  -0.00042   1.77926
    D1        0.02998  -0.00001   0.00000   0.00027   0.00027   0.03025
    D2       -0.41831  -0.00001   0.00000  -0.00089  -0.00089  -0.41920
    D3        1.41878   0.00000   0.00000  -0.00026  -0.00026   1.41851
         Item               Value     Threshold  Converged?
 Maximum Force            0.000067     0.000450     YES
 RMS     Force            0.000024     0.000300     YES
 Maximum Displacement     0.001204     0.001800     YES
 RMS     Displacement     0.000556     0.001200     YES
 Predicted change in Energy=-1.896905D-08
 Optimization completed.
    -- Stationary point found.
                           ----------------------------
                           !   Optimized Parameters   !
                           ! (Angstroms and Degrees)  !
 --------------------------                            --------------------------
 ! Name  Definition              Value          Derivative Info.                !
 --------------------------------------------------------------------------------
 ! R1    R(1,2)                  1.2668         -DE/DX =    0.0                 !
 ! R2    R(1,3)                  1.0696         -DE/DX =    0.0                 !
 ! R3    R(3,5)                  1.3652         -DE/DX =    0.0                 !
 ! R4    R(4,5)                  1.323          -DE/DX =    0.0                 !
 ! R5    R(4,6)                  0.9722         -DE/DX =    0.0                 !
 ! A1    A(2,1,3)              106.059          -DE/DX =    0.0                 !
 ! A2    A(1,3,5)              159.9456         -DE/DX =    0.0                 !
 ! A3    A(5,4,6)              105.8961         -DE/DX =    0.0                 !
 ! A4    A(3,5,4)              101.9678         -DE/DX =   -0.0001              !
 ! D1    D(2,1,3,5)              1.7176         -DE/DX =    0.0                 !
 ! D2    D(1,3,5,4)            -23.9677         -DE/DX =    0.0                 !
 ! D3    D(6,4,5,3)             81.2899         -DE/DX =    0.0                 !
 --------------------------------------------------------------------------------
 GradGradGradGradGradGradGradGradGradGradGradGradGradGradGradGradGradGrad

 1\1\GINC-COMPUTE-3-041\Freq\UM062X\6-311+G(2df,2p)\H2O4(3)\ROOT\11-May
 -2017\0\\#N Geom=AllCheck Guess=TCheck SCRF=Check GenChk UM062X/6-311+
 G(2df,2p) Freq\\[O]O+[O]O_OO+[O][O]\\0,3\O,-1.247642,-0.586872,-0.0907
 95\O,-1.313438,0.667233,0.07586\H,-0.209824,-0.839089,-0.032293\O,1.31
 3389,0.582417,-0.181642\O,1.138594,-0.693114,0.123115\H,1.082602,1.081
 775,0.619984\\Version=EM64L-G09RevB.01\State=3-A\HF=-301.8058345\S2=2.
 017346\S2-1=0.\S2A=2.000164\RMSD=6.617e-10\RMSF=2.079e-05\ZeroPoint=0.
 0283594\Thermal=0.0333909\Dipole=0.328645,0.2969345,0.4509251\DipoleDe
 riv=0.7347215,-0.0666895,0.0373857,-2.0198829,-0.2561093,-0.0685096,-0
 .2366117,-0.0122015,-0.1388981,-0.201549,0.0175166,-0.0384405,1.674778
 4,0.051228,0.0713868,0.2994426,-0.0117396,-0.1214199,-1.4269042,0.1305
 12,-0.0354493,0.2025295,0.2345579,0.0018418,-0.0576709,0.0053695,0.304
 8429,0.0105175,-0.0990074,-0.0233454,-1.4947033,-0.2381836,0.0561314,0
 .0922533,-0.041487,-0.0365854,0.7116534,-0.0196865,0.0211979,1.561606,
 -0.0734616,-0.072595,-0.2708791,0.0248511,-0.2492766,0.1715608,0.03735
 48,0.0386515,0.0756723,0.2819686,0.0117445,0.1734659,0.0352074,0.24133
 72\Polar=59.655142,-2.6477531,29.8146993,0.4735757,0.7580676,16.790552
 1\PG=C01 [X(H2O4)]\NImag=1\\0.27649799,0.02795503,0.50228241,0.0266288
 6,0.06738446,0.02890331,-0.05240115,0.00314701,-0.00335561,0.05846536,
 -0.00463157,-0.48731203,-0.06639373,-0.05736781,0.54653475,-0.00749059
 ,-0.06193017,-0.01444646,-0.00437670,0.06702379,0.01137591,-0.09873434
 ,-0.11692613,-0.02473178,-0.00149702,0.12579727,0.02246806,0.00521980,
 -0.01195586,-0.02702707,-0.00118592,0.04596127,-0.05015076,-0.00373660
 ,-0.01585519,0.10723481,-0.00699568,-0.00659141,-0.02025881,0.00590899
 ,0.00055936,0.00400038,-0.00310843,0.00252109,0.02731695,-0.00818421,0
 .01352650,0.00509212,-0.00532570,-0.01271586,-0.00310252,0.01140567,-0
 .01708824,0.00190701,0.06987379,0.03995319,-0.08080365,-0.00897112,0.0
 0652644,0.06350454,0.01135058,-0.09060655,-0.00583593,-0.00127372,0.02
 291135,0.51724184,-0.00487070,0.00916907,0.00382357,-0.00089435,-0.007
 27701,-0.00219894,0.01161150,-0.00144644,-0.00090626,-0.13621690,0.095
 33308,0.44698502,-0.11968176,0.08527860,-0.00015384,-0.00122738,-0.059
 82328,-0.01010012,0.09485756,-0.00112933,0.00230291,-0.03597559,-0.027
 98998,0.01746353,0.05486394,-0.04983360,0.09015812,0.00932174,0.001269
 36,-0.06984055,-0.01288031,0.09459751,-0.02212537,0.00529934,-0.047433
 49,-0.36959075,0.05268839,0.00073974,0.42610035,-0.00482778,-0.0135417
 1,0.00209087,0.00186618,0.01092923,0.00287527,-0.01040214,0.00408987,-
 0.01191402,0.02442355,0.09530551,-0.06927996,-0.00172432,-0.06709355,0
 .05365185,0.00250347,-0.01298102,-0.00347974,0.00198589,0.00874126,0.0
 0260187,-0.01125167,0.00006735,-0.00001481,-0.03179396,0.04920555,0.11
 290692,0.00716323,0.00066048,-0.00933549,0.03139303,-0.00148719,0.0027
 0222,-0.00015543,0.00046372,-0.00273594,0.00017270,0.00299310,-0.00209
 568,-0.00051465,0.04079974,-0.12451604,-0.14846709,0.00292425,-0.05470
 180,-0.02968936,-0.04569363,0.18134723,-0.00244412,0.00550976,-0.00011
 248,0.00085148,-0.00484163,-0.00160615,0.00416279,-0.00024200,0.001761
 76,0.10789674,-0.19174434,-0.37842343,-0.00778815,0.01266440,0.0225760
 0,-0.10267875,0.17865382,0.35580430\\0.00000037,-0.00001137,-0.0000025
 3,-0.00001549,-0.00001975,0.00000842,0.00001332,-0.00002455,-0.0000042
 3,0.00001157,-0.00001380,0.00001649,0.00000038,0.00006629,-0.00003004,
 -0.00001014,0.00000318,0.00001189\\\@


 ... THE UNIVERSE IS NOT ONLY QUEERER THAN WE SUPPOSE,
 BUT QUEERER THAN WE CAN SUPPOSE ... 

                                   -- J. B. S. HALDANE
 Job cpu time:  0 days  0 hours 26 minutes 56.9 seconds.
 File lengths (MBytes):  RWF=     92 Int=      0 D2E=      0 Chk=     32 Scr=      1
 Normal termination of Gaussian 09 at Thu May 11 17:38:30 2017.
