 Entering Gaussian System, Link 0=/shared/apps/gaussian/G09_LINUX_LINDA/g09/g09
 Input=/gss_gpfs_scratch/harms.n/QMscratch/[O]O+[O]OC=O_OO+[O]O[C]=OIRC.gjf
 Output=/gss_gpfs_scratch/harms.n/QMscratch/[O]O+[O]OC=O_OO+[O]O[C]=OIRC.log
 Initial command:
 /shared/apps/gaussian/G09_LINUX_LINDA/g09/l1.exe /gss_gpfs_scratch/harms.n/comparerTST/Gau-17091.inp -scrdir=/gss_gpfs_scratch/harms.n/comparerTST/
 Entering Link 1 = /shared/apps/gaussian/G09_LINUX_LINDA/g09/l1.exe PID=     17092.
  
 Copyright (c) 1988,1990,1992,1993,1995,1998,2003,2009,2010,
            Gaussian, Inc.  All Rights Reserved.
  
 This is part of the Gaussian(R) 09 program.  It is based on
 the Gaussian(R) 03 system (copyright 2003, Gaussian, Inc.),
 the Gaussian(R) 98 system (copyright 1998, Gaussian, Inc.),
 the Gaussian(R) 94 system (copyright 1995, Gaussian, Inc.),
 the Gaussian 92(TM) system (copyright 1992, Gaussian, Inc.),
 the Gaussian 90(TM) system (copyright 1990, Gaussian, Inc.),
 the Gaussian 88(TM) system (copyright 1988, Gaussian, Inc.),
 the Gaussian 86(TM) system (copyright 1986, Carnegie Mellon
 University), and the Gaussian 82(TM) system (copyright 1983,
 Carnegie Mellon University). Gaussian is a federally registered
 trademark of Gaussian, Inc.
  
 This software contains proprietary and confidential information,
 including trade secrets, belonging to Gaussian, Inc.
  
 This software is provided under written license and may be
 used, copied, transmitted, or stored only in accord with that
 written license.
  
 The following legend is applicable only to US Government
 contracts under FAR:
  
                    RESTRICTED RIGHTS LEGEND
  
 Use, reproduction and disclosure by the US Government is
 subject to restrictions as set forth in subparagraphs (a)
 and (c) of the Commercial Computer Software - Restricted
 Rights clause in FAR 52.227-19.
  
 Gaussian, Inc.
 340 Quinnipiac St., Bldg. 40, Wallingford CT 06492
  
  
 ---------------------------------------------------------------
 Warning -- This program may not be used in any manner that
 competes with the business of Gaussian, Inc. or will provide
 assistance to any competitor of Gaussian, Inc.  The licensee
 of this program is prohibited from giving any competitor of
 Gaussian, Inc. access to this program.  By using this program,
 the user acknowledges that Gaussian, Inc. is engaged in the
 business of creating and licensing software in the field of
 computational chemistry and represents and warrants to the
 licensee that it is not a competitor of Gaussian, Inc. and that
 it will not use this program in any manner prohibited above.
 ---------------------------------------------------------------
  

 Cite this work as:
 Gaussian 09, Revision B.01,
 M. J. Frisch, G. W. Trucks, H. B. Schlegel, G. E. Scuseria, 
 M. A. Robb, J. R. Cheeseman, G. Scalmani, V. Barone, B. Mennucci, 
 G. A. Petersson, H. Nakatsuji, M. Caricato, X. Li, H. P. Hratchian, 
 A. F. Izmaylov, J. Bloino, G. Zheng, J. L. Sonnenberg, M. Hada, 
 M. Ehara, K. Toyota, R. Fukuda, J. Hasegawa, M. Ishida, T. Nakajima, 
 Y. Honda, O. Kitao, H. Nakai, T. Vreven, J. A. Montgomery, Jr., 
 J. E. Peralta, F. Ogliaro, M. Bearpark, J. J. Heyd, E. Brothers, 
 K. N. Kudin, V. N. Staroverov, T. Keith, R. Kobayashi, J. Normand, 
 K. Raghavachari, A. Rendell, J. C. Burant, S. S. Iyengar, J. Tomasi, 
 M. Cossi, N. Rega, J. M. Millam, M. Klene, J. E. Knox, J. B. Cross, 
 V. Bakken, C. Adamo, J. Jaramillo, R. Gomperts, R. E. Stratmann, 
 O. Yazyev, A. J. Austin, R. Cammi, C. Pomelli, J. W. Ochterski, 
 R. L. Martin, K. Morokuma, V. G. Zakrzewski, G. A. Voth, 
 P. Salvador, J. J. Dannenberg, S. Dapprich, A. D. Daniels, 
 O. Farkas, J. B. Foresman, J. V. Ortiz, J. Cioslowski, 
 and D. J. Fox, Gaussian, Inc., Wallingford CT, 2010.
 
 ******************************************
 Gaussian 09:  EM64L-G09RevB.01 12-Aug-2010
                 3-Aug-2017 
 ******************************************
 %nprocshared=20
 Will use up to   20 processors via shared memory.
 %mem=5GB
 %chk=/gss_gpfs_scratch/harms.n/QMscratch/[O]O+[O]OC=O_OO+[O]O[C]=O
 ----------------------------------------------------------------------
 # m062x/6-311+g(2df,2p) irc=(calcall,report=read) geom=allcheck guess=
 check nosymm
 ----------------------------------------------------------------------
 1/10=4,14=-1,18=10,26=3,29=7,38=1,44=3,71=1,129=1/1,23;
 2/12=2,15=1,29=1,40=1/2;
 3/5=4,6=6,7=214,11=2,14=-4,16=1,25=1,30=1,71=2,74=-55,116=-2/1,2,3;
 4/5=1/1;
 5/5=2,38=6/2;
 8/6=4,10=90,11=11/1;
 11/6=1,8=1,9=11,15=111,16=1,31=1/1,2,10;
 10/6=1,31=1/2;
 6/7=2,8=2,9=2,10=2,18=1,28=1/1;
 7/10=1,25=1,30=1/1,2,3,16;
 1/10=4,14=-1,18=10,44=3,71=1,129=1/23(3);
 2/15=1,29=1/2;
 7/8=1,9=1,25=1,30=1,44=-1/16;
 99/5=20/99;
 2/15=1,29=1/2;
 3/5=4,6=6,7=214,11=2,14=-2,16=1,25=1,30=1,71=2,74=-55/1,2,3;
 4/5=5,16=3/1;
 5/5=2,38=5/2;
 8/6=4,10=90,11=11/1;
 11/6=1,8=1,9=11,15=111,16=1,31=1/1,2,10;
 10/6=1,31=1/2;
 7/10=1,25=1,30=1/1,2,3,16;
 1/10=4,14=-1,18=10,44=3,71=1,129=1/23(-8);
 2/15=1,29=1/2;
 6/7=2,8=2,9=2,10=2,18=1,19=2,28=1/1;
 7/8=1,9=1,25=1,30=1,44=-1/16;
 99/5=20/99;
 -------------------------
 [O]O+[O]OC=O_OO+[O]O[C]=O
 -------------------------
 Redundant internal coordinates taken from checkpoint file:
 /gss_gpfs_scratch/harms.n/QMscratch/[O]O+[O]OC=O_OO+[O]O[C]=O.chk
 Charge =  0 Multiplicity = 3
 C,0,-0.527131,0.619699,-0.028763
 O,0,-0.835064,-0.75286,-0.181214
 O,0,-1.272684,1.474492,0.222639
 H,0,0.833119,0.659564,-0.244819
 O,0,-2.102008,-1.018339,0.004886
 O,0,2.274925,-0.540483,0.449889
 O,0,1.945036,0.45768,-0.4328
 H,0,2.24803,-1.341671,-0.089799
 Recover connectivity data from disk.
 IRC-IRC-IRC-IRC-IRC-IRC-IRC-IRC-IRC-IRC-IRC-IRC-IRC-IRC-IRC-IRC-IRC-IRC
 Reading IRC summary table definitions from input file.
 ------------------------------------------------------------------------
 INPUT DATA FOR L123
 ------------------------------------------------------------------------
 GENERAL PARAMETERS:
 Follow reaction path in both directions.
 Maximum points per path      =  10
 Step size                    =   0.100 bohr
 Integration scheme           = HPC                                 
    Redo corrector integration= Yes                                 
    Max correction cycles     =  20
 Initial Hessian              = CalcFC
 Hessian evaluation           = Full Hessian always
 ------------------------------------------------------------------------
 IRC-IRC-IRC-IRC-IRC-IRC-IRC-IRC-IRC-IRC-IRC-IRC-IRC-IRC-IRC-IRC-IRC-IRC
                          Input orientation:                          
 ---------------------------------------------------------------------
 Center     Atomic      Atomic             Coordinates (Angstroms)
 Number     Number       Type             X           Y           Z
 ---------------------------------------------------------------------
      1          6           0       -0.527131    0.619699   -0.028763
      2          8           0       -0.835064   -0.752860   -0.181214
      3          8           0       -1.272684    1.474492    0.222639
      4          1           0        0.833119    0.659564   -0.244819
      5          8           0       -2.102008   -1.018339    0.004886
      6          8           0        2.274925   -0.540483    0.449889
      7          8           0        1.945036    0.457680   -0.432800
      8          1           0        2.248030   -1.341671   -0.089799
 ---------------------------------------------------------------------
                    Distance matrix (angstroms):
                    1          2          3          4          5
     1  C    0.000000
     2  O    1.414914   0.000000
     3  O    1.161776   2.305581   0.000000
     4  H    1.377879   2.186738   2.305869   0.000000
     5  O    2.272562   1.307769   2.636172   3.390086   0.000000
     6  O    3.070285   3.180476   4.086233   2.000384   4.425372
     7  O    2.510200   3.042640   3.437620   1.145624   4.329985
     8  H    3.398855   3.140147   4.519272   2.455798   4.363065
                    6          7          8
     6  O    0.000000
     7  O    1.372697   0.000000
     8  H    0.966379   1.856642   0.000000
 Symmetry turned off by external request.
 Stoichiometry    CH2O5(3)
 Framework group  C1[X(CH2O5)]
 Deg. of freedom    18
 Full point group                 C1      NOp   1
 Rotational constants (GHZ):      6.0960726      1.8877635      1.5069818
 Standard basis: 6-311+G(2df,2p) (5D, 7F)
 Integral buffers will be    131072 words long.
 Raffenetti 2 integral format.
 Two-electron integral symmetry is turned off.
   222 basis functions,   334 primitive gaussians,   252 cartesian basis functions
    25 alpha electrons       23 beta electrons
       nuclear repulsion energy       227.0864383272 Hartrees.
 NAtoms=    8 NActive=    8 NUniq=    8 SFac= 1.00D+00 NAtFMM=   50 NAOKFM=F Big=F
 One-electron integrals computed using PRISM.
 NBasis=   222 RedAO= T  NBF=   222
 NBsUse=   222 1.00D-06 NBFU=   222
 Initial guess read from the checkpoint file:  /gss_gpfs_scratch/harms.n/QMscratch/[O]O+[O]OC=O_OO+[O]O[C]=O.chk
 B after Tr=     0.000000    0.000000    0.000000
         Rot=    1.000000    0.000000    0.000000    0.000000 Ang=   0.00 deg.
 Initial guess <Sx>= 0.0000 <Sy>= 0.0000 <Sz>= 1.0000 <S**2>= 2.0151 S= 1.0050
 Requested convergence on RMS density matrix=1.00D-08 within 128 cycles.
 Requested convergence on MAX density matrix=1.00D-06.
 Requested convergence on             energy=1.00D-06.
 No special actions if energy rises.
 SCF Done:  E(UM062X) =  -415.087912458     A.U. after    1 cycles
             Convg  =    0.3147D-09             -V/T =  2.0027
 <Sx>= 0.0000 <Sy>= 0.0000 <Sz>= 1.0000 <S**2>= 2.0151 S= 1.0050
 <L.S>= 0.000000000000E+00
 Annihilation of the first spin contaminant:
 S**2 before annihilation     2.0151,   after     2.0001
 Range of M.O.s used for correlation:     1   222
 NBasis=   222 NAE=    25 NBE=    23 NFC=     0 NFV=     0
 NROrb=    222 NOA=    25 NOB=    23 NVA=   197 NVB=   199

 **** Warning!!: The largest alpha MO coefficient is  0.14686940D+02


 **** Warning!!: The largest beta MO coefficient is  0.17847574D+02

 Symmetrizing basis deriv contribution to polar:
 IMax=3 JMax=2 DiffMx= 0.00D+00
 G2DrvN: will do     9 centers at a time, making    1 passes doing MaxLOS=3.
 Calling FoFCou, ICntrl=  3107 FMM=F I1Cent=   0 AccDes= 0.00D+00.
 FoFDir/FoFCou used for L=0 through L=3.
 End of G2Drv Frequency-dependent properties file   721 does not exist.
 End of G2Drv Frequency-dependent properties file   722 does not exist.
          IDoAtm=11111111
          Differentiating once with respect to electric field.
                with respect to dipole field.
          Differentiating once with respect to nuclear coordinates.
          There are    27 degrees of freedom in the 1st order CPHF.  IDoFFX=5.
     24 vectors produced by pass  0 Test12= 3.52D-14 3.70D-09 XBig12= 1.20D+02 8.92D+00.
 AX will form    24 AO Fock derivatives at one time.
     24 vectors produced by pass  1 Test12= 3.52D-14 3.70D-09 XBig12= 2.53D+01 9.71D-01.
     24 vectors produced by pass  2 Test12= 3.52D-14 3.70D-09 XBig12= 1.84D+00 3.34D-01.
     24 vectors produced by pass  3 Test12= 3.52D-14 3.70D-09 XBig12= 6.28D-02 3.87D-02.
     24 vectors produced by pass  4 Test12= 3.52D-14 3.70D-09 XBig12= 1.93D-03 7.44D-03.
     24 vectors produced by pass  5 Test12= 3.52D-14 3.70D-09 XBig12= 4.40D-05 7.49D-04.
     24 vectors produced by pass  6 Test12= 3.52D-14 3.70D-09 XBig12= 6.91D-07 1.41D-04.
     24 vectors produced by pass  7 Test12= 3.52D-14 3.70D-09 XBig12= 7.73D-09 8.70D-06.
     10 vectors produced by pass  8 Test12= 3.52D-14 3.70D-09 XBig12= 6.31D-11 8.66D-07.
      3 vectors produced by pass  9 Test12= 3.52D-14 3.70D-09 XBig12= 6.53D-13 9.86D-08.
      1 vectors produced by pass 10 Test12= 3.52D-14 3.70D-09 XBig12= 6.56D-15 7.38D-09.
 Inverted reduced A of dimension   206 with in-core refinement.
 Isotropic polarizability for W=    0.000000       53.82 Bohr**3.
 End of Minotr Frequency-dependent properties file   721 does not exist.
 End of Minotr Frequency-dependent properties file   722 does not exist.

 **********************************************************************

            Population analysis using the SCF density.

 **********************************************************************

 Alpha  occ. eigenvalues --  -19.80514 -19.76024 -19.72872 -19.72794 -19.71437
 Alpha  occ. eigenvalues --  -10.72710  -1.40221  -1.31795  -1.27401  -1.05989
 Alpha  occ. eigenvalues --   -1.02728  -0.75523  -0.69562  -0.66312  -0.64612
 Alpha  occ. eigenvalues --   -0.64487  -0.61568  -0.56517  -0.54652  -0.54170
 Alpha  occ. eigenvalues --   -0.45449  -0.43082  -0.42507  -0.41440  -0.35654
 Alpha virt. eigenvalues --   -0.01390   0.01694   0.02776   0.04799   0.05403
 Alpha virt. eigenvalues --    0.08061   0.10425   0.11841   0.15123   0.16268
 Alpha virt. eigenvalues --    0.17035   0.17821   0.19067   0.20230   0.20714
 Alpha virt. eigenvalues --    0.21168   0.21877   0.22450   0.24864   0.26398
 Alpha virt. eigenvalues --    0.27276   0.27424   0.28772   0.29357   0.30271
 Alpha virt. eigenvalues --    0.32316   0.33947   0.34302   0.39004   0.40349
 Alpha virt. eigenvalues --    0.46059   0.50595   0.55177   0.56667   0.63823
 Alpha virt. eigenvalues --    0.66535   0.70466   0.75321   0.77265   0.78713
 Alpha virt. eigenvalues --    0.80640   0.85385   0.88304   0.93598   0.94254
 Alpha virt. eigenvalues --    0.98138   1.00656   1.02132   1.03554   1.04694
 Alpha virt. eigenvalues --    1.05677   1.07340   1.09344   1.10952   1.12935
 Alpha virt. eigenvalues --    1.13381   1.14777   1.17470   1.18359   1.30880
 Alpha virt. eigenvalues --    1.33747   1.34876   1.39322   1.42303   1.42768
 Alpha virt. eigenvalues --    1.50023   1.52356   1.53363   1.53952   1.55789
 Alpha virt. eigenvalues --    1.58883   1.59889   1.62728   1.68550   1.70716
 Alpha virt. eigenvalues --    1.77509   1.88324   1.93359   1.97095   1.98620
 Alpha virt. eigenvalues --    1.98983   2.11061   2.16995   2.17813   2.23113
 Alpha virt. eigenvalues --    2.25056   2.26691   2.34945   2.42085   2.50611
 Alpha virt. eigenvalues --    2.51999   2.57287   2.61696   2.64875   2.74092
 Alpha virt. eigenvalues --    2.77795   2.95604   2.98193   3.01131   3.11038
 Alpha virt. eigenvalues --    3.17562   3.26092   3.32028   3.35970   3.46221
 Alpha virt. eigenvalues --    3.55018   3.56061   3.58789   3.63990   3.67222
 Alpha virt. eigenvalues --    3.72811   3.78910   3.98016   4.09513   4.11024
 Alpha virt. eigenvalues --    4.25625   4.43797   4.56131   4.57831   4.60862
 Alpha virt. eigenvalues --    4.62029   4.67896   4.71383   4.77051   4.86160
 Alpha virt. eigenvalues --    4.90698   4.94857   4.95412   4.96430   4.99301
 Alpha virt. eigenvalues --    5.00399   5.05123   5.05666   5.07301   5.08152
 Alpha virt. eigenvalues --    5.09611   5.10500   5.12573   5.14530   5.15918
 Alpha virt. eigenvalues --    5.16862   5.20472   5.24517   5.29259   5.30669
 Alpha virt. eigenvalues --    5.31620   5.37154   5.38996   5.43312   5.48353
 Alpha virt. eigenvalues --    5.53496   5.60084   5.65482   5.80491   6.09619
 Alpha virt. eigenvalues --    6.11776   6.24891   6.31680   6.35976   6.42170
 Alpha virt. eigenvalues --    6.47197   6.61884   6.69057   6.71617   6.75666
 Alpha virt. eigenvalues --    6.77440   6.80408   6.81211   6.83706   6.86029
 Alpha virt. eigenvalues --    6.87836   6.92425   6.97042   7.00661   7.01267
 Alpha virt. eigenvalues --    7.06245   7.11165   7.11565   7.22602   7.22998
 Alpha virt. eigenvalues --    7.23927   7.25977   7.36705   7.44767   7.49607
 Alpha virt. eigenvalues --    7.58093   7.64777   7.77926   7.84523   7.86267
 Alpha virt. eigenvalues --    7.91395  24.59164  49.90376  49.94065  49.98233
 Alpha virt. eigenvalues --   49.99511  50.23864
  Beta  occ. eigenvalues --  -19.79779 -19.74420 -19.72553 -19.71988 -19.70995
  Beta  occ. eigenvalues --  -10.72162  -1.36745  -1.30006  -1.25756  -1.01051
  Beta  occ. eigenvalues --   -0.99634  -0.72144  -0.66821  -0.62924  -0.62539
  Beta  occ. eigenvalues --   -0.59628  -0.58399  -0.54142  -0.50527  -0.50084
  Beta  occ. eigenvalues --   -0.41338  -0.40255  -0.37178
  Beta virt. eigenvalues --   -0.14519  -0.12258   0.00848   0.01665   0.03001
  Beta virt. eigenvalues --    0.05091   0.05654   0.08189   0.11126   0.12235
  Beta virt. eigenvalues --    0.15219   0.16187   0.17284   0.18221   0.19577
  Beta virt. eigenvalues --    0.20478   0.21008   0.21709   0.21987   0.23356
  Beta virt. eigenvalues --    0.25354   0.26375   0.27502   0.28011   0.28974
  Beta virt. eigenvalues --    0.29498   0.30272   0.31765   0.34195   0.35153
  Beta virt. eigenvalues --    0.39870   0.40899   0.46284   0.50831   0.55271
  Beta virt. eigenvalues --    0.56738   0.63920   0.67162   0.71545   0.75361
  Beta virt. eigenvalues --    0.77408   0.79103   0.80966   0.85469   0.88497
  Beta virt. eigenvalues --    0.94485   0.95195   0.98305   1.01604   1.03925
  Beta virt. eigenvalues --    1.04279   1.05827   1.06258   1.09025   1.10359
  Beta virt. eigenvalues --    1.11448   1.13619   1.14095   1.15329   1.17950
  Beta virt. eigenvalues --    1.18987   1.32158   1.34853   1.36092   1.40038
  Beta virt. eigenvalues --    1.43867   1.44556   1.50788   1.53198   1.53847
  Beta virt. eigenvalues --    1.54697   1.56576   1.59639   1.60842   1.65103
  Beta virt. eigenvalues --    1.69610   1.71274   1.77902   1.89042   1.94020
  Beta virt. eigenvalues --    1.97848   1.99406   1.99739   2.12133   2.18242
  Beta virt. eigenvalues --    2.18368   2.24212   2.25141   2.27460   2.35376
  Beta virt. eigenvalues --    2.42856   2.50892   2.51547   2.57459   2.61955
  Beta virt. eigenvalues --    2.64325   2.73071   2.77730   2.96564   2.99729
  Beta virt. eigenvalues --    3.02532   3.12934   3.20261   3.27899   3.34349
  Beta virt. eigenvalues --    3.38380   3.47692   3.56165   3.57074   3.60182
  Beta virt. eigenvalues --    3.64130   3.68432   3.72947   3.78939   3.98295
  Beta virt. eigenvalues --    4.09771   4.12366   4.24554   4.47025   4.56379
  Beta virt. eigenvalues --    4.58862   4.60809   4.62576   4.69402   4.71754
  Beta virt. eigenvalues --    4.77209   4.86392   4.91757   4.97626   4.98493
  Beta virt. eigenvalues --    4.99899   5.00902   5.03628   5.06250   5.07695
  Beta virt. eigenvalues --    5.08157   5.09409   5.10233   5.11577   5.14540
  Beta virt. eigenvalues --    5.14988   5.16402   5.17867   5.21318   5.25600
  Beta virt. eigenvalues --    5.29640   5.31066   5.32598   5.37639   5.40379
  Beta virt. eigenvalues --    5.43788   5.48741   5.54110   5.60196   5.66254
  Beta virt. eigenvalues --    5.81354   6.10278   6.12105   6.27372   6.32251
  Beta virt. eigenvalues --    6.36589   6.43890   6.47329   6.70539   6.76275
  Beta virt. eigenvalues --    6.76474   6.79667   6.80916   6.82442   6.83255
  Beta virt. eigenvalues --    6.84489   6.87107   6.89625   6.95118   6.99894
  Beta virt. eigenvalues --    7.02490   7.04262   7.06794   7.12819   7.14001
  Beta virt. eigenvalues --    7.23434   7.24036   7.26257   7.29805   7.38164
  Beta virt. eigenvalues --    7.44704   7.51233   7.58724   7.64668   7.79898
  Beta virt. eigenvalues --    7.84794   7.86364   7.93596  24.59720  49.89981
  Beta virt. eigenvalues --   49.93691  49.97704  49.99092  50.23434
          Condensed to atoms (all electrons):
              1          2          3          4          5          6
     1  C    5.165527   0.089631   0.421892   0.253492  -0.046584   0.031180
     2  O    0.089631   7.778958  -0.055506  -0.028432   0.195393   0.009869
     3  O    0.421892  -0.055506   7.853970   0.004714   0.007287  -0.000699
     4  H    0.253492  -0.028432   0.004714   0.355142   0.000837  -0.042892
     5  O   -0.046584   0.195393   0.007287   0.000837   7.906460   0.001763
     6  O    0.031180   0.009869  -0.000699  -0.042892   0.001763   7.780210
     7  O   -0.038169   0.017933  -0.003765   0.109502   0.001791   0.130660
     8  H   -0.008236   0.002154  -0.000179   0.004796  -0.001220   0.248095
              7          8
     1  C   -0.038169  -0.008236
     2  O    0.017933   0.002154
     3  O   -0.003765  -0.000179
     4  H    0.109502   0.004796
     5  O    0.001791  -0.001220
     6  O    0.130660   0.248095
     7  O    8.097257  -0.043364
     8  H   -0.043364   0.538594
 Mulliken atomic charges:
              1
     1  C    0.131267
     2  O   -0.010002
     3  O   -0.227714
     4  H    0.342842
     5  O   -0.065725
     6  O   -0.158185
     7  O   -0.271844
     8  H    0.259361
 Sum of Mulliken atomic charges =   0.00000
 Mulliken charges with hydrogens summed into heavy atoms:
              1
     1  C    0.131267
     2  O   -0.010002
     3  O   -0.227714
     5  O   -0.065725
     6  O    0.101176
     7  O    0.070998
 Sum of Mulliken charges with hydrogens summed into heavy atoms =   0.00000
          Atomic-Atomic Spin Densities.
              1          2          3          4          5          6
     1  C    0.557710  -0.082373  -0.084357   0.004178   0.021010   0.039980
     2  O   -0.082373   0.440823  -0.006005   0.004376  -0.165042  -0.009471
     3  O   -0.084357  -0.006005   0.251414   0.000258   0.013056  -0.001435
     4  H    0.004178   0.004376   0.000258  -0.095154  -0.000183   0.006508
     5  O    0.021010  -0.165042   0.013056  -0.000183   0.976936   0.002340
     6  O    0.039980  -0.009471  -0.001435   0.006508   0.002340   0.132716
     7  O   -0.085362   0.016078   0.004652   0.025173  -0.004817  -0.065845
     8  H   -0.001525  -0.000096   0.000037   0.001206   0.000030  -0.004625
              7          8
     1  C   -0.085362  -0.001525
     2  O    0.016078  -0.000096
     3  O    0.004652   0.000037
     4  H    0.025173   0.001206
     5  O   -0.004817   0.000030
     6  O   -0.065845  -0.004625
     7  O    0.476747   0.002814
     8  H    0.002814  -0.002311
 Mulliken atomic spin densities:
              1
     1  C    0.369261
     2  O    0.198289
     3  O    0.177619
     4  H   -0.053637
     5  O    0.843330
     6  O    0.100167
     7  O    0.369441
     8  H   -0.004470
 Sum of Mulliken atomic spin densities =   2.00000
 APT atomic charges:
              1
     1  C    1.497746
     2  O   -0.477059
     3  O   -0.737536
     4  H   -0.600070
     5  O   -0.017328
     6  O   -0.389924
     7  O    0.437921
     8  H    0.286250
 Sum of APT charges=   0.00000
 APT Atomic charges with hydrogens summed into heavy atoms:
              1
     1  C    1.497746
     2  O   -0.477059
     3  O   -0.737536
     4  H    0.000000
     5  O   -0.017328
     6  O   -0.103674
     7  O   -0.162149
     8  H    0.000000
 Sum of APT charges=   0.00000
 Electronic spatial extent (au):  <R**2>=            704.7068
 Charge=              0.0000 electrons
 Dipole moment (field-independent basis, Debye):
    X=              0.6829    Y=             -1.5523    Z=             -0.7833  Tot=              1.8680
 Quadrupole moment (field-independent basis, Debye-Ang):
   XX=            -38.2044   YY=            -33.1455   ZZ=            -33.0999
   XY=             -3.4842   XZ=             -0.7354   YZ=              0.1190
 Traceless Quadrupole moment (field-independent basis, Debye-Ang):
   XX=             -3.3878   YY=              1.6711   ZZ=              1.7167
   XY=             -3.4842   XZ=             -0.7354   YZ=              0.1190
 Octapole moment (field-independent basis, Debye-Ang**2):
  XXX=              1.2191  YYY=            -10.2742  ZZZ=              0.1737  XYY=             11.2989
  XXY=            -11.5854  XXZ=             -4.2146  XZZ=             -3.0630  YZZ=             -0.7395
  YYZ=             -1.2195  XYZ=              3.0021
 Hexadecapole moment (field-independent basis, Debye-Ang**3):
 XXXX=           -585.1006 YYYY=           -183.1143 ZZZZ=            -42.4785 XXXY=            -21.0861
 XXXZ=             -7.2066 YYYX=            -10.4972 YYYZ=             -1.0113 ZZZX=              0.0944
 ZZZY=              0.4792 XXYY=           -116.0909 XXZZ=           -102.8194 YYZZ=            -36.2340
 XXYZ=              3.9038 YYXZ=             -1.0478 ZZXY=              0.7595
 N-N= 2.270864383272D+02 E-N=-2.131889013672D+03  KE= 6.177604050882D+02
  Exact polarizability:  92.913  -6.826  42.489  -2.019  -0.358  26.043
 Approx polarizability:  84.745  -8.173  50.685  -3.260  -0.649  32.367
                          Isotropic Fermi Contact Couplings
        Atom                 a.u.       MegaHertz       Gauss      10(-4) cm-1
     1  C(13)              0.37275     209.52075      74.76221      69.88860
     2  O(17)              0.20076     -60.85057     -21.71300     -20.29757
     3  O(17)              0.05971     -18.09860      -6.45803      -6.03704
     4  H(1)              -0.03822     -85.41656     -30.47875     -28.49190
     5  O(17)              0.10449     -31.67059     -11.30085     -10.56417
     6  O(17)              0.01652      -5.00800      -1.78698      -1.67049
     7  O(17)              0.04387     -13.29604      -4.74436      -4.43508
     8  H(1)              -0.00185      -4.12376      -1.47146      -1.37554
 --------------------------------------------------------
       Center         ----  Spin Dipole Couplings  ----
                      3XX-RR        3YY-RR        3ZZ-RR
 --------------------------------------------------------
     1   Atom        0.378223     -0.206652     -0.171572
     2   Atom       -0.733071     -0.126282      0.859354
     3   Atom        0.594123     -0.280081     -0.314042
     4   Atom        0.214713     -0.105423     -0.109289
     5   Atom       -1.532725     -1.445763      2.978488
     6   Atom        0.516173     -0.253892     -0.262281
     7   Atom        1.740638     -0.943230     -0.797408
     8   Atom       -0.003096      0.017767     -0.014671
 --------------------------------------------------------
                        XY            XZ            YZ
 --------------------------------------------------------
     1   Atom       -0.004702     -0.092389     -0.002158
     2   Atom        0.009576      0.308977     -0.161244
     3   Atom        0.411553     -0.078329     -0.053230
     4   Atom       -0.033297     -0.052345      0.003413
     5   Atom        0.038920      0.879526     -0.799130
     6   Atom        0.017413     -0.101576      0.035695
     7   Atom        0.261178     -0.648854     -0.061127
     8   Atom       -0.004920      0.000372      0.010826
 --------------------------------------------------------


 ---------------------------------------------------------------------------------
              Anisotropic Spin Dipole Couplings in Principal Axis System
 ---------------------------------------------------------------------------------

       Atom             a.u.   MegaHertz   Gauss  10(-4) cm-1        Axes

              Baa    -0.2071   -27.790    -9.916    -9.270  0.0296  0.9901  0.1372
     1 C(13)  Bbb    -0.1863   -24.996    -8.919    -8.338  0.1588 -0.1401  0.9773
              Bcc     0.3934    52.786    18.835    17.607  0.9869 -0.0072 -0.1614
 
              Baa    -0.7933    57.400    20.482    19.147  0.9801 -0.0598 -0.1891
     2 O(17)  Bbb    -0.1470    10.636     3.795     3.548  0.0857  0.9875  0.1319
              Bcc     0.9403   -68.036   -24.277   -22.694  0.1788 -0.1455  0.9731
 
              Baa    -0.4467    32.324    11.534    10.782 -0.3523  0.9218  0.1618
     3 O(17)  Bbb    -0.3186    23.052     8.226     7.689  0.1384 -0.1197  0.9831
              Bcc     0.7653   -55.377   -19.760   -18.472  0.9256  0.3687 -0.0854
 
              Baa    -0.1179   -62.902   -22.445   -20.982  0.1714  0.1932  0.9661
     4 H(1)   Bbb    -0.1084   -57.855   -20.644   -19.298  0.0670  0.9760 -0.2071
              Bcc     0.2263   120.757    43.089    40.280  0.9829 -0.1002 -0.1543
 
              Baa    -1.8299   132.411    47.248    44.168  0.7819 -0.5758 -0.2387
     5 O(17)  Bbb    -1.4425   104.380    37.245    34.817  0.5979  0.8012  0.0259
              Bcc     3.2724  -236.791   -84.493   -78.985  0.1764 -0.1630  0.9707
 
              Baa    -0.3038    21.982     7.844     7.332  0.1106 -0.6035  0.7897
     6 O(17)  Bbb    -0.2256    16.326     5.826     5.446  0.0635  0.7972  0.6004
              Bcc     0.5294   -38.308   -13.669   -12.778  0.9918  0.0163 -0.1265
 
              Baa    -0.9685    70.083    25.007    23.377 -0.1168  0.9891 -0.0896
     7 O(17)  Bbb    -0.9535    68.992    24.618    23.013  0.2222  0.1140  0.9683
              Bcc     1.9220  -139.075   -49.625   -46.390  0.9680  0.0932 -0.2331
 
              Baa    -0.0182    -9.695    -3.459    -3.234 -0.1217 -0.3015  0.9456
     8 H(1)   Bbb    -0.0037    -1.988    -0.710    -0.663  0.9758  0.1379  0.1696
              Bcc     0.0219    11.683     4.169     3.897 -0.1816  0.9434  0.2775
 

 ---------------------------------------------------------------------------------

 Calling FoFJK, ICntrl=    100127 FMM=F ISym2X=0 I1Cent= 0 IOpClX= 1 NMat=1 NMatS=1 NMatT=0.
 -------------------------------------------------------------------
 Center     Atomic                   Forces (Hartrees/Bohr)
 Number     Number              X              Y              Z
 -------------------------------------------------------------------
      1        6           0.000001800    0.000000845   -0.000014528
      2        8           0.000000068   -0.000002899    0.000029953
      3        8           0.000003830    0.000009510   -0.000047543
      4        1           0.000006348   -0.000006301   -0.000044097
      5        8          -0.000001434    0.000000375    0.000046532
      6        8           0.000004079    0.000016839    0.000011653
      7        8          -0.000011003   -0.000014654   -0.000016665
      8        1          -0.000003689   -0.000003714    0.000034695
 -------------------------------------------------------------------
 Cartesian Forces:  Max     0.000047543 RMS     0.000020370
 IRC-IRC-IRC-IRC-IRC-IRC-IRC-IRC-IRC-IRC-IRC-IRC-IRC-IRC-IRC-IRC-IRC-IRC
          ******** Start new reaction path calculation ********
 Supplied step size of   0.1000 bohr.
    Integration on MW PES will use step size of   0.1045 sqrt(amu)*bohr.
 Point Number:   0          Path Number:   1
 Calculating another point on the path.
 IRC-IRC-IRC-IRC-IRC-IRC-IRC-IRC-IRC-IRC-IRC-IRC-IRC-IRC-IRC-IRC-IRC-IRC
                          Input orientation:                          
 ---------------------------------------------------------------------
 Center     Atomic      Atomic             Coordinates (Angstroms)
 Number     Number       Type             X           Y           Z
 ---------------------------------------------------------------------
      1          6           0       -0.491660    0.612769   -0.032850
      2          8           0       -0.802783   -0.760041   -0.184679
      3          8           0       -1.240385    1.467143    0.219141
      4          1           0        0.813569    0.657254   -0.241620
      5          8           0       -2.069459   -1.025593    0.001350
      6          8           0        2.307314   -0.546513    0.445230
      7          8           0        1.979253    0.448900   -0.435299
      8          1           0        2.279991   -1.349530   -0.093212
 ---------------------------------------------------------------------
                    Distance matrix (angstroms):
                    1          2          3          4          5
     1  C    0.000000
     2  O    1.415789   0.000000
     3  O    1.163634   2.305410   0.000000
     4  H    1.322568   2.150480   2.255426   0.000000
     5  O    2.274830   1.307514   2.636006   3.347067   0.000000
     6  O    3.067042   3.180422   4.085596   2.037669   4.425234
     7  O    2.508830   3.043694   3.439647   1.199892   4.330919
     8  H    3.396514   3.139962   4.519320   2.489900   4.362522
                    6          7          8
     6  O    0.000000
     7  O    1.368869   0.000000
     8  H    0.967214   1.855214   0.000000
 Symmetry turned off by external request.
 Stoichiometry    CH2O5(3)
 Framework group  C1[X(CH2O5)]
 Deg. of freedom    18
 Full point group                 C1      NOp   1
 Rotational constants (GHZ):      6.1012339      1.8881060      1.5072133
 Standard basis: 6-311+G(2df,2p) (5D, 7F)
 Integral buffers will be    131072 words long.
 Raffenetti 2 integral format.
 Two-electron integral symmetry is turned off.
   222 basis functions,   334 primitive gaussians,   252 cartesian basis functions
    25 alpha electrons       23 beta electrons
       nuclear repulsion energy       227.0859769127 Hartrees.
 NAtoms=    8 NActive=    8 NUniq=    8 SFac= 1.00D+00 NAtFMM=   50 NAOKFM=F Big=F
 One-electron integrals computed using PRISM.
 NBasis=   222 RedAO= T  NBF=   222
 NBsUse=   222 1.00D-06 NBFU=   222
 Initial guess read from the read-write file.
 B after Tr=     0.000000    0.000000    0.000000
         Rot=    1.000000    0.000000    0.000000    0.000000 Ang=   0.00 deg.
 Initial guess <Sx>= 0.0000 <Sy>= 0.0000 <Sz>= 1.0000 <S**2>= 2.0150 S= 1.0050
 Harris functional with IExCor= 1009 diagonalized for initial guess.
 ExpMin= 4.38D-02 ExpMax= 8.59D+03 ExpMxC= 1.30D+03 IAcc=2 IRadAn=         0 AccDes= 0.00D+00
 HarFok:  IExCor= 1009 AccDes= 0.00D+00 IRadAn=         0 IDoV= 1
 ScaDFX=  1.000000  1.000000  1.000000  1.000000
 FoFCou: FMM=F IPFlag=           0 FMFlag=      100000 FMFlg1=           0
         NFxFlg=           0 DoJE=T BraDBF=F KetDBF=T FulRan=T
         Omega=  0.000000  0.000000  1.000000  0.000000  0.000000 ICntrl=     500 IOpCl=  0
         NMat0=    1 NMatS0=    1 NMatT0=    0 NMatD0=    1 NMtDS0=    0 NMtDT0=    0
         I1Cent=           4 NGrid=           0.
 Symmetry not used in FoFCou.
 Requested convergence on RMS density matrix=1.00D-08 within 128 cycles.
 Requested convergence on MAX density matrix=1.00D-06.
 Requested convergence on             energy=1.00D-06.
 No special actions if energy rises.
 SCF Done:  E(UM062X) =  -415.088804394     A.U. after   17 cycles
             Convg  =    0.5827D-08             -V/T =  2.0027
 <Sx>= 0.0000 <Sy>= 0.0000 <Sz>= 1.0000 <S**2>= 2.0150 S= 1.0050
 <L.S>= 0.000000000000E+00
 Annihilation of the first spin contaminant:
 S**2 before annihilation     2.0150,   after     2.0001
 Range of M.O.s used for correlation:     1   222
 NBasis=   222 NAE=    25 NBE=    23 NFC=     0 NFV=     0
 NROrb=    222 NOA=    25 NOB=    23 NVA=   197 NVB=   199

 **** Warning!!: The largest alpha MO coefficient is  0.14935312D+02


 **** Warning!!: The largest beta MO coefficient is  0.17388811D+02

 Symmetrizing basis deriv contribution to polar:
 IMax=3 JMax=2 DiffMx= 0.00D+00
 G2DrvN: will do     9 centers at a time, making    1 passes doing MaxLOS=3.
 Calling FoFCou, ICntrl=  3107 FMM=F I1Cent=   0 AccDes= 0.00D+00.
 FoFDir/FoFCou used for L=0 through L=3.
 End of G2Drv Frequency-dependent properties file   721 does not exist.
 End of G2Drv Frequency-dependent properties file   722 does not exist.
          IDoAtm=11111111
          Differentiating once with respect to electric field.
                with respect to dipole field.
          Differentiating once with respect to nuclear coordinates.
          There are    27 degrees of freedom in the 1st order CPHF.  IDoFFX=5.
     24 vectors produced by pass  0 Test12= 3.52D-14 3.70D-09 XBig12= 1.21D+02 8.86D+00.
 AX will form    24 AO Fock derivatives at one time.
     24 vectors produced by pass  1 Test12= 3.52D-14 3.70D-09 XBig12= 2.42D+01 7.33D-01.
     24 vectors produced by pass  2 Test12= 3.52D-14 3.70D-09 XBig12= 1.71D+00 3.37D-01.
     24 vectors produced by pass  3 Test12= 3.52D-14 3.70D-09 XBig12= 5.76D-02 3.58D-02.
     24 vectors produced by pass  4 Test12= 3.52D-14 3.70D-09 XBig12= 1.91D-03 6.33D-03.
     24 vectors produced by pass  5 Test12= 3.52D-14 3.70D-09 XBig12= 4.49D-05 7.41D-04.
     24 vectors produced by pass  6 Test12= 3.52D-14 3.70D-09 XBig12= 6.74D-07 1.24D-04.
     24 vectors produced by pass  7 Test12= 3.52D-14 3.70D-09 XBig12= 7.65D-09 8.65D-06.
     11 vectors produced by pass  8 Test12= 3.52D-14 3.70D-09 XBig12= 6.43D-11 9.18D-07.
      3 vectors produced by pass  9 Test12= 3.52D-14 3.70D-09 XBig12= 6.41D-13 9.96D-08.
      1 vectors produced by pass 10 Test12= 3.52D-14 3.70D-09 XBig12= 6.42D-15 7.81D-09.
 Inverted reduced A of dimension   207 with in-core refinement.
 Isotropic polarizability for W=    0.000000       54.29 Bohr**3.
 End of Minotr Frequency-dependent properties file   721 does not exist.
 End of Minotr Frequency-dependent properties file   722 does not exist.
 Calling FoFJK, ICntrl=    100127 FMM=F ISym2X=0 I1Cent= 0 IOpClX= 1 NMat=1 NMatS=1 NMatT=0.
 -------------------------------------------------------------------
 Center     Atomic                   Forces (Hartrees/Bohr)
 Number     Number              X              Y              Z
 -------------------------------------------------------------------
      1        6           0.009690285    0.000736371   -0.001940806
      2        8          -0.001140775    0.000254129    0.000345147
      3        8          -0.001327156   -0.000353681    0.000197891
      4        1          -0.016776492    0.001775748    0.002311585
      5        8           0.000099827   -0.000160179    0.000014515
      6        8          -0.000842180    0.005857797   -0.005415618
      7        8           0.010429551   -0.007878942    0.004442241
      8        1          -0.000133059   -0.000231242    0.000045044
 -------------------------------------------------------------------
 Cartesian Forces:  Max     0.016776492 RMS     0.005190602
 IRC-IRC-IRC-IRC-IRC-IRC-IRC-IRC-IRC-IRC-IRC-IRC-IRC-IRC-IRC-IRC-IRC-IRC
 Pt  1 Step number   1 out of a maximum of  20
 CORRECTOR INTEGRATION CONVERGENCE:
   Recorrection delta-x convergence threshold:    0.010000
   Delta-x Convergence Met
 Point Number:   1          Path Number:   1
   CHANGE IN THE REACTION COORDINATE =    0.10452
   NET REACTION COORDINATE UP TO THIS POINT =    0.10452
  # OF POINTS ALONG THE PATH =   1
  # OF STEPS =   1

 Calculating another point on the path.
 IRC-IRC-IRC-IRC-IRC-IRC-IRC-IRC-IRC-IRC-IRC-IRC-IRC-IRC-IRC-IRC-IRC-IRC
                          Input orientation:                          
 ---------------------------------------------------------------------
 Center     Atomic      Atomic             Coordinates (Angstroms)
 Number     Number       Type             X           Y           Z
 ---------------------------------------------------------------------
      1          6           0       -0.489275    0.612913   -0.033336
      2          8           0       -0.803004   -0.759987   -0.184610
      3          8           0       -1.240688    1.467115    0.219191
      4          1           0        0.761465    0.662915   -0.234248
      5          8           0       -2.069446   -1.025630    0.001355
      6          8           0        2.307135   -0.545390    0.444204
      7          8           0        1.981458    0.447368   -0.434504
      8          1           0        2.279650   -1.350245   -0.093092
 ---------------------------------------------------------------------
                    Distance matrix (angstroms):
                    1          2          3          4          5
     1  C    0.000000
     2  O    1.416391   0.000000
     3  O    1.165355   2.305343   0.000000
     4  H    1.267761   2.115343   2.204759   0.000000
     5  O    2.276613   1.307297   2.635920   3.304656   0.000000
     6  O    3.064249   3.180318   4.085077   2.075908   4.425066
     7  O    2.508558   3.045223   3.442299   1.254968   4.332381
     8  H    3.394776   3.139989   4.519714   2.525395   4.362216
                    6          7          8
     6  O    0.000000
     7  O    1.365196   0.000000
     8  H    0.968108   1.853886   0.000000
 Symmetry turned off by external request.
 Stoichiometry    CH2O5(3)
 Framework group  C1[X(CH2O5)]
 Deg. of freedom    18
 Full point group                 C1      NOp   1
 Rotational constants (GHZ):      6.1056588      1.8880934      1.5072150
 Standard basis: 6-311+G(2df,2p) (5D, 7F)
 Integral buffers will be    131072 words long.
 Raffenetti 2 integral format.
 Two-electron integral symmetry is turned off.
   222 basis functions,   334 primitive gaussians,   252 cartesian basis functions
    25 alpha electrons       23 beta electrons
       nuclear repulsion energy       227.1014129126 Hartrees.
 NAtoms=    8 NActive=    8 NUniq=    8 SFac= 1.00D+00 NAtFMM=   50 NAOKFM=F Big=F
 One-electron integrals computed using PRISM.
 NBasis=   222 RedAO= T  NBF=   222
 NBsUse=   222 1.00D-06 NBFU=   222
 Initial guess read from the read-write file.
 B after Tr=     0.000000    0.000000    0.000000
         Rot=    1.000000    0.000000    0.000000    0.000000 Ang=   0.00 deg.
 Initial guess <Sx>= 0.0000 <Sy>= 0.0000 <Sz>= 1.0000 <S**2>= 2.0148 S= 1.0049
 Harris functional with IExCor= 1009 diagonalized for initial guess.
 ExpMin= 4.38D-02 ExpMax= 8.59D+03 ExpMxC= 1.30D+03 IAcc=2 IRadAn=         0 AccDes= 0.00D+00
 HarFok:  IExCor= 1009 AccDes= 0.00D+00 IRadAn=         0 IDoV= 1
 ScaDFX=  1.000000  1.000000  1.000000  1.000000
 FoFCou: FMM=F IPFlag=           0 FMFlag=      100000 FMFlg1=           0
         NFxFlg=           0 DoJE=T BraDBF=F KetDBF=T FulRan=T
         Omega=  0.000000  0.000000  1.000000  0.000000  0.000000 ICntrl=     500 IOpCl=  0
         NMat0=    1 NMatS0=    1 NMatT0=    0 NMatD0=    1 NMtDS0=    0 NMtDT0=    0
         I1Cent=           4 NGrid=           0.
 Symmetry not used in FoFCou.
 Requested convergence on RMS density matrix=1.00D-08 within 128 cycles.
 Requested convergence on MAX density matrix=1.00D-06.
 Requested convergence on             energy=1.00D-06.
 No special actions if energy rises.
 Restarting incremental Fock formation.
 SCF Done:  E(UM062X) =  -415.091602943     A.U. after   21 cycles
             Convg  =    0.4014D-08             -V/T =  2.0027
 <Sx>= 0.0000 <Sy>= 0.0000 <Sz>= 1.0000 <S**2>= 2.0137 S= 1.0046
 <L.S>= 0.000000000000E+00
 Annihilation of the first spin contaminant:
 S**2 before annihilation     2.0137,   after     2.0001
 Range of M.O.s used for correlation:     1   222
 NBasis=   222 NAE=    25 NBE=    23 NFC=     0 NFV=     0
 NROrb=    222 NOA=    25 NOB=    23 NVA=   197 NVB=   199

 **** Warning!!: The largest alpha MO coefficient is  0.15064507D+02


 **** Warning!!: The largest beta MO coefficient is  0.17781392D+02

 Symmetrizing basis deriv contribution to polar:
 IMax=3 JMax=2 DiffMx= 0.00D+00
 G2DrvN: will do     9 centers at a time, making    1 passes doing MaxLOS=3.
 Calling FoFCou, ICntrl=  3107 FMM=F I1Cent=   0 AccDes= 0.00D+00.
 FoFDir/FoFCou used for L=0 through L=3.
 End of G2Drv Frequency-dependent properties file   721 does not exist.
 End of G2Drv Frequency-dependent properties file   722 does not exist.
          IDoAtm=11111111
          Differentiating once with respect to electric field.
                with respect to dipole field.
          Differentiating once with respect to nuclear coordinates.
          There are    27 degrees of freedom in the 1st order CPHF.  IDoFFX=5.
     24 vectors produced by pass  0 Test12= 3.52D-14 3.70D-09 XBig12= 1.09D+02 8.06D+00.
 AX will form    24 AO Fock derivatives at one time.
     24 vectors produced by pass  1 Test12= 3.52D-14 3.70D-09 XBig12= 2.12D+01 8.30D-01.
     24 vectors produced by pass  2 Test12= 3.52D-14 3.70D-09 XBig12= 1.41D+00 3.41D-01.
     24 vectors produced by pass  3 Test12= 3.52D-14 3.70D-09 XBig12= 4.55D-02 3.44D-02.
     24 vectors produced by pass  4 Test12= 3.52D-14 3.70D-09 XBig12= 1.61D-03 5.29D-03.
     24 vectors produced by pass  5 Test12= 3.52D-14 3.70D-09 XBig12= 3.80D-05 7.63D-04.
     24 vectors produced by pass  6 Test12= 3.52D-14 3.70D-09 XBig12= 5.24D-07 9.73D-05.
     24 vectors produced by pass  7 Test12= 3.52D-14 3.70D-09 XBig12= 5.89D-09 8.50D-06.
     10 vectors produced by pass  8 Test12= 3.52D-14 3.70D-09 XBig12= 5.27D-11 7.38D-07.
      3 vectors produced by pass  9 Test12= 3.52D-14 3.70D-09 XBig12= 5.16D-13 7.57D-08.
      1 vectors produced by pass 10 Test12= 3.52D-14 3.70D-09 XBig12= 4.95D-15 7.79D-09.
 Inverted reduced A of dimension   206 with in-core refinement.
 Isotropic polarizability for W=    0.000000       52.44 Bohr**3.
 End of Minotr Frequency-dependent properties file   721 does not exist.
 End of Minotr Frequency-dependent properties file   722 does not exist.
 Calling FoFJK, ICntrl=    100127 FMM=F ISym2X=0 I1Cent= 0 IOpClX= 1 NMat=1 NMatS=1 NMatT=0.
 -------------------------------------------------------------------
 Center     Atomic                   Forces (Hartrees/Bohr)
 Number     Number              X              Y              Z
 -------------------------------------------------------------------
      1        6           0.017709593    0.001242373   -0.003619578
      2        8          -0.002351572    0.000531132    0.000689598
      3        8          -0.003296438   -0.000320809    0.000611412
      4        1          -0.032988391    0.003562542    0.004707876
      5        8           0.000158328   -0.000400717   -0.000027099
      6        8          -0.002006196    0.011754547   -0.010828629
      7        8           0.022966277   -0.015934991    0.008409324
      8        1          -0.000191601   -0.000434077    0.000057094
 -------------------------------------------------------------------
 Cartesian Forces:  Max     0.032988391 RMS     0.010370137
 IRC-IRC-IRC-IRC-IRC-IRC-IRC-IRC-IRC-IRC-IRC-IRC-IRC-IRC-IRC-IRC-IRC-IRC
 Pt  2 Step number   1 out of a maximum of  20
 CORRECTOR INTEGRATION CONVERGENCE:
   Recorrection delta-x convergence threshold:    0.010000
   Delta-x Convergence Met
 Point Number:   2          Path Number:   1
   CHANGE IN THE REACTION COORDINATE =    0.10449
   NET REACTION COORDINATE UP TO THIS POINT =    0.20901
  # OF POINTS ALONG THE PATH =   2
  # OF STEPS =   1

 Calculating another point on the path.
 IRC-IRC-IRC-IRC-IRC-IRC-IRC-IRC-IRC-IRC-IRC-IRC-IRC-IRC-IRC-IRC-IRC-IRC
                          Input orientation:                          
 ---------------------------------------------------------------------
 Center     Atomic      Atomic             Coordinates (Angstroms)
 Number     Number       Type             X           Y           Z
 ---------------------------------------------------------------------
      1          6           0       -0.487045    0.613069   -0.033801
      2          8           0       -0.803246   -0.759931   -0.184539
      3          8           0       -1.241049    1.467095    0.219261
      4          1           0        0.709602    0.668669   -0.226747
      5          8           0       -2.069430   -1.025672    0.001351
      6          8           0        2.306914   -0.544186    0.443096
      7          8           0        1.983876    0.445735   -0.433663
      8          1           0        2.279400   -1.350932   -0.092992
 ---------------------------------------------------------------------
                    Distance matrix (angstroms):
                    1          2          3          4          5
     1  C    0.000000
     2  O    1.416980   0.000000
     3  O    1.167015   2.305292   0.000000
     4  H    1.213377   2.081199   2.154402   0.000000
     5  O    2.278300   1.307057   2.635828   3.262797   0.000000
     6  O    3.061516   3.180183   4.084532   2.114501   4.424857
     7  O    2.508653   3.046923   3.445233   1.310071   4.334001
     8  H    3.393231   3.140122   4.520215   2.561433   4.361997
                    6          7          8
     6  O    0.000000
     7  O    1.361251   0.000000
     8  H    0.969013   1.852404   0.000000
 Symmetry turned off by external request.
 Stoichiometry    CH2O5(3)
 Framework group  C1[X(CH2O5)]
 Deg. of freedom    18
 Full point group                 C1      NOp   1
 Rotational constants (GHZ):      6.1103451      1.8879414      1.5071288
 Standard basis: 6-311+G(2df,2p) (5D, 7F)
 Integral buffers will be    131072 words long.
 Raffenetti 2 integral format.
 Two-electron integral symmetry is turned off.
   222 basis functions,   334 primitive gaussians,   252 cartesian basis functions
    25 alpha electrons       23 beta electrons
       nuclear repulsion energy       227.1459562141 Hartrees.
 NAtoms=    8 NActive=    8 NUniq=    8 SFac= 1.00D+00 NAtFMM=   50 NAOKFM=F Big=F
 One-electron integrals computed using PRISM.
 NBasis=   222 RedAO= T  NBF=   222
 NBsUse=   222 1.00D-06 NBFU=   222
 Initial guess read from the read-write file.
 B after Tr=     0.000000    0.000000    0.000000
         Rot=    1.000000    0.000000    0.000000    0.000000 Ang=   0.00 deg.
 Initial guess <Sx>= 0.0000 <Sy>= 0.0000 <Sz>= 1.0000 <S**2>= 2.0135 S= 1.0045
 Harris functional with IExCor= 1009 diagonalized for initial guess.
 ExpMin= 4.38D-02 ExpMax= 8.59D+03 ExpMxC= 1.30D+03 IAcc=2 IRadAn=         0 AccDes= 0.00D+00
 HarFok:  IExCor= 1009 AccDes= 0.00D+00 IRadAn=         0 IDoV= 1
 ScaDFX=  1.000000  1.000000  1.000000  1.000000
 FoFCou: FMM=F IPFlag=           0 FMFlag=      100000 FMFlg1=           0
         NFxFlg=           0 DoJE=T BraDBF=F KetDBF=T FulRan=T
         Omega=  0.000000  0.000000  1.000000  0.000000  0.000000 ICntrl=     500 IOpCl=  0
         NMat0=    1 NMatS0=    1 NMatT0=    0 NMatD0=    1 NMtDS0=    0 NMtDT0=    0
         I1Cent=           4 NGrid=           0.
 Symmetry not used in FoFCou.
 Requested convergence on RMS density matrix=1.00D-08 within 128 cycles.
 Requested convergence on MAX density matrix=1.00D-06.
 Requested convergence on             energy=1.00D-06.
 No special actions if energy rises.
 Restarting incremental Fock formation.
 SCF Done:  E(UM062X) =  -415.095704329     A.U. after   21 cycles
             Convg  =    0.2991D-08             -V/T =  2.0026
 <Sx>= 0.0000 <Sy>= 0.0000 <Sz>= 1.0000 <S**2>= 2.0123 S= 1.0041
 <L.S>= 0.000000000000E+00
 Annihilation of the first spin contaminant:
 S**2 before annihilation     2.0123,   after     2.0001
 Range of M.O.s used for correlation:     1   222
 NBasis=   222 NAE=    25 NBE=    23 NFC=     0 NFV=     0
 NROrb=    222 NOA=    25 NOB=    23 NVA=   197 NVB=   199

 **** Warning!!: The largest alpha MO coefficient is  0.15119460D+02


 **** Warning!!: The largest beta MO coefficient is  0.17962009D+02

 Symmetrizing basis deriv contribution to polar:
 IMax=3 JMax=2 DiffMx= 0.00D+00
 G2DrvN: will do     9 centers at a time, making    1 passes doing MaxLOS=3.
 Calling FoFCou, ICntrl=  3107 FMM=F I1Cent=   0 AccDes= 0.00D+00.
 FoFDir/FoFCou used for L=0 through L=3.
 End of G2Drv Frequency-dependent properties file   721 does not exist.
 End of G2Drv Frequency-dependent properties file   722 does not exist.
          IDoAtm=11111111
          Differentiating once with respect to electric field.
                with respect to dipole field.
          Differentiating once with respect to nuclear coordinates.
          There are    27 degrees of freedom in the 1st order CPHF.  IDoFFX=5.
     24 vectors produced by pass  0 Test12= 3.52D-14 3.70D-09 XBig12= 9.27D+01 6.88D+00.
 AX will form    24 AO Fock derivatives at one time.
     24 vectors produced by pass  1 Test12= 3.52D-14 3.70D-09 XBig12= 1.80D+01 7.42D-01.
     24 vectors produced by pass  2 Test12= 3.52D-14 3.70D-09 XBig12= 1.14D+00 3.47D-01.
     24 vectors produced by pass  3 Test12= 3.52D-14 3.70D-09 XBig12= 3.50D-02 3.52D-02.
     24 vectors produced by pass  4 Test12= 3.52D-14 3.70D-09 XBig12= 1.21D-03 5.49D-03.
     24 vectors produced by pass  5 Test12= 3.52D-14 3.70D-09 XBig12= 2.72D-05 6.67D-04.
     24 vectors produced by pass  6 Test12= 3.52D-14 3.70D-09 XBig12= 3.66D-07 9.27D-05.
     24 vectors produced by pass  7 Test12= 3.52D-14 3.70D-09 XBig12= 4.37D-09 7.65D-06.
     11 vectors produced by pass  8 Test12= 3.52D-14 3.70D-09 XBig12= 3.80D-11 6.67D-07.
      3 vectors produced by pass  9 Test12= 3.52D-14 3.70D-09 XBig12= 3.68D-13 7.60D-08.
      1 vectors produced by pass 10 Test12= 3.52D-14 3.70D-09 XBig12= 3.46D-15 4.99D-09.
 Inverted reduced A of dimension   207 with in-core refinement.
 Isotropic polarizability for W=    0.000000       49.06 Bohr**3.
 End of Minotr Frequency-dependent properties file   721 does not exist.
 End of Minotr Frequency-dependent properties file   722 does not exist.
 Calling FoFJK, ICntrl=    100127 FMM=F ISym2X=0 I1Cent= 0 IOpClX= 1 NMat=1 NMatS=1 NMatT=0.
 -------------------------------------------------------------------
 Center     Atomic                   Forces (Hartrees/Bohr)
 Number     Number              X              Y              Z
 -------------------------------------------------------------------
      1        6           0.018143162    0.001598118   -0.003985578
      2        8          -0.003295237    0.000723212    0.000956458
      3        8          -0.004981067   -0.000335026    0.000965529
      4        1          -0.039052448    0.004802315    0.005670253
      5        8           0.000250279   -0.000535070   -0.000066025
      6        8          -0.003135955    0.016124165   -0.014959490
      7        8           0.032228129   -0.021871494    0.011284468
      8        1          -0.000156863   -0.000506220    0.000134385
 -------------------------------------------------------------------
 Cartesian Forces:  Max     0.039052448 RMS     0.013077793
 IRC-IRC-IRC-IRC-IRC-IRC-IRC-IRC-IRC-IRC-IRC-IRC-IRC-IRC-IRC-IRC-IRC-IRC
 Pt  3 Step number   1 out of a maximum of  20
 CORRECTOR INTEGRATION CONVERGENCE:
   Recorrection delta-x convergence threshold:    0.010000
   Delta-x Convergence Met
 Point Number:   3          Path Number:   1
   CHANGE IN THE REACTION COORDINATE =    0.10449
   NET REACTION COORDINATE UP TO THIS POINT =    0.31350
  # OF POINTS ALONG THE PATH =   3
  # OF STEPS =   1

 Calculating another point on the path.
 IRC-IRC-IRC-IRC-IRC-IRC-IRC-IRC-IRC-IRC-IRC-IRC-IRC-IRC-IRC-IRC-IRC-IRC
                          Input orientation:                          
 ---------------------------------------------------------------------
 Center     Atomic      Atomic             Coordinates (Angstroms)
 Number     Number       Type             X           Y           Z
 ---------------------------------------------------------------------
      1          6           0       -0.485292    0.613258   -0.034217
      2          8           0       -0.803551   -0.759863   -0.184450
      3          8           0       -1.241537    1.467070    0.219357
      4          1           0        0.658607    0.675547   -0.219336
      5          8           0       -2.069406   -1.025720    0.001345
      6          8           0        2.306613   -0.542708    0.441717
      7          8           0        1.986854    0.443730   -0.432635
      8          1           0        2.279248   -1.351597   -0.092731
 ---------------------------------------------------------------------
                    Distance matrix (angstroms):
                    1          2          3          4          5
     1  C    0.000000
     2  O    1.417505   0.000000
     3  O    1.168419   2.305238   0.000000
     4  H    1.160454   2.049274   2.104639   0.000000
     5  O    2.279678   1.306748   2.635697   3.222587   0.000000
     6  O    3.059003   3.179993   4.083873   2.153384   4.424564
     7  O    2.509777   3.049030   3.448888   1.365091   4.335996
     8  H    3.392161   3.140416   4.520864   2.598427   4.361862
                    6          7          8
     6  O    0.000000
     7  O    1.356391   0.000000
     8  H    0.969889   1.850467   0.000000
 Symmetry turned off by external request.
 Stoichiometry    CH2O5(3)
 Framework group  C1[X(CH2O5)]
 Deg. of freedom    18
 Full point group                 C1      NOp   1
 Rotational constants (GHZ):      6.1161000      1.8874916      1.5068613
 Standard basis: 6-311+G(2df,2p) (5D, 7F)
 Integral buffers will be    131072 words long.
 Raffenetti 2 integral format.
 Two-electron integral symmetry is turned off.
   222 basis functions,   334 primitive gaussians,   252 cartesian basis functions
    25 alpha electrons       23 beta electrons
       nuclear repulsion energy       227.2286028470 Hartrees.
 NAtoms=    8 NActive=    8 NUniq=    8 SFac= 1.00D+00 NAtFMM=   50 NAOKFM=F Big=F
 One-electron integrals computed using PRISM.
 NBasis=   222 RedAO= T  NBF=   222
 NBsUse=   222 1.00D-06 NBFU=   222
 Initial guess read from the read-write file.
 B after Tr=     0.000000    0.000000    0.000000
         Rot=    1.000000    0.000000    0.000000    0.000000 Ang=   0.00 deg.
 Initial guess <Sx>= 0.0000 <Sy>= 0.0000 <Sz>= 1.0000 <S**2>= 2.0121 S= 1.0040
 Harris functional with IExCor= 1009 diagonalized for initial guess.
 ExpMin= 4.38D-02 ExpMax= 8.59D+03 ExpMxC= 1.30D+03 IAcc=2 IRadAn=         0 AccDes= 0.00D+00
 HarFok:  IExCor= 1009 AccDes= 0.00D+00 IRadAn=         0 IDoV= 1
 ScaDFX=  1.000000  1.000000  1.000000  1.000000
 FoFCou: FMM=F IPFlag=           0 FMFlag=      100000 FMFlg1=           0
         NFxFlg=           0 DoJE=T BraDBF=F KetDBF=T FulRan=T
         Omega=  0.000000  0.000000  1.000000  0.000000  0.000000 ICntrl=     500 IOpCl=  0
         NMat0=    1 NMatS0=    1 NMatT0=    0 NMatD0=    1 NMtDS0=    0 NMtDT0=    0
         I1Cent=           4 NGrid=           0.
 Symmetry not used in FoFCou.
 Requested convergence on RMS density matrix=1.00D-08 within 128 cycles.
 Requested convergence on MAX density matrix=1.00D-06.
 Requested convergence on             energy=1.00D-06.
 No special actions if energy rises.
 Restarting incremental Fock formation.
 SCF Done:  E(UM062X) =  -415.099877727     A.U. after   21 cycles
             Convg  =    0.2126D-08             -V/T =  2.0026
 <Sx>= 0.0000 <Sy>= 0.0000 <Sz>= 1.0000 <S**2>= 2.0112 S= 1.0037
 <L.S>= 0.000000000000E+00
 Annihilation of the first spin contaminant:
 S**2 before annihilation     2.0112,   after     2.0001
 Range of M.O.s used for correlation:     1   222
 NBasis=   222 NAE=    25 NBE=    23 NFC=     0 NFV=     0
 NROrb=    222 NOA=    25 NOB=    23 NVA=   197 NVB=   199

 **** Warning!!: The largest alpha MO coefficient is  0.16057764D+02


 **** Warning!!: The largest beta MO coefficient is  0.17668866D+02

 Symmetrizing basis deriv contribution to polar:
 IMax=3 JMax=2 DiffMx= 0.00D+00
 G2DrvN: will do     9 centers at a time, making    1 passes doing MaxLOS=3.
 Calling FoFCou, ICntrl=  3107 FMM=F I1Cent=   0 AccDes= 0.00D+00.
 FoFDir/FoFCou used for L=0 through L=3.
 End of G2Drv Frequency-dependent properties file   721 does not exist.
 End of G2Drv Frequency-dependent properties file   722 does not exist.
          IDoAtm=11111111
          Differentiating once with respect to electric field.
                with respect to dipole field.
          Differentiating once with respect to nuclear coordinates.
          There are    27 degrees of freedom in the 1st order CPHF.  IDoFFX=5.
     24 vectors produced by pass  0 Test12= 3.52D-14 3.70D-09 XBig12= 7.63D+01 5.69D+00.
 AX will form    24 AO Fock derivatives at one time.
     24 vectors produced by pass  1 Test12= 3.52D-14 3.70D-09 XBig12= 1.57D+01 6.67D-01.
     24 vectors produced by pass  2 Test12= 3.52D-14 3.70D-09 XBig12= 9.74D-01 3.55D-01.
     24 vectors produced by pass  3 Test12= 3.52D-14 3.70D-09 XBig12= 2.83D-02 3.45D-02.
     24 vectors produced by pass  4 Test12= 3.52D-14 3.70D-09 XBig12= 9.14D-04 5.55D-03.
     24 vectors produced by pass  5 Test12= 3.52D-14 3.70D-09 XBig12= 1.96D-05 4.64D-04.
     24 vectors produced by pass  6 Test12= 3.52D-14 3.70D-09 XBig12= 2.72D-07 8.64D-05.
     24 vectors produced by pass  7 Test12= 3.52D-14 3.70D-09 XBig12= 3.43D-09 8.35D-06.
     10 vectors produced by pass  8 Test12= 3.52D-14 3.70D-09 XBig12= 2.79D-11 5.19D-07.
      3 vectors produced by pass  9 Test12= 3.52D-14 3.70D-09 XBig12= 3.01D-13 6.14D-08.
      2 vectors produced by pass 10 Test12= 3.52D-14 3.70D-09 XBig12= 3.24D-15 6.41D-09.
 Inverted reduced A of dimension   207 with in-core refinement.
 Isotropic polarizability for W=    0.000000       45.85 Bohr**3.
 End of Minotr Frequency-dependent properties file   721 does not exist.
 End of Minotr Frequency-dependent properties file   722 does not exist.
 Calling FoFJK, ICntrl=    100127 FMM=F ISym2X=0 I1Cent= 0 IOpClX= 1 NMat=1 NMatS=1 NMatT=0.
 -------------------------------------------------------------------
 Center     Atomic                   Forces (Hartrees/Bohr)
 Number     Number              X              Y              Z
 -------------------------------------------------------------------
      1        6           0.009455012    0.001572167   -0.002801597
      2        8          -0.003733111    0.000894386    0.001116328
      3        8          -0.006408559   -0.000330372    0.001279413
      4        1          -0.032993136    0.005463297    0.004730463
      5        8           0.000339311   -0.000545701   -0.000083176
      6        8          -0.003856320    0.018295072   -0.017232467
      7        8           0.037263530   -0.024915696    0.012702721
      8        1          -0.000066727   -0.000433153    0.000288316
 -------------------------------------------------------------------
 Cartesian Forces:  Max     0.037263530 RMS     0.013097779
 IRC-IRC-IRC-IRC-IRC-IRC-IRC-IRC-IRC-IRC-IRC-IRC-IRC-IRC-IRC-IRC-IRC-IRC
 Pt  4 Step number   1 out of a maximum of  20
 CORRECTOR INTEGRATION CONVERGENCE:
   Recorrection delta-x convergence threshold:    0.010000
   Delta-x Convergence Met
 Point Number:   4          Path Number:   1
   CHANGE IN THE REACTION COORDINATE =    0.10444
   NET REACTION COORDINATE UP TO THIS POINT =    0.41794
  # OF POINTS ALONG THE PATH =   4
  # OF STEPS =   1

 Calculating another point on the path.
 IRC-IRC-IRC-IRC-IRC-IRC-IRC-IRC-IRC-IRC-IRC-IRC-IRC-IRC-IRC-IRC-IRC-IRC
                          Input orientation:                          
 ---------------------------------------------------------------------
 Center     Atomic      Atomic             Coordinates (Angstroms)
 Number     Number       Type             X           Y           Z
 ---------------------------------------------------------------------
      1          6           0       -0.484841    0.613463   -0.034502
      2          8           0       -0.803975   -0.759750   -0.184318
      3          8           0       -1.242373    1.467058    0.219530
      4          1           0        0.610906    0.685485   -0.212643
      5          8           0       -2.069370   -1.025782    0.001336
      6          8           0        2.306165   -0.540633    0.439741
      7          8           0        1.991195    0.440876   -0.431205
      8          1           0        2.279227   -1.352265   -0.092049
 ---------------------------------------------------------------------
                    Distance matrix (angstroms):
                    1          2          3          4          5
     1  C    0.000000
     2  O    1.417746   0.000000
     3  O    1.169193   2.305203   0.000000
     4  H    1.112467   2.022719   2.057250   0.000000
     5  O    2.280163   1.306318   2.635486   3.187178   0.000000
     6  O    3.057214   3.179691   4.083068   2.191545   4.424125
     7  O    2.513546   3.052119   3.454340   1.418731   4.338936
     8  H    3.392267   3.140975   4.521873   2.636335   4.361836
                    6          7          8
     6  O    0.000000
     7  O    1.349487   0.000000
     8  H    0.970708   1.847525   0.000000
 Symmetry turned off by external request.
 Stoichiometry    CH2O5(3)
 Framework group  C1[X(CH2O5)]
 Deg. of freedom    18
 Full point group                 C1      NOp   1
 Rotational constants (GHZ):      6.1241352      1.8863106      1.5061439
 Standard basis: 6-311+G(2df,2p) (5D, 7F)
 Integral buffers will be    131072 words long.
 Raffenetti 2 integral format.
 Two-electron integral symmetry is turned off.
   222 basis functions,   334 primitive gaussians,   252 cartesian basis functions
    25 alpha electrons       23 beta electrons
       nuclear repulsion energy       227.3585259355 Hartrees.
 NAtoms=    8 NActive=    8 NUniq=    8 SFac= 1.00D+00 NAtFMM=   50 NAOKFM=F Big=F
 One-electron integrals computed using PRISM.
 NBasis=   222 RedAO= T  NBF=   222
 NBsUse=   222 1.00D-06 NBFU=   222
 Initial guess read from the read-write file.
 B after Tr=     0.000000    0.000000    0.000000
         Rot=    1.000000    0.000000    0.000000    0.000000 Ang=   0.00 deg.
 Initial guess <Sx>= 0.0000 <Sy>= 0.0000 <Sz>= 1.0000 <S**2>= 2.0111 S= 1.0037
 Harris functional with IExCor= 1009 diagonalized for initial guess.
 ExpMin= 4.38D-02 ExpMax= 8.59D+03 ExpMxC= 1.30D+03 IAcc=2 IRadAn=         0 AccDes= 0.00D+00
 HarFok:  IExCor= 1009 AccDes= 0.00D+00 IRadAn=         0 IDoV= 1
 ScaDFX=  1.000000  1.000000  1.000000  1.000000
 FoFCou: FMM=F IPFlag=           0 FMFlag=      100000 FMFlg1=           0
         NFxFlg=           0 DoJE=T BraDBF=F KetDBF=T FulRan=T
         Omega=  0.000000  0.000000  1.000000  0.000000  0.000000 ICntrl=     500 IOpCl=  0
         NMat0=    1 NMatS0=    1 NMatT0=    0 NMatD0=    1 NMtDS0=    0 NMtDT0=    0
         I1Cent=           4 NGrid=           0.
 Symmetry not used in FoFCou.
 Requested convergence on RMS density matrix=1.00D-08 within 128 cycles.
 Requested convergence on MAX density matrix=1.00D-06.
 Requested convergence on             energy=1.00D-06.
 No special actions if energy rises.
 Restarting incremental Fock formation.
 SCF Done:  E(UM062X) =  -415.103046742     A.U. after   21 cycles
             Convg  =    0.1627D-08             -V/T =  2.0024
 <Sx>= 0.0000 <Sy>= 0.0000 <Sz>= 1.0000 <S**2>= 2.0106 S= 1.0035
 <L.S>= 0.000000000000E+00
 Annihilation of the first spin contaminant:
 S**2 before annihilation     2.0106,   after     2.0001
 Range of M.O.s used for correlation:     1   222
 NBasis=   222 NAE=    25 NBE=    23 NFC=     0 NFV=     0
 NROrb=    222 NOA=    25 NOB=    23 NVA=   197 NVB=   199

 **** Warning!!: The largest alpha MO coefficient is  0.17310343D+02


 **** Warning!!: The largest beta MO coefficient is  0.17164618D+02

 Symmetrizing basis deriv contribution to polar:
 IMax=3 JMax=2 DiffMx= 0.00D+00
 G2DrvN: will do     9 centers at a time, making    1 passes doing MaxLOS=3.
 Calling FoFCou, ICntrl=  3107 FMM=F I1Cent=   0 AccDes= 0.00D+00.
 FoFDir/FoFCou used for L=0 through L=3.
 End of G2Drv Frequency-dependent properties file   721 does not exist.
 End of G2Drv Frequency-dependent properties file   722 does not exist.
          IDoAtm=11111111
          Differentiating once with respect to electric field.
                with respect to dipole field.
          Differentiating once with respect to nuclear coordinates.
          There are    27 degrees of freedom in the 1st order CPHF.  IDoFFX=5.
     24 vectors produced by pass  0 Test12= 3.52D-14 3.70D-09 XBig12= 6.29D+01 4.64D+00.
 AX will form    24 AO Fock derivatives at one time.
     24 vectors produced by pass  1 Test12= 3.52D-14 3.70D-09 XBig12= 1.42D+01 6.55D-01.
     24 vectors produced by pass  2 Test12= 3.52D-14 3.70D-09 XBig12= 8.73D-01 3.62D-01.
     24 vectors produced by pass  3 Test12= 3.52D-14 3.70D-09 XBig12= 2.41D-02 3.33D-02.
     24 vectors produced by pass  4 Test12= 3.52D-14 3.70D-09 XBig12= 7.02D-04 5.44D-03.
     24 vectors produced by pass  5 Test12= 3.52D-14 3.70D-09 XBig12= 1.47D-05 3.33D-04.
     24 vectors produced by pass  6 Test12= 3.52D-14 3.70D-09 XBig12= 2.03D-07 5.88D-05.
     24 vectors produced by pass  7 Test12= 3.52D-14 3.70D-09 XBig12= 2.52D-09 6.30D-06.
      9 vectors produced by pass  8 Test12= 3.52D-14 3.70D-09 XBig12= 2.06D-11 4.71D-07.
      3 vectors produced by pass  9 Test12= 3.52D-14 3.70D-09 XBig12= 2.29D-13 5.68D-08.
      1 vectors produced by pass 10 Test12= 3.52D-14 3.70D-09 XBig12= 2.78D-15 4.97D-09.
 Inverted reduced A of dimension   205 with in-core refinement.
 Isotropic polarizability for W=    0.000000       43.20 Bohr**3.
 End of Minotr Frequency-dependent properties file   721 does not exist.
 End of Minotr Frequency-dependent properties file   722 does not exist.
 Calling FoFJK, ICntrl=    100127 FMM=F ISym2X=0 I1Cent= 0 IOpClX= 1 NMat=1 NMatS=1 NMatT=0.
 -------------------------------------------------------------------
 Center     Atomic                   Forces (Hartrees/Bohr)
 Number     Number              X              Y              Z
 -------------------------------------------------------------------
      1        6          -0.005349268    0.001005443   -0.000622673
      2        8          -0.003703189    0.001101343    0.001200546
      3        8          -0.008364964    0.000114075    0.001768125
      4        1          -0.018073333    0.005733373    0.002347353
      5        8           0.000293967   -0.000541148   -0.000067692
      6        8          -0.003960890    0.017930995   -0.017319080
      7        8           0.039125397   -0.025049548    0.012211125
      8        1           0.000032280   -0.000294533    0.000482297
 -------------------------------------------------------------------
 Cartesian Forces:  Max     0.039125397 RMS     0.011954379
 IRC-IRC-IRC-IRC-IRC-IRC-IRC-IRC-IRC-IRC-IRC-IRC-IRC-IRC-IRC-IRC-IRC-IRC
 Pt  5 Step number   1 out of a maximum of  20
 CORRECTOR INTEGRATION CONVERGENCE:
   Recorrection delta-x convergence threshold:    0.010000
   Delta-x Convergence Met
 Point Number:   5          Path Number:   1
   CHANGE IN THE REACTION COORDINATE =    0.10395
   NET REACTION COORDINATE UP TO THIS POINT =    0.52189
  # OF POINTS ALONG THE PATH =   5
  # OF STEPS =   1

 Calculating another point on the path.
 IRC-IRC-IRC-IRC-IRC-IRC-IRC-IRC-IRC-IRC-IRC-IRC-IRC-IRC-IRC-IRC-IRC-IRC
                          Input orientation:                          
 ---------------------------------------------------------------------
 Center     Atomic      Atomic             Coordinates (Angstroms)
 Number     Number       Type             X           Y           Z
 ---------------------------------------------------------------------
      1          6           0       -0.487576    0.613629   -0.034482
      2          8           0       -0.804633   -0.759510   -0.184087
      3          8           0       -1.244292    1.467213    0.219955
      4          1           0        0.578562    0.701574   -0.209193
      5          8           0       -2.069356   -1.025905    0.001330
      6          8           0        2.305500   -0.537571    0.436731
      7          8           0        1.998498    0.436453   -0.429184
      8          1           0        2.279455   -1.353038   -0.090384
 ---------------------------------------------------------------------
                    Distance matrix (angstroms):
                    1          2          3          4          5
     1  C    0.000000
     2  O    1.417187   0.000000
     3  O    1.168744   2.305395   0.000000
     4  H    1.083932   2.012120   2.023159   0.000000
     5  O    2.278461   1.305707   2.635178   3.168592   0.000000
     6  O    3.057544   3.179245   4.082545   2.221489   4.423506
     7  O    2.523439   3.057440   3.464035   1.461130   4.344107
     8  H    3.395197   3.142078   4.524038   2.669940   4.362062
                    6          7          8
     6  O    0.000000
     7  O    1.338947   0.000000
     8  H    0.971347   1.842823   0.000000
 Symmetry turned off by external request.
 Stoichiometry    CH2O5(3)
 Framework group  C1[X(CH2O5)]
 Deg. of freedom    18
 Full point group                 C1      NOp   1
 Rotational constants (GHZ):      6.1353658      1.8832800      1.5042533
 Standard basis: 6-311+G(2df,2p) (5D, 7F)
 Integral buffers will be    131072 words long.
 Raffenetti 2 integral format.
 Two-electron integral symmetry is turned off.
   222 basis functions,   334 primitive gaussians,   252 cartesian basis functions
    25 alpha electrons       23 beta electrons
       nuclear repulsion energy       227.5139573464 Hartrees.
 NAtoms=    8 NActive=    8 NUniq=    8 SFac= 1.00D+00 NAtFMM=   50 NAOKFM=F Big=F
 One-electron integrals computed using PRISM.
 NBasis=   222 RedAO= T  NBF=   222
 NBsUse=   222 1.00D-06 NBFU=   222
 Initial guess read from the read-write file.
 B after Tr=     0.000000    0.000000    0.000000
         Rot=    1.000000    0.000000    0.000000    0.000000 Ang=   0.00 deg.
 Initial guess <Sx>= 0.0000 <Sy>= 0.0000 <Sz>= 1.0000 <S**2>= 2.0105 S= 1.0035
 Harris functional with IExCor= 1009 diagonalized for initial guess.
 ExpMin= 4.38D-02 ExpMax= 8.59D+03 ExpMxC= 1.30D+03 IAcc=2 IRadAn=         0 AccDes= 0.00D+00
 HarFok:  IExCor= 1009 AccDes= 0.00D+00 IRadAn=         0 IDoV= 1
 ScaDFX=  1.000000  1.000000  1.000000  1.000000
 FoFCou: FMM=F IPFlag=           0 FMFlag=      100000 FMFlg1=           0
         NFxFlg=           0 DoJE=T BraDBF=F KetDBF=T FulRan=T
         Omega=  0.000000  0.000000  1.000000  0.000000  0.000000 ICntrl=     500 IOpCl=  0
         NMat0=    1 NMatS0=    1 NMatT0=    0 NMatD0=    1 NMtDS0=    0 NMtDT0=    0
         I1Cent=           4 NGrid=           0.
 Symmetry not used in FoFCou.
 Requested convergence on RMS density matrix=1.00D-08 within 128 cycles.
 Requested convergence on MAX density matrix=1.00D-06.
 Requested convergence on             energy=1.00D-06.
 No special actions if energy rises.
 Restarting incremental Fock formation.
 SCF Done:  E(UM062X) =  -415.104984388     A.U. after   20 cycles
             Convg  =    0.8810D-08             -V/T =  2.0023
 <Sx>= 0.0000 <Sy>= 0.0000 <Sz>= 1.0000 <S**2>= 2.0102 S= 1.0034
 <L.S>= 0.000000000000E+00
 Annihilation of the first spin contaminant:
 S**2 before annihilation     2.0102,   after     2.0001
 Range of M.O.s used for correlation:     1   222
 NBasis=   222 NAE=    25 NBE=    23 NFC=     0 NFV=     0
 NROrb=    222 NOA=    25 NOB=    23 NVA=   197 NVB=   199

 **** Warning!!: The largest alpha MO coefficient is  0.16120856D+02


 **** Warning!!: The largest beta MO coefficient is  0.16580600D+02

 Symmetrizing basis deriv contribution to polar:
 IMax=3 JMax=2 DiffMx= 0.00D+00
 G2DrvN: will do     9 centers at a time, making    1 passes doing MaxLOS=3.
 Calling FoFCou, ICntrl=  3107 FMM=F I1Cent=   0 AccDes= 0.00D+00.
 FoFDir/FoFCou used for L=0 through L=3.
 End of G2Drv Frequency-dependent properties file   721 does not exist.
 End of G2Drv Frequency-dependent properties file   722 does not exist.
          IDoAtm=11111111
          Differentiating once with respect to electric field.
                with respect to dipole field.
          Differentiating once with respect to nuclear coordinates.
          There are    27 degrees of freedom in the 1st order CPHF.  IDoFFX=5.
     24 vectors produced by pass  0 Test12= 3.52D-14 3.70D-09 XBig12= 5.47D+01 3.94D+00.
 AX will form    24 AO Fock derivatives at one time.
     24 vectors produced by pass  1 Test12= 3.52D-14 3.70D-09 XBig12= 1.33D+01 6.38D-01.
     24 vectors produced by pass  2 Test12= 3.52D-14 3.70D-09 XBig12= 8.21D-01 3.65D-01.
     24 vectors produced by pass  3 Test12= 3.52D-14 3.70D-09 XBig12= 2.16D-02 3.26D-02.
     24 vectors produced by pass  4 Test12= 3.52D-14 3.70D-09 XBig12= 5.79D-04 5.23D-03.
     24 vectors produced by pass  5 Test12= 3.52D-14 3.70D-09 XBig12= 1.19D-05 3.61D-04.
     24 vectors produced by pass  6 Test12= 3.52D-14 3.70D-09 XBig12= 1.91D-07 5.70D-05.
     24 vectors produced by pass  7 Test12= 3.52D-14 3.70D-09 XBig12= 2.56D-09 6.34D-06.
      8 vectors produced by pass  8 Test12= 3.52D-14 3.70D-09 XBig12= 1.94D-11 4.44D-07.
      3 vectors produced by pass  9 Test12= 3.52D-14 3.70D-09 XBig12= 1.80D-13 5.37D-08.
      1 vectors produced by pass 10 Test12= 3.52D-14 3.70D-09 XBig12= 2.15D-15 4.52D-09.
 Inverted reduced A of dimension   204 with in-core refinement.
 Isotropic polarizability for W=    0.000000       41.48 Bohr**3.
 End of Minotr Frequency-dependent properties file   721 does not exist.
 End of Minotr Frequency-dependent properties file   722 does not exist.
 Calling FoFJK, ICntrl=    100127 FMM=F ISym2X=0 I1Cent= 0 IOpClX= 1 NMat=1 NMatS=1 NMatT=0.
 -------------------------------------------------------------------
 Center     Atomic                   Forces (Hartrees/Bohr)
 Number     Number              X              Y              Z
 -------------------------------------------------------------------
      1        6          -0.015350395    0.000337738    0.000634267
      2        8          -0.003229774    0.001440076    0.001239963
      3        8          -0.011831846    0.001434754    0.002699449
      4        1          -0.004522089    0.005054212    0.000093092
      5        8          -0.000158892   -0.000749379    0.000003657
      6        8          -0.002939251    0.014157588   -0.014240369
      7        8           0.037927599   -0.021440343    0.008951881
      8        1           0.000104648   -0.000234645    0.000618060
 -------------------------------------------------------------------
 Cartesian Forces:  Max     0.037927599 RMS     0.010871909
 IRC-IRC-IRC-IRC-IRC-IRC-IRC-IRC-IRC-IRC-IRC-IRC-IRC-IRC-IRC-IRC-IRC-IRC
 Pt  6 Step number   1 out of a maximum of  20
 CORRECTOR INTEGRATION CONVERGENCE:
   Recorrection delta-x convergence threshold:    0.010000
   Delta-x Convergence Met
 Point Number:   6          Path Number:   1
   CHANGE IN THE REACTION COORDINATE =    0.10194
   NET REACTION COORDINATE UP TO THIS POINT =    0.62383
  # OF POINTS ALONG THE PATH =   6
  # OF STEPS =   1

 Calculating another point on the path.
 IRC-IRC-IRC-IRC-IRC-IRC-IRC-IRC-IRC-IRC-IRC-IRC-IRC-IRC-IRC-IRC-IRC-IRC
                          Input orientation:                          
 ---------------------------------------------------------------------
 Center     Atomic      Atomic             Coordinates (Angstroms)
 Number     Number       Type             X           Y           Z
 ---------------------------------------------------------------------
      1          6           0       -0.492524    0.613844   -0.034367
      2          8           0       -0.805381   -0.759091   -0.183767
      3          8           0       -1.247732    1.467714    0.220757
      4          1           0        0.566817    0.718597   -0.210100
      5          8           0       -2.069483   -1.026145    0.001342
      6          8           0        2.304967   -0.534660    0.433724
      7          8           0        2.007767    0.431696   -0.427496
      8          1           0        2.279968   -1.354116   -0.087900
 ---------------------------------------------------------------------
                    Distance matrix (angstroms):
                    1          2          3          4          5
     1  C    0.000000
     2  O    1.416033   0.000000
     3  O    1.168128   2.306073   0.000000
     4  H    1.078915   2.016725   2.009827   0.000000
     5  O    2.275442   1.305196   2.634909   3.168423   0.000000
     6  O    3.060085   3.178982   4.083690   2.237482   4.423157
     7  O    2.537555   3.064504   3.477333   1.485231   4.351227
     8  H    3.400359   3.143664   4.527986   2.691831   4.362711
                    6          7          8
     6  O    0.000000
     7  O    1.328108   0.000000
     8  H    0.971712   1.838081   0.000000
 Symmetry turned off by external request.
 Stoichiometry    CH2O5(3)
 Framework group  C1[X(CH2O5)]
 Deg. of freedom    18
 Full point group                 C1      NOp   1
 Rotational constants (GHZ):      6.1445485      1.8783699      1.5011115
 Standard basis: 6-311+G(2df,2p) (5D, 7F)
 Integral buffers will be    131072 words long.
 Raffenetti 2 integral format.
 Two-electron integral symmetry is turned off.
   222 basis functions,   334 primitive gaussians,   252 cartesian basis functions
    25 alpha electrons       23 beta electrons
[...]
 Number     Number       Type             X           Y           Z
 ---------------------------------------------------------------------
      1          6           0       -0.546918    0.601170   -0.016505
      2          8           0       -0.806972   -0.753213   -0.183281
      3          8           0       -1.262301    1.478731    0.222900
      4          1           0        1.138024    0.750807   -0.218909
      5          8           0       -2.079389   -1.036491    0.000496
      6          8           0        2.301906   -0.562639    0.463880
      7          8           0        2.040736    0.460335   -0.472021
      8          1           0        2.295455   -1.349809   -0.092020
 ---------------------------------------------------------------------
                    Distance matrix (angstroms):
                    1          2          3          4          5
     1  C    0.000000
     2  O    1.389171   0.000000
     3  O    1.157238   2.313846   0.000000
     4  H    1.703640   2.458934   2.546886   0.000000
     5  O    2.242920   1.316459   2.653948   3.687048   0.000000
     6  O    3.114646   3.181235   4.114466   1.883073   4.431140
     7  O    2.631213   3.108940   3.525634   0.981493   4.408990
     8  H    3.448349   3.160588   4.556034   2.401737   4.387026
                    6          7          8
     6  O    0.000000
     7  O    1.410885   0.000000
     8  H    0.963692   1.867058   0.000000
 Symmetry turned off by external request.
 Stoichiometry    CH2O5(3)
 Framework group  C1[X(CH2O5)]
 Deg. of freedom    18
 Full point group                 C1      NOp   1
 Rotational constants (GHZ):      5.9603020      1.8373385      1.4731314

 **********************************************************************

            Population analysis using the SCF density.

 **********************************************************************

 Alpha  occ. eigenvalues --  -19.82416 -19.77680 -19.73850 -19.69603 -19.69403
 Alpha  occ. eigenvalues --  -10.73963  -1.41886  -1.29752  -1.27961  -1.08201
 Alpha  occ. eigenvalues --   -1.02406  -0.76350  -0.68281  -0.67890  -0.66532
 Alpha  occ. eigenvalues --   -0.63206  -0.60496  -0.56524  -0.55797  -0.52957
 Alpha  occ. eigenvalues --   -0.46132  -0.44966  -0.41627  -0.39056  -0.35427
 Alpha virt. eigenvalues --   -0.01975   0.01720   0.02765   0.04551   0.05071
 Alpha virt. eigenvalues --    0.07774   0.09752   0.11889   0.15425   0.16276
 Alpha virt. eigenvalues --    0.17120   0.17833   0.18220   0.20078   0.20911
 Alpha virt. eigenvalues --    0.20999   0.21658   0.21870   0.24469   0.25875
 Alpha virt. eigenvalues --    0.26924   0.27248   0.27825   0.29250   0.29929
 Alpha virt. eigenvalues --    0.31942   0.32922   0.34661   0.39816   0.41686
 Alpha virt. eigenvalues --    0.47154   0.51492   0.56126   0.56849   0.62997
 Alpha virt. eigenvalues --    0.66433   0.68391   0.75557   0.77101   0.77412
 Alpha virt. eigenvalues --    0.81638   0.85200   0.87223   0.91266   0.93858
 Alpha virt. eigenvalues --    0.97948   0.99395   1.01138   1.02324   1.03149
 Alpha virt. eigenvalues --    1.05946   1.07587   1.09126   1.10983   1.12283
 Alpha virt. eigenvalues --    1.13248   1.14923   1.17178   1.18180   1.30297
 Alpha virt. eigenvalues --    1.31891   1.35788   1.36668   1.41314   1.41832
 Alpha virt. eigenvalues --    1.47916   1.49821   1.51288   1.54021   1.55680
 Alpha virt. eigenvalues --    1.58214   1.58500   1.62164   1.66572   1.69259
 Alpha virt. eigenvalues --    1.80137   1.88428   1.91471   1.96025   1.97749
 Alpha virt. eigenvalues --    1.99286   2.07284   2.14739   2.15929   2.19339
 Alpha virt. eigenvalues --    2.22644   2.26342   2.31925   2.38335   2.48417
 Alpha virt. eigenvalues --    2.52464   2.57536   2.60237   2.70536   2.74546
 Alpha virt. eigenvalues --    2.83099   2.87643   2.94321   2.97212   3.09131
 Alpha virt. eigenvalues --    3.17222   3.23603   3.28258   3.35414   3.46770
 Alpha virt. eigenvalues --    3.50278   3.54473   3.54868   3.65725   3.70212
 Alpha virt. eigenvalues --    3.71708   3.78411   3.89716   4.06986   4.13139
 Alpha virt. eigenvalues --    4.30802   4.42212   4.55424   4.56698   4.58813
 Alpha virt. eigenvalues --    4.65521   4.67780   4.73837   4.79833   4.89354
 Alpha virt. eigenvalues --    4.90423   4.93383   4.94081   4.95041   4.97671
 Alpha virt. eigenvalues --    4.98312   5.03369   5.04217   5.07443   5.08975
 Alpha virt. eigenvalues --    5.10005   5.11270   5.12433   5.16057   5.18911
 Alpha virt. eigenvalues --    5.21221   5.26699   5.27158   5.28961   5.34173
 Alpha virt. eigenvalues --    5.38912   5.40150   5.41710   5.43306   5.50417
 Alpha virt. eigenvalues --    5.55008   5.64321   5.64840   5.82829   6.01037
 Alpha virt. eigenvalues --    6.02942   6.21483   6.30843   6.44174   6.45374
 Alpha virt. eigenvalues --    6.60398   6.66138   6.69361   6.72455   6.73920
 Alpha virt. eigenvalues --    6.75651   6.76849   6.83052   6.87581   6.89473
 Alpha virt. eigenvalues --    6.90569   6.96863   6.99217   7.00373   7.07380
 Alpha virt. eigenvalues --    7.09186   7.12041   7.12236   7.23069   7.24432
 Alpha virt. eigenvalues --    7.24723   7.26298   7.32991   7.42690   7.47241
 Alpha virt. eigenvalues --    7.57032   7.61841   7.70888   7.83320   7.89192
 Alpha virt. eigenvalues --    7.92994  24.59737  49.88504  49.96521  49.97001
 Alpha virt. eigenvalues --   50.01776  50.21224
  Beta  occ. eigenvalues --  -19.81632 -19.76019 -19.73199 -19.69591 -19.69096
  Beta  occ. eigenvalues --  -10.73184  -1.38153  -1.27542  -1.27299  -1.02266
  Beta  occ. eigenvalues --   -1.01423  -0.72964  -0.64902  -0.64040  -0.61664
  Beta  occ. eigenvalues --   -0.61260  -0.59303  -0.52431  -0.51625  -0.50959
  Beta  occ. eigenvalues --   -0.42153  -0.40887  -0.37433
  Beta virt. eigenvalues --   -0.13600  -0.13160   0.00792   0.01643   0.02974
  Beta virt. eigenvalues --    0.04798   0.05371   0.07845   0.10878   0.11983
  Beta virt. eigenvalues --    0.15371   0.16138   0.17377   0.17903   0.18994
  Beta virt. eigenvalues --    0.20419   0.20930   0.21222   0.21359   0.23042
  Beta virt. eigenvalues --    0.24998   0.25771   0.27006   0.27885   0.28203
  Beta virt. eigenvalues --    0.29143   0.29701   0.31404   0.33861   0.34909
  Beta virt. eigenvalues --    0.40031   0.42041   0.48080   0.51967   0.56114
  Beta virt. eigenvalues --    0.56800   0.63613   0.67186   0.70182   0.75552
  Beta virt. eigenvalues --    0.77238   0.77846   0.82063   0.85682   0.87699
  Beta virt. eigenvalues --    0.92036   0.94243   0.98095   1.00340   1.02452
  Beta virt. eigenvalues --    1.03056   1.03844   1.07905   1.08218   1.09950
  Beta virt. eigenvalues --    1.11392   1.12861   1.13784   1.15233   1.17784
  Beta virt. eigenvalues --    1.18502   1.32071   1.33937   1.36215   1.37370
  Beta virt. eigenvalues --    1.43083   1.43910   1.48635   1.50514   1.51957
  Beta virt. eigenvalues --    1.54657   1.56782   1.58878   1.59039   1.64287
  Beta virt. eigenvalues --    1.67483   1.69950   1.80382   1.89105   1.91673
  Beta virt. eigenvalues --    1.96818   1.98557   2.00393   2.08396   2.16079
  Beta virt. eigenvalues --    2.16505   2.20127   2.23106   2.26983   2.32857
  Beta virt. eigenvalues --    2.38686   2.49510   2.53128   2.57743   2.60764
  Beta virt. eigenvalues --    2.70872   2.76311   2.83249   2.90925   2.96396
  Beta virt. eigenvalues --    3.00044   3.12425   3.23529   3.26431   3.34859
  Beta virt. eigenvalues --    3.39102   3.50257   3.54722   3.56600   3.57371
  Beta virt. eigenvalues --    3.65989   3.70754   3.75258   3.79297   3.91035
  Beta virt. eigenvalues --    4.10550   4.13153   4.32034   4.45473   4.55574
  Beta virt. eigenvalues --    4.57755   4.58892   4.65674   4.69393   4.74145
  Beta virt. eigenvalues --    4.79900   4.89447   4.91797   4.96289   4.97107
  Beta virt. eigenvalues --    4.98439   4.99188   5.02418   5.04771   5.06598
  Beta virt. eigenvalues --    5.08251   5.09984   5.11393   5.11955   5.13462
  Beta virt. eigenvalues --    5.17064   5.18969   5.21436   5.27409   5.28078
  Beta virt. eigenvalues --    5.29545   5.34375   5.40492   5.40670   5.42119
  Beta virt. eigenvalues --    5.43708   5.50628   5.55291   5.64813   5.65543
  Beta virt. eigenvalues --    5.83781   6.01127   6.03201   6.24399   6.32336
  Beta virt. eigenvalues --    6.46016   6.46191   6.69024   6.72116   6.72977
  Beta virt. eigenvalues --    6.75174   6.77135   6.80401   6.81658   6.83595
  Beta virt. eigenvalues --    6.87748   6.90206   6.93438   6.98706   7.00356
  Beta virt. eigenvalues --    7.02964   7.08230   7.10974   7.12569   7.14849
  Beta virt. eigenvalues --    7.23881   7.25751   7.26707   7.28403   7.35064
  Beta virt. eigenvalues --    7.42898   7.47734   7.58144   7.61989   7.71476
  Beta virt. eigenvalues --    7.83531   7.91517   7.93229  24.60924  49.88139
  Beta virt. eigenvalues --   49.96051  49.96782  50.01634  50.20601
          Condensed to atoms (all electrons):
              1          2          3          4          5          6
     1  C    5.371816   0.069870   0.401009   0.041390  -0.043360   0.032221
     2  O    0.069870   7.763444  -0.046684  -0.001947   0.177086   0.007179
     3  O    0.401009  -0.046684   7.823303   0.006332   0.005101  -0.001218
     4  H    0.041390  -0.001947   0.006332   0.425224  -0.001005  -0.057781
     5  O   -0.043360   0.177086   0.005101  -0.001005   7.900932   0.000683
     6  O    0.032221   0.007179  -0.001218  -0.057781   0.000683   7.868952
     7  O   -0.023767   0.013335  -0.004995   0.267656   0.002047   0.115127
     8  H   -0.008415   0.002660  -0.000122   0.009807  -0.000810   0.245584
              7          8
     1  C   -0.023767  -0.008415
     2  O    0.013335   0.002660
     3  O   -0.004995  -0.000122
     4  H    0.267656   0.009807
     5  O    0.002047  -0.000810
     6  O    0.115127   0.245584
     7  O    7.972054  -0.041305
     8  H   -0.041305   0.542919
 Mulliken atomic charges:
              1
     1  C    0.159236
     2  O    0.015057
     3  O   -0.182725
     4  H    0.310324
     5  O   -0.040675
     6  O   -0.210746
     7  O   -0.300152
     8  H    0.249681
 Sum of Mulliken atomic charges =   0.00000
 Mulliken charges with hydrogens summed into heavy atoms:
              1
     1  C    0.159236
     2  O    0.015057
     3  O   -0.182725
     5  O   -0.040675
     6  O    0.038936
     7  O    0.010172
 Sum of Mulliken charges with hydrogens summed into heavy atoms =   0.00000
          Atomic-Atomic Spin Densities.
              1          2          3          4          5          6
     1  C    0.893454  -0.153599  -0.135792  -0.013107   0.026240   0.028871
     2  O   -0.153599   0.491810  -0.006077   0.005393  -0.168956  -0.006477
     3  O   -0.135792  -0.006077   0.382069   0.003225   0.015565  -0.001018
     4  H   -0.013107   0.005393   0.003225  -0.048914  -0.001180  -0.000863
     5  O    0.026240  -0.168956   0.015565  -0.001180   1.011256   0.001635
     6  O    0.028871  -0.006477  -0.001018  -0.000863   0.001635   0.013465
     7  O   -0.052398   0.009829   0.002155   0.022632  -0.002279  -0.012748
     8  H   -0.001984   0.000278   0.000059   0.000965  -0.000044  -0.003248
              7          8
     1  C   -0.052398  -0.001984
     2  O    0.009829   0.000278
     3  O    0.002155   0.000059
     4  H    0.022632   0.000965
     5  O   -0.002279  -0.000044
     6  O   -0.012748  -0.003248
     7  O    0.139408   0.000981
     8  H    0.000981   0.001339
 Mulliken atomic spin densities:
              1
     1  C    0.591684
     2  O    0.172200
     3  O    0.260186
     4  H   -0.031850
     5  O    0.882237
     6  O    0.019617
     7  O    0.107579
     8  H   -0.001654
 Sum of Mulliken atomic spin densities =   2.00000
 APT atomic charges:
              1
     1  C    0.901035
     2  O   -0.349574
     3  O   -0.469208
     4  H    0.129331
     5  O    0.035834
     6  O   -0.270881
     7  O   -0.250981
     8  H    0.274444
 Sum of APT charges=   0.00000
 APT Atomic charges with hydrogens summed into heavy atoms:
              1
     1  C    0.901035
     2  O   -0.349574
     3  O   -0.469208
     4  H    0.000000
     5  O    0.035834
     6  O    0.003563
     7  O   -0.121650
     8  H    0.000000
 Sum of APT charges=   0.00000
 Electronic spatial extent (au):  <R**2>=            722.2832
 Charge=              0.0000 electrons
 Dipole moment (field-independent basis, Debye):
    X=             -0.8557    Y=             -1.2014    Z=             -0.6641  Tot=              1.6176
 Quadrupole moment (field-independent basis, Debye-Ang):
   XX=            -39.8913   YY=            -32.4688   ZZ=            -33.3580
   XY=             -3.2329   XZ=             -0.6443   YZ=              0.4463
 Traceless Quadrupole moment (field-independent basis, Debye-Ang):
   XX=             -4.6519   YY=              2.7706   ZZ=              1.8814
   XY=             -3.2329   XZ=             -0.6443   YZ=              0.4463
 Octapole moment (field-independent basis, Debye-Ang**2):
  XXX=            -12.8975  YYY=             -8.5915  ZZZ=              0.4936  XYY=              8.8341
  XXY=            -11.5121  XXZ=             -3.6951  XZZ=             -5.3595  YZZ=             -0.5725
  YYZ=             -1.0604  XYZ=              3.4746
 Hexadecapole moment (field-independent basis, Debye-Ang**3):
 XXXX=           -619.1171 YYYY=           -182.4620 ZZZZ=            -44.5828 XXXY=            -22.8863
 XXXZ=             -5.7433 YYYX=            -10.7255 YYYZ=             -0.1857 ZZZX=              1.5161
 ZZZY=              1.1301 XXYY=           -118.4076 XXZZ=           -107.5361 YYZZ=            -36.7813
 XXYZ=              5.9090 YYXZ=             -0.8334 ZZXY=              0.6958
 N-N= 2.251891371532D+02 E-N=-2.126616426669D+03  KE= 6.181290275688D+02
  Exact polarizability:  57.811  -0.952  41.828  -1.548  -0.385  26.608
 Approx polarizability:  57.150  -2.559  49.476  -2.808  -0.199  32.489
                          Isotropic Fermi Contact Couplings
        Atom                 a.u.       MegaHertz       Gauss      10(-4) cm-1
     1  C(13)              0.51035     286.86498     102.36056      95.68786
     2  O(17)              0.30765     -93.24768     -33.27309     -31.10408
     3  O(17)              0.09711     -29.43360     -10.50264      -9.81799
     4  H(1)              -0.01592     -35.57301     -12.69334     -11.86588
     5  O(17)              0.10335     -31.32485     -11.17749     -10.44885
     6  O(17)              0.00237      -0.71747      -0.25601      -0.23932
     7  O(17)              0.02657      -8.05266      -2.87339      -2.68608
     8  H(1)              -0.00010      -0.21238      -0.07578      -0.07084
 --------------------------------------------------------
       Center         ----  Spin Dipole Couplings  ----
                      3XX-RR        3YY-RR        3ZZ-RR
 --------------------------------------------------------
     1   Atom        0.538356     -0.300157     -0.238199
     2   Atom       -0.766531      0.012727      0.753804
     3   Atom        1.012244     -0.420007     -0.592238
     4   Atom        0.127696     -0.061161     -0.066535
     5   Atom       -1.501071     -1.475360      2.976432
     6   Atom        0.064595     -0.030208     -0.034387
     7   Atom        0.599321     -0.317866     -0.281455
     8   Atom        0.006023      0.002160     -0.008183
 --------------------------------------------------------
                        XY            XZ            YZ
 --------------------------------------------------------
     1   Atom       -0.010302     -0.118530     -0.004794
     2   Atom        0.013056      0.297568     -0.124907
     3   Atom        0.624071     -0.137569     -0.057575
     4   Atom       -0.017940     -0.040174      0.007227
     5   Atom        0.126190      0.904421     -0.835442
     6   Atom       -0.024118      0.015903      0.015250
     7   Atom        0.025321     -0.176907     -0.012210
     8   Atom       -0.006229      0.000396     -0.000635
 --------------------------------------------------------


 ---------------------------------------------------------------------------------
              Anisotropic Spin Dipole Couplings in Principal Axis System
 ---------------------------------------------------------------------------------

       Atom             a.u.   MegaHertz   Gauss  10(-4) cm-1        Axes

              Baa    -0.3011   -40.409   -14.419   -13.479  0.0311  0.9905  0.1340
     1 C(13)  Bbb    -0.2550   -34.221   -12.211   -11.415  0.1446 -0.1371  0.9799
              Bcc     0.5562    74.630    26.630    24.894  0.9890 -0.0111 -0.1475
 
              Baa    -0.8243    59.643    21.282    19.895  0.9811 -0.0434 -0.1884
     2 O(17)  Bbb    -0.0035     0.252     0.090     0.084  0.0698  0.9883  0.1356
              Bcc     0.8277   -59.895   -21.372   -19.979  0.1804 -0.1462  0.9727
 
              Baa    -0.6544    47.353    16.897    15.795 -0.3404  0.9337  0.1114
     3 O(17)  Bbb    -0.6036    43.677    15.585    14.569  0.1139 -0.0766  0.9905
              Bcc     1.2580   -91.029   -32.481   -30.364  0.9333  0.3499 -0.0803
 
              Baa    -0.0755   -40.302   -14.381   -13.443  0.1633 -0.2728  0.9481
     4 H(1)   Bbb    -0.0620   -33.059   -11.796   -11.027  0.1437  0.9573  0.2507
              Bcc     0.1375    73.361    26.177    24.471  0.9761 -0.0953 -0.1956
 
              Baa    -1.9244   139.246    49.686    46.447  0.7157 -0.6545 -0.2437
     5 O(17)  Bbb    -1.3614    98.509    35.151    32.859  0.6751  0.7377  0.0013
              Bcc     3.2858  -237.755   -84.837   -79.307  0.1789 -0.1654  0.9699
 
              Baa    -0.0543     3.929     1.402     1.311 -0.2307 -0.6748  0.7011
     6 O(17)  Bbb    -0.0175     1.263     0.451     0.421  0.0714  0.7068  0.7038
              Bcc     0.0718    -5.192    -1.853    -1.732  0.9704 -0.2124  0.1149
 
              Baa    -0.3245    23.479     8.378     7.832  0.0982  0.7754  0.6238
     7 O(17)  Bbb    -0.3098    22.418     7.999     7.478  0.1651 -0.6309  0.7581
              Bcc     0.6343   -45.898   -16.377   -15.310  0.9814  0.0285 -0.1900
 
              Baa    -0.0082    -4.387    -1.565    -1.463 -0.0014  0.0602  0.9982
     8 H(1)   Bbb    -0.0024    -1.289    -0.460    -0.430  0.5946  0.8026 -0.0476
              Bcc     0.0106     5.676     2.025     1.893  0.8040 -0.5934  0.0370
 

 ---------------------------------------------------------------------------------

 -------------------------------------------------------------------
 Center     Atomic                   Forces (Hartrees/Bohr)
 Number     Number              X              Y              Z
 -------------------------------------------------------------------
      1        6          -0.003314170    0.000238533    0.001953651
      2        8          -0.001865758    0.001462424    0.000643174
      3        8          -0.004836943    0.000708433    0.000649990
      4        1           0.001489710    0.001042440    0.000123933
      5        8          -0.001944785   -0.002387764   -0.000361025
      6        8          -0.001263768   -0.000691121    0.001157148
      7        8           0.011822253   -0.000305647   -0.004280060
      8        1          -0.000086540   -0.000067298    0.000113188
 -------------------------------------------------------------------
 Cartesian Forces:  Max     0.011822253 RMS     0.003026019

 This type of calculation cannot be archived.


 IT IS IMPOSSIBLE TO MEDITATE ON TIME AND THE MYSTERY 
 OF NATURE WITHOUT AN OVERWHELMING EMOTION AT THE
 LIMITATIONS OF HUMAN INTELLIGENCE.

                                         -- ALFRED NORTH WHITEHEAD
 Job cpu time:  1 days  4 hours 48 minutes 55.0 seconds.
 File lengths (MBytes):  RWF=   2352 Int=      0 D2E=      0 Chk=     32 Scr=     32
 Normal termination of Gaussian 09 at Thu Aug  3 19:48:00 2017.
