 Entering Gaussian System, Link 0=/shared/apps/gaussian/G09_LINUX_LINDA/g09/g09
 Input=/gss_gpfs_scratch/harms.n/QMscratch/[OH]+[O]C1C=CC=CC=1_OC1C=CC=CC=1+[O]IRC.gjf
 Output=/gss_gpfs_scratch/harms.n/QMscratch/[OH]+[O]C1C=CC=CC=1_OC1C=CC=CC=1+[O]IRC.log
 Initial command:
 /shared/apps/gaussian/G09_LINUX_LINDA/g09/l1.exe /gss_gpfs_scratch/harms.n/comparerTST/Gau-38877.inp -scrdir=/gss_gpfs_scratch/harms.n/comparerTST/
 Entering Link 1 = /shared/apps/gaussian/G09_LINUX_LINDA/g09/l1.exe PID=     38879.
  
 Copyright (c) 1988,1990,1992,1993,1995,1998,2003,2009,2010,
            Gaussian, Inc.  All Rights Reserved.
  
 This is part of the Gaussian(R) 09 program.  It is based on
 the Gaussian(R) 03 system (copyright 2003, Gaussian, Inc.),
 the Gaussian(R) 98 system (copyright 1998, Gaussian, Inc.),
 the Gaussian(R) 94 system (copyright 1995, Gaussian, Inc.),
 the Gaussian 92(TM) system (copyright 1992, Gaussian, Inc.),
 the Gaussian 90(TM) system (copyright 1990, Gaussian, Inc.),
 the Gaussian 88(TM) system (copyright 1988, Gaussian, Inc.),
 the Gaussian 86(TM) system (copyright 1986, Carnegie Mellon
 University), and the Gaussian 82(TM) system (copyright 1983,
 Carnegie Mellon University). Gaussian is a federally registered
 trademark of Gaussian, Inc.
  
 This software contains proprietary and confidential information,
 including trade secrets, belonging to Gaussian, Inc.
  
 This software is provided under written license and may be
 used, copied, transmitted, or stored only in accord with that
 written license.
  
 The following legend is applicable only to US Government
 contracts under FAR:
  
                    RESTRICTED RIGHTS LEGEND
  
 Use, reproduction and disclosure by the US Government is
 subject to restrictions as set forth in subparagraphs (a)
 and (c) of the Commercial Computer Software - Restricted
 Rights clause in FAR 52.227-19.
  
 Gaussian, Inc.
 340 Quinnipiac St., Bldg. 40, Wallingford CT 06492
  
  
 ---------------------------------------------------------------
 Warning -- This program may not be used in any manner that
 competes with the business of Gaussian, Inc. or will provide
 assistance to any competitor of Gaussian, Inc.  The licensee
 of this program is prohibited from giving any competitor of
 Gaussian, Inc. access to this program.  By using this program,
 the user acknowledges that Gaussian, Inc. is engaged in the
 business of creating and licensing software in the field of
 computational chemistry and represents and warrants to the
 licensee that it is not a competitor of Gaussian, Inc. and that
 it will not use this program in any manner prohibited above.
 ---------------------------------------------------------------
  

 Cite this work as:
 Gaussian 09, Revision B.01,
 M. J. Frisch, G. W. Trucks, H. B. Schlegel, G. E. Scuseria, 
 M. A. Robb, J. R. Cheeseman, G. Scalmani, V. Barone, B. Mennucci, 
 G. A. Petersson, H. Nakatsuji, M. Caricato, X. Li, H. P. Hratchian, 
 A. F. Izmaylov, J. Bloino, G. Zheng, J. L. Sonnenberg, M. Hada, 
 M. Ehara, K. Toyota, R. Fukuda, J. Hasegawa, M. Ishida, T. Nakajima, 
 Y. Honda, O. Kitao, H. Nakai, T. Vreven, J. A. Montgomery, Jr., 
 J. E. Peralta, F. Ogliaro, M. Bearpark, J. J. Heyd, E. Brothers, 
 K. N. Kudin, V. N. Staroverov, T. Keith, R. Kobayashi, J. Normand, 
 K. Raghavachari, A. Rendell, J. C. Burant, S. S. Iyengar, J. Tomasi, 
 M. Cossi, N. Rega, J. M. Millam, M. Klene, J. E. Knox, J. B. Cross, 
 V. Bakken, C. Adamo, J. Jaramillo, R. Gomperts, R. E. Stratmann, 
 O. Yazyev, A. J. Austin, R. Cammi, C. Pomelli, J. W. Ochterski, 
 R. L. Martin, K. Morokuma, V. G. Zakrzewski, G. A. Voth, 
 P. Salvador, J. J. Dannenberg, S. Dapprich, A. D. Daniels, 
 O. Farkas, J. B. Foresman, J. V. Ortiz, J. Cioslowski, 
 and D. J. Fox, Gaussian, Inc., Wallingford CT, 2010.
 
 ******************************************
 Gaussian 09:  EM64L-G09RevB.01 12-Aug-2010
                20-Aug-2017 
 ******************************************
 %nprocshared=20
 Will use up to   20 processors via shared memory.
 %mem=5GB
 %chk=/gss_gpfs_scratch/harms.n/QMscratch/[OH]+[O]C1C=CC=CC=1_OC1C=CC=CC=1+[O]
 ----------------------------------------------------------------------
 # m062x/6-311+g(2df,2p) irc=(calcall,report=read) geom=allcheck guess=
 check nosymm
 ----------------------------------------------------------------------
 1/10=4,14=-1,18=10,26=3,29=7,38=1,44=3,71=1,129=1/1,23;
 2/12=2,15=1,29=1,40=1/2;
 3/5=4,6=6,7=214,11=2,14=-4,16=1,25=1,30=1,71=2,74=-55,116=-2/1,2,3;
 4/5=1/1;
 5/5=2,38=6/2;
 8/6=4,10=90,11=11/1;
 11/6=1,8=1,9=11,15=111,16=1,31=1/1,2,10;
 10/6=1,31=1/2;
 6/7=2,8=2,9=2,10=2,18=1,28=1/1;
 7/10=1,25=1,30=1/1,2,3,16;
 1/10=4,14=-1,18=10,44=3,71=1,129=1/23(3);
 2/15=1,29=1/2;
 7/8=1,9=1,25=1,30=1,44=-1/16;
 99/5=20/99;
 2/15=1,29=1/2;
 3/5=4,6=6,7=214,11=2,14=-2,16=1,25=1,30=1,71=2,74=-55/1,2,3;
 4/5=5,16=3/1;
 5/5=2,38=5/2;
 8/6=4,10=90,11=11/1;
 11/6=1,8=1,9=11,15=111,16=1,31=1/1,2,10;
 10/6=1,31=1/2;
 7/10=1,25=1,30=1/1,2,3,16;
 1/10=4,14=-1,18=10,44=3,71=1,129=1/23(-8);
 2/15=1,29=1/2;
 6/7=2,8=2,9=2,10=2,18=1,19=2,28=1/1;
 7/8=1,9=1,25=1,30=1,44=-1/16;
 99/5=20/99;
 ------------------------------------
 [OH]+[O]C1C=CC=CC=1_OC1C=CC=CC=1+[O]
 ------------------------------------
 Redundant internal coordinates taken from checkpoint file:
 /gss_gpfs_scratch/harms.n/QMscratch/[OH]+[O]C1C=CC=CC=1_OC1C=CC=CC=1+[O].chk
 Charge =  0 Multiplicity = 3
 O,0,-2.9737592494,0.5495628105,0.7208996562
 H,0,-2.3537392092,-0.139817135,-0.206427229
 C,0,-0.3988687746,-0.3925576418,-0.2885214114
 C,0,0.5910571706,-1.3179158206,0.0761493593
 C,0,1.8799424131,-0.8835708483,0.3035196717
 C,0,2.1917726531,0.4717707149,0.2073208889
 C,0,1.2071532741,1.3947731239,-0.1328935273
 C,0,-0.0824967152,0.9736399451,-0.3905218472
 O,0,-1.6181094459,-0.8371913518,-0.557771771
 H,0,0.3133981291,-2.3592535657,0.1590799061
 H,0,2.6490721611,-1.5957528525,0.568718073
 H,0,3.2014721881,0.807418258,0.3989420445
 H,0,1.4529174636,2.4452124244,-0.2046911371
 H,0,-0.8603130586,1.6712859391,-0.6717166768
 Recover connectivity data from disk.
 IRC-IRC-IRC-IRC-IRC-IRC-IRC-IRC-IRC-IRC-IRC-IRC-IRC-IRC-IRC-IRC-IRC-IRC
 Reading IRC summary table definitions from input file.
 ------------------------------------------------------------------------
 INPUT DATA FOR L123
 ------------------------------------------------------------------------
 GENERAL PARAMETERS:
 Follow reaction path in both directions.
 Maximum points per path      =  10
 Step size                    =   0.100 bohr
 Integration scheme           = HPC                                 
    Redo corrector integration= Yes                                 
    Max correction cycles     =  20
 Initial Hessian              = CalcFC
 Hessian evaluation           = Full Hessian always
 ------------------------------------------------------------------------
 IRC-IRC-IRC-IRC-IRC-IRC-IRC-IRC-IRC-IRC-IRC-IRC-IRC-IRC-IRC-IRC-IRC-IRC
                          Input orientation:                          
 ---------------------------------------------------------------------
 Center     Atomic      Atomic             Coordinates (Angstroms)
 Number     Number       Type             X           Y           Z
 ---------------------------------------------------------------------
      1          8           0       -2.973759    0.549563    0.720900
      2          1           0       -2.353739   -0.139817   -0.206427
      3          6           0       -0.398869   -0.392558   -0.288521
      4          6           0        0.591057   -1.317916    0.076149
      5          6           0        1.879942   -0.883571    0.303520
      6          6           0        2.191773    0.471771    0.207321
      7          6           0        1.207153    1.394773   -0.132894
      8          6           0       -0.082497    0.973640   -0.390522
      9          8           0       -1.618109   -0.837191   -0.557772
     10          1           0        0.313398   -2.359254    0.159080
     11          1           0        2.649072   -1.595753    0.568718
     12          1           0        3.201472    0.807418    0.398942
     13          1           0        1.452917    2.445212   -0.204691
     14          1           0       -0.860313    1.671286   -0.671717
 ---------------------------------------------------------------------
                    Distance matrix (angstroms):
                    1          2          3          4          5
     1  O    0.000000
     2  H    1.311337   0.000000
     3  C    2.921743   1.972850   0.000000
     4  C    4.075671   3.184273   1.403291   0.000000
     5  C    5.078041   4.328657   2.405117   1.378977   0.000000
     6  C    5.191583   4.605096   2.775670   2.404678   1.394074
     7  C    4.350100   3.878186   2.407920   2.789616   2.415358
     8  C    3.126419   2.536182   1.406055   2.433657   2.789640
     9  O    2.322902   1.072812   1.325422   2.348056   3.602824
    10  H    4.425184   3.488999   2.139057   1.080905   2.156980
    11  H    6.020114   5.267705   3.387105   2.134302   1.081246
    12  H    6.188993   5.667813   3.856813   3.381643   2.148253
    13  H    4.903639   4.601415   3.389554   3.870763   3.394323
    14  H    2.768447   2.393096   2.149237   3.406040   3.871354
                    6          7          8          9         10
     6  C    0.000000
     7  C    1.391817   0.000000
     8  C    2.404494   1.380914   0.000000
     9  O    4.100482   3.625506   2.380166   0.000000
    10  H    3.397840   3.869982   3.401025   2.561498   0.000000
    11  H    2.148112   3.393322   3.870838   4.478084   2.491207
    12  H    1.081143   2.145960   3.381617   5.181545   4.292589
    13  H    2.147122   1.081193   2.134843   4.508885   4.951134
    14  H    3.395110   2.154346   1.082025   2.622918   4.279377
                   11         12         13         14
    11  H    0.000000
    12  H    2.471680   0.000000
    13  H    4.284664   2.470665   0.000000
    14  H    4.952576   4.288435   2.483568   0.000000
 Symmetry turned off by external request.
 Stoichiometry    C6H6O2(3)
 Framework group  C1[X(C6H6O2)]
 Deg. of freedom    36
 Full point group                 C1      NOp   1
 Rotational constants (GHZ):      4.1352420      1.4364142      1.1587631
 Standard basis: 6-311+G(2df,2p) (5D, 7F)
 Integral buffers will be    131072 words long.
 Raffenetti 2 integral format.
 Two-electron integral symmetry is turned off.
   326 basis functions,   482 primitive gaussians,   366 cartesian basis functions
    30 alpha electrons       28 beta electrons
       nuclear repulsion energy       333.4320434287 Hartrees.
 NAtoms=   14 NActive=   14 NUniq=   14 SFac= 1.00D+00 NAtFMM=   50 NAOKFM=F Big=F
 One-electron integrals computed using PRISM.
 NBasis=   326 RedAO= T  NBF=   326
 NBsUse=   326 1.00D-06 NBFU=   326
 Initial guess read from the checkpoint file:  /gss_gpfs_scratch/harms.n/QMscratch/[OH]+[O]C1C=CC=CC=1_OC1C=CC=CC=1+[O].chk
 B after Tr=    -0.000025    0.000160   -0.000025
         Rot=    1.000000   -0.000117    0.000033    0.000214 Ang=   0.03 deg.
 Initial guess <Sx>= 0.0000 <Sy>= 0.0000 <Sz>= 1.0000 <S**2>= 2.0218 S= 1.0072
 Requested convergence on RMS density matrix=1.00D-08 within 128 cycles.
 Requested convergence on MAX density matrix=1.00D-06.
 Requested convergence on             energy=1.00D-06.
 No special actions if energy rises.
 SCF Done:  E(UM062X) =  -382.495166736     A.U. after    3 cycles
             Convg  =    0.2078D-08             -V/T =  2.0034
 <Sx>= 0.0000 <Sy>= 0.0000 <Sz>= 1.0000 <S**2>= 2.0218 S= 1.0072
 <L.S>= 0.000000000000E+00
 Annihilation of the first spin contaminant:
 S**2 before annihilation     2.0218,   after     2.0002
 Range of M.O.s used for correlation:     1   326
 NBasis=   326 NAE=    30 NBE=    28 NFC=     0 NFV=     0
 NROrb=    326 NOA=    30 NOB=    28 NVA=   296 NVB=   298

 **** Warning!!: The largest alpha MO coefficient is  0.12661826D+03


 **** Warning!!: The largest beta MO coefficient is  0.12438736D+03

 Symmetrizing basis deriv contribution to polar:
 IMax=3 JMax=2 DiffMx= 0.00D+00
 G2DrvN: will do    15 centers at a time, making    1 passes doing MaxLOS=3.
 Calling FoFCou, ICntrl=  3107 FMM=F I1Cent=   0 AccDes= 0.00D+00.
 FoFDir/FoFCou used for L=0 through L=3.
 End of G2Drv Frequency-dependent properties file   721 does not exist.
 End of G2Drv Frequency-dependent properties file   722 does not exist.
          IDoAtm=11111111111111
          Differentiating once with respect to electric field.
                with respect to dipole field.
          Differentiating once with respect to nuclear coordinates.
          There are    45 degrees of freedom in the 1st order CPHF.  IDoFFX=5.
     42 vectors produced by pass  0 Test12= 3.83D-14 2.22D-09 XBig12= 5.12D+02 1.99D+01.
 AX will form    42 AO Fock derivatives at one time.
     42 vectors produced by pass  1 Test12= 3.83D-14 2.22D-09 XBig12= 7.13D+01 9.98D-01.
     42 vectors produced by pass  2 Test12= 3.83D-14 2.22D-09 XBig12= 1.15D+01 5.90D-01.
     42 vectors produced by pass  3 Test12= 3.83D-14 2.22D-09 XBig12= 1.85D-01 9.75D-02.
     42 vectors produced by pass  4 Test12= 3.83D-14 2.22D-09 XBig12= 2.91D-03 6.48D-03.
     42 vectors produced by pass  5 Test12= 3.83D-14 2.22D-09 XBig12= 3.62D-05 6.48D-04.
     42 vectors produced by pass  6 Test12= 3.83D-14 2.22D-09 XBig12= 3.93D-07 6.53D-05.
     29 vectors produced by pass  7 Test12= 3.83D-14 2.22D-09 XBig12= 3.10D-09 4.51D-06.
      5 vectors produced by pass  8 Test12= 3.83D-14 2.22D-09 XBig12= 2.39D-11 3.96D-07.
      4 vectors produced by pass  9 Test12= 3.83D-14 2.22D-09 XBig12= 2.71D-13 4.59D-08.
      4 vectors produced by pass 10 Test12= 3.83D-14 2.22D-09 XBig12= 5.87D-14 3.83D-08.
      4 vectors produced by pass 11 Test12= 3.83D-14 2.22D-09 XBig12= 3.20D-15 1.10D-08.
      4 vectors produced by pass 12 Test12= 3.83D-14 2.22D-09 XBig12= 1.58D-15 6.63D-09.
      4 vectors produced by pass 13 Test12= 3.83D-14 2.22D-09 XBig12= 1.53D-15 5.78D-09.
      4 vectors produced by pass 14 Test12= 3.83D-14 2.22D-09 XBig12= 1.34D-15 6.08D-09.
      4 vectors produced by pass 15 Test12= 3.83D-14 2.22D-09 XBig12= 1.10D-15 7.01D-09.
      4 vectors produced by pass 16 Test12= 3.83D-14 2.22D-09 XBig12= 8.47D-16 5.49D-09.
      4 vectors produced by pass 17 Test12= 3.83D-14 2.22D-09 XBig12= 5.96D-16 3.89D-09.
      3 vectors produced by pass 18 Test12= 3.83D-14 2.22D-09 XBig12= 7.06D-16 4.42D-09.
      3 vectors produced by pass 19 Test12= 3.83D-14 2.22D-09 XBig12= 3.09D-16 3.56D-09.
      2 vectors produced by pass 20 Test12= 3.83D-14 2.22D-09 XBig12= 6.11D-16 5.12D-09.
      2 vectors produced by pass 21 Test12= 3.83D-14 2.22D-09 XBig12= 4.41D-16 3.41D-09.
      2 vectors produced by pass 22 Test12= 3.83D-14 2.22D-09 XBig12= 4.69D-16 3.56D-09.
      2 vectors produced by pass 23 Test12= 3.83D-14 2.22D-09 XBig12= 4.86D-16 3.45D-09.
      2 vectors produced by pass 24 Test12= 3.83D-14 2.22D-09 XBig12= 4.43D-16 3.12D-09.
      1 vectors produced by pass 25 Test12= 3.83D-14 2.22D-09 XBig12= 2.85D-16 2.70D-09.
 Inverted reduced A of dimension   381 with in-core refinement.
 Isotropic polarizability for W=    0.000000      139.85 Bohr**3.
 End of Minotr Frequency-dependent properties file   721 does not exist.
 End of Minotr Frequency-dependent properties file   722 does not exist.

 **********************************************************************

            Population analysis using the SCF density.

 **********************************************************************

 Alpha  occ. eigenvalues --  -19.70432 -19.67357 -10.62541 -10.56817 -10.56662
 Alpha  occ. eigenvalues --  -10.56547 -10.56529 -10.56409  -1.21186  -1.10562
 Alpha  occ. eigenvalues --   -0.98195  -0.87345  -0.85474  -0.72845  -0.71042
 Alpha  occ. eigenvalues --   -0.64882  -0.60538  -0.56699  -0.55021  -0.52688
 Alpha  occ. eigenvalues --   -0.51633  -0.50013  -0.49129  -0.46030  -0.44922
 Alpha  occ. eigenvalues --   -0.44206  -0.43809  -0.39875  -0.33757  -0.30695
 Alpha virt. eigenvalues --   -0.00341   0.00745   0.00841   0.02147   0.02815
 Alpha virt. eigenvalues --    0.04539   0.04710   0.06262   0.07319   0.08639
 Alpha virt. eigenvalues --    0.08731   0.09151   0.09898   0.12893   0.13147
 Alpha virt. eigenvalues --    0.13487   0.13724   0.14475   0.14967   0.15244
 Alpha virt. eigenvalues --    0.17252   0.18017   0.18422   0.19282   0.20317
 Alpha virt. eigenvalues --    0.20548   0.21130   0.21456   0.22128   0.22435
 Alpha virt. eigenvalues --    0.23631   0.24189   0.25328   0.26041   0.27075
 Alpha virt. eigenvalues --    0.28096   0.29465   0.30308   0.31048   0.32852
 Alpha virt. eigenvalues --    0.33768   0.35370   0.36186   0.37952   0.39630
 Alpha virt. eigenvalues --    0.39960   0.46821   0.47615   0.49444   0.52325
 Alpha virt. eigenvalues --    0.53129   0.53559   0.53702   0.54730   0.55353
 Alpha virt. eigenvalues --    0.55869   0.57453   0.60036   0.60478   0.62410
 Alpha virt. eigenvalues --    0.62972   0.63518   0.65573   0.65684   0.66477
 Alpha virt. eigenvalues --    0.67121   0.68544   0.69242   0.70493   0.70763
 Alpha virt. eigenvalues --    0.72570   0.73144   0.73778   0.74776   0.76863
 Alpha virt. eigenvalues --    0.79013   0.81163   0.82017   0.83099   0.84638
 Alpha virt. eigenvalues --    0.87013   0.87423   0.89115   0.94976   0.97989
 Alpha virt. eigenvalues --    0.99401   1.00017   1.02079   1.04891   1.05990
 Alpha virt. eigenvalues --    1.07912   1.08642   1.09121   1.09967   1.12080
 Alpha virt. eigenvalues --    1.14038   1.15918   1.18197   1.18984   1.19645
 Alpha virt. eigenvalues --    1.20418   1.22036   1.26322   1.27808   1.29615
 Alpha virt. eigenvalues --    1.31433   1.32517   1.32722   1.34448   1.35183
 Alpha virt. eigenvalues --    1.36088   1.37499   1.38409   1.39819   1.43562
 Alpha virt. eigenvalues --    1.45453   1.46728   1.47349   1.49674   1.52429
 Alpha virt. eigenvalues --    1.54288   1.55323   1.57179   1.62006   1.65622
 Alpha virt. eigenvalues --    1.68064   1.69432   1.71333   1.73183   1.73411
 Alpha virt. eigenvalues --    1.82614   1.84037   1.85634   1.90575   1.99759
 Alpha virt. eigenvalues --    2.00563   2.01603   2.04774   2.09325   2.26681
 Alpha virt. eigenvalues --    2.38832   2.40348   2.47128   2.50026   2.53721
 Alpha virt. eigenvalues --    2.55567   2.58989   2.59138   2.60197   2.67211
 Alpha virt. eigenvalues --    2.69651   2.71373   2.73569   2.75065   2.75310
 Alpha virt. eigenvalues --    2.76533   2.77521   2.77647   2.79018   2.81442
 Alpha virt. eigenvalues --    2.82597   2.83097   2.84604   2.86000   2.86487
 Alpha virt. eigenvalues --    2.88438   2.92379   2.93469   2.95208   3.00117
 Alpha virt. eigenvalues --    3.00606   3.02755   3.07448   3.08434   3.10021
 Alpha virt. eigenvalues --    3.12108   3.14385   3.14967   3.15965   3.18323
 Alpha virt. eigenvalues --    3.21214   3.23869   3.24707   3.29821   3.30492
 Alpha virt. eigenvalues --    3.31471   3.32159   3.34256   3.35513   3.38226
 Alpha virt. eigenvalues --    3.39620   3.40492   3.41419   3.41619   3.44540
 Alpha virt. eigenvalues --    3.46775   3.49953   3.51781   3.55772   3.57744
 Alpha virt. eigenvalues --    3.61050   3.66109   3.68866   3.69414   3.70500
 Alpha virt. eigenvalues --    3.72739   3.74946   3.76675   3.80088   3.81588
 Alpha virt. eigenvalues --    3.82521   3.85514   3.86265   3.89259   3.92168
 Alpha virt. eigenvalues --    3.93215   3.95548   4.02438   4.02996   4.03951
 Alpha virt. eigenvalues --    4.05606   4.07665   4.10611   4.14391   4.17070
 Alpha virt. eigenvalues --    4.24140   4.24762   4.26902   4.34194   4.35786
 Alpha virt. eigenvalues --    4.37858   4.39879   4.40798   4.42264   4.43204
 Alpha virt. eigenvalues --    4.45177   4.48338   4.54983   4.58927   4.60271
 Alpha virt. eigenvalues --    4.63715   4.67829   4.69792   4.88359   4.91732
 Alpha virt. eigenvalues --    4.95667   4.98140   4.98736   4.99380   4.99855
 Alpha virt. eigenvalues --    5.00288   5.02125   5.02425   5.04662   5.05943
 Alpha virt. eigenvalues --    5.07513   5.08971   5.11677   5.19699   5.24286
 Alpha virt. eigenvalues --    5.26937   5.29047   5.34180   5.34932   5.45376
 Alpha virt. eigenvalues --    5.52457   5.58003   5.62813   5.68182   5.71021
 Alpha virt. eigenvalues --    5.76409   5.77924   5.94972   6.10741   6.30698
 Alpha virt. eigenvalues --    6.62279   6.63074   6.64277   6.73373   6.76595
 Alpha virt. eigenvalues --    6.82210   6.91571   7.06934   7.17694   7.28608
 Alpha virt. eigenvalues --    7.44212   7.65287   7.79679  23.85302  24.44111
 Alpha virt. eigenvalues --   24.51267  24.73416  24.73742  25.19648  49.91346
 Alpha virt. eigenvalues --   50.20251
  Beta  occ. eigenvalues --  -19.67687 -19.66761 -10.62568 -10.56742 -10.56621
  Beta  occ. eigenvalues --  -10.56568 -10.56537 -10.56354  -1.19123  -0.98383
  Beta  occ. eigenvalues --   -0.96989  -0.87209  -0.84862  -0.72361  -0.70498
  Beta  occ. eigenvalues --   -0.63435  -0.59241  -0.56305  -0.53073  -0.51511
  Beta  occ. eigenvalues --   -0.50876  -0.46921  -0.44611  -0.43110  -0.40954
  Beta  occ. eigenvalues --   -0.37149  -0.33398  -0.29480
  Beta virt. eigenvalues --   -0.15572  -0.08773   0.00273   0.00856   0.01763
  Beta virt. eigenvalues --    0.02187   0.02930   0.04704   0.04848   0.06181
  Beta virt. eigenvalues --    0.07421   0.08679   0.08953   0.09205   0.09956
  Beta virt. eigenvalues --    0.12981   0.13260   0.13736   0.13851   0.14803
  Beta virt. eigenvalues --    0.15124   0.15198   0.17330   0.18089   0.18646
  Beta virt. eigenvalues --    0.19426   0.20290   0.20770   0.21420   0.21440
  Beta virt. eigenvalues --    0.22188   0.22471   0.23774   0.24171   0.25416
  Beta virt. eigenvalues --    0.26280   0.27166   0.28866   0.29736   0.30644
  Beta virt. eigenvalues --    0.31428   0.33010   0.33942   0.35428   0.36265
  Beta virt. eigenvalues --    0.38271   0.40129   0.40845   0.47037   0.47977
  Beta virt. eigenvalues --    0.49622   0.52486   0.53274   0.53772   0.53977
  Beta virt. eigenvalues --    0.54940   0.55742   0.56066   0.57789   0.60386
  Beta virt. eigenvalues --    0.60941   0.62633   0.63249   0.63723   0.65689
  Beta virt. eigenvalues --    0.65780   0.66743   0.67289   0.68753   0.69431
  Beta virt. eigenvalues --    0.70553   0.70838   0.72626   0.73337   0.73938
  Beta virt. eigenvalues --    0.74846   0.77048   0.79226   0.81437   0.82102
  Beta virt. eigenvalues --    0.83250   0.84819   0.87349   0.87498   0.89422
  Beta virt. eigenvalues --    0.95148   0.98038   0.99650   1.00245   1.02759
  Beta virt. eigenvalues --    1.05243   1.06177   1.08344   1.09183   1.10464
  Beta virt. eigenvalues --    1.12421   1.13082   1.15073   1.16901   1.19016
  Beta virt. eigenvalues --    1.19564   1.20100   1.20687   1.22417   1.26638
  Beta virt. eigenvalues --    1.28177   1.29837   1.31785   1.32722   1.32952
  Beta virt. eigenvalues --    1.34937   1.35618   1.36448   1.38003   1.38810
  Beta virt. eigenvalues --    1.40082   1.44358   1.45965   1.46990   1.47777
  Beta virt. eigenvalues --    1.51467   1.55711   1.57251   1.57575   1.58097
  Beta virt. eigenvalues --    1.64141   1.66619   1.68591   1.69939   1.71805
  Beta virt. eigenvalues --    1.73677   1.74282   1.83257   1.86312   1.86789
  Beta virt. eigenvalues --    1.90859   2.00266   2.00724   2.02149   2.05080
  Beta virt. eigenvalues --    2.10368   2.27308   2.38874   2.41115   2.47693
  Beta virt. eigenvalues --    2.50189   2.54149   2.55738   2.59408   2.60111
  Beta virt. eigenvalues --    2.60664   2.67408   2.69278   2.72557   2.73817
  Beta virt. eigenvalues --    2.75197   2.75587   2.76836   2.77863   2.77937
  Beta virt. eigenvalues --    2.78955   2.81771   2.82901   2.83434   2.85040
  Beta virt. eigenvalues --    2.86493   2.87084   2.88791   2.93302   2.93792
  Beta virt. eigenvalues --    2.95469   3.00378   3.01247   3.02800   3.07935
  Beta virt. eigenvalues --    3.08883   3.10318   3.12343   3.14875   3.15650
  Beta virt. eigenvalues --    3.16472   3.19002   3.21464   3.24191   3.25074
  Beta virt. eigenvalues --    3.30211   3.30777   3.31943   3.32604   3.34636
  Beta virt. eigenvalues --    3.35906   3.38477   3.40167   3.40953   3.42034
  Beta virt. eigenvalues --    3.42117   3.44893   3.47159   3.51256   3.51995
  Beta virt. eigenvalues --    3.56083   3.58062   3.61447   3.66426   3.69454
  Beta virt. eigenvalues --    3.69888   3.71084   3.73299   3.75277   3.76803
  Beta virt. eigenvalues --    3.80590   3.81916   3.82988   3.85775   3.86563
  Beta virt. eigenvalues --    3.89536   3.92352   3.93281   3.95795   4.02805
  Beta virt. eigenvalues --    4.03405   4.04032   4.05839   4.07606   4.10740
  Beta virt. eigenvalues --    4.14692   4.17418   4.24496   4.25397   4.27087
  Beta virt. eigenvalues --    4.34904   4.36859   4.38898   4.40398   4.41616
  Beta virt. eigenvalues --    4.42827   4.43703   4.46000   4.49078   4.55484
  Beta virt. eigenvalues --    4.59209   4.60856   4.64820   4.68522   4.70237
  Beta virt. eigenvalues --    4.89288   4.92471   4.96837   5.00202   5.02778
  Beta virt. eigenvalues --    5.03304   5.04242   5.05019   5.06322   5.07111
  Beta virt. eigenvalues --    5.07239   5.08819   5.10400   5.13372   5.16005
  Beta virt. eigenvalues --    5.20806   5.25306   5.27705   5.30269   5.34957
  Beta virt. eigenvalues --    5.36984   5.46695   5.53880   5.58946   5.63604
  Beta virt. eigenvalues --    5.69146   5.71745   5.77104   5.78341   5.96185
  Beta virt. eigenvalues --    6.11027   6.31320   6.64245   6.76907   6.79450
  Beta virt. eigenvalues --    6.80536   6.86677   6.92830   6.98437   7.11365
  Beta virt. eigenvalues --    7.21574   7.31145   7.50324   7.68807   7.81776
  Beta virt. eigenvalues --   23.85358  24.44207  24.51459  24.73532  24.73873
  Beta virt. eigenvalues --   25.19858  49.90377  50.19558
          Condensed to atoms (all electrons):
              1          2          3          4          5          6
     1  O    8.095270   0.127132   0.000672  -0.057315  -0.001577   0.001432
     2  H    0.127132   0.335310   0.014997   0.076956   0.005321  -0.001465
     3  C    0.000672   0.014997   6.413051  -0.219065  -0.048129  -0.266508
     4  C   -0.057315   0.076956  -0.219065   6.626535   0.483852   0.068295
     5  C   -0.001577   0.005321  -0.048129   0.483852   5.185979   0.431530
     6  C    0.001432  -0.001465  -0.266508   0.068295   0.431530   5.013377
     7  C    0.041990  -0.007034  -0.183554  -0.232711   0.170990   0.431039
     8  C    0.051838  -0.104469   0.057149  -0.924831  -0.386189   0.074892
     9  O   -0.042788   0.243461   0.497449  -0.302964  -0.013737  -0.011236
    10  H    0.000025  -0.000183   0.046241   0.320381   0.038489  -0.009916
    11  H   -0.000009   0.000015  -0.006593   0.028870   0.332762   0.028548
    12  H    0.000002  -0.000005   0.005142  -0.011567   0.032055   0.332508
    13  H    0.000026  -0.000052  -0.006588  -0.005384  -0.002491   0.027222
    14  H   -0.002657   0.007202   0.030294  -0.014074   0.003695  -0.011676
              7          8          9         10         11         12
     1  O    0.041990   0.051838  -0.042788   0.000025  -0.000009   0.000002
     2  H   -0.007034  -0.104469   0.243461  -0.000183   0.000015  -0.000005
     3  C   -0.183554   0.057149   0.497449   0.046241  -0.006593   0.005142
     4  C   -0.232711  -0.924831  -0.302964   0.320381   0.028870  -0.011567
     5  C    0.170990  -0.386189  -0.013737   0.038489   0.332762   0.032055
     6  C    0.431039   0.074892  -0.011236  -0.009916   0.028548   0.332508
     7  C    5.612420   0.059758  -0.013104   0.001872  -0.005386   0.032795
     8  C    0.059758   6.720770  -0.106200  -0.009288   0.000667  -0.011679
     9  O   -0.013104  -0.106200   8.052896  -0.001674  -0.000197   0.000080
    10  H    0.001872  -0.009288  -0.001674   0.454603  -0.006348  -0.000043
    11  H   -0.005386   0.000667  -0.000197  -0.006348   0.481477  -0.006214
    12  H    0.032795  -0.011679   0.000080  -0.000043  -0.006214   0.479306
    13  H    0.326441   0.039528  -0.000152   0.000040  -0.000068  -0.006334
    14  H    0.040817   0.336184  -0.004775  -0.000062   0.000039  -0.000042
             13         14
     1  O    0.000026  -0.002657
     2  H   -0.000052   0.007202
     3  C   -0.006588   0.030294
     4  C   -0.005384  -0.014074
     5  C   -0.002491   0.003695
     6  C    0.027222  -0.011676
     7  C    0.326441   0.040817
     8  C    0.039528   0.336184
     9  O   -0.000152  -0.004775
    10  H    0.000040  -0.000062
    11  H   -0.000068   0.000039
    12  H   -0.006334  -0.000042
    13  H    0.481794  -0.006473
    14  H   -0.006473   0.451444
 Mulliken atomic charges:
              1
     1  O   -0.214042
     2  H    0.302814
     3  C   -0.334558
     4  C    0.163021
     5  C   -0.232549
     6  C   -0.108041
     7  C   -0.276333
     8  C    0.201871
     9  O   -0.297057
    10  H    0.165864
    11  H    0.152438
    12  H    0.153996
    13  H    0.152492
    14  H    0.170083
 Sum of Mulliken atomic charges =   0.00000
 Mulliken charges with hydrogens summed into heavy atoms:
              1
     1  O   -0.214042
     3  C   -0.334558
     4  C    0.328885
     5  C   -0.080111
     6  C    0.045956
     7  C   -0.123840
     8  C    0.371954
     9  O    0.005757
 Sum of Mulliken charges with hydrogens summed into heavy atoms =   0.00000
          Atomic-Atomic Spin Densities.
              1          2          3          4          5          6
     1  O    1.571950  -0.011723  -0.014156   0.004772   0.001319   0.002551
     2  H   -0.011723  -0.064996  -0.000981   0.012434   0.001723  -0.000041
     3  C   -0.014156  -0.000981   0.119702   0.014086   0.012084  -0.025031
     4  C    0.004772   0.012434   0.014086   0.307856  -0.004741  -0.004519
     5  C    0.001319   0.001723   0.012084  -0.004741  -0.083298   0.016076
     6  C    0.002551  -0.000041  -0.025031  -0.004519   0.016076   0.172857
     7  C   -0.007143  -0.000398  -0.068744  -0.048276  -0.019971   0.022953
     8  C    0.020560  -0.005739  -0.046096  -0.140299   0.027959  -0.027654
     9  O   -0.025506   0.022548  -0.029919  -0.030684  -0.003527   0.000453
    10  H    0.000024   0.000026   0.001276  -0.003257   0.001484  -0.000514
    11  H   -0.000001   0.000001   0.000266   0.000117  -0.000291  -0.000923
    12  H    0.000001   0.000000   0.000236  -0.000812   0.000540  -0.000452
    13  H    0.000003   0.000004  -0.000480   0.000333  -0.000193  -0.000003
    14  H   -0.002327  -0.000248   0.003182   0.001401   0.000636  -0.001050
              7          8          9         10         11         12
     1  O   -0.007143   0.020560  -0.025506   0.000024  -0.000001   0.000001
     2  H   -0.000398  -0.005739   0.022548   0.000026   0.000001   0.000000
     3  C   -0.068744  -0.046096  -0.029919   0.001276   0.000266   0.000236
     4  C   -0.048276  -0.140299  -0.030684  -0.003257   0.000117  -0.000812
     5  C   -0.019971   0.027959  -0.003527   0.001484  -0.000291   0.000540
     6  C    0.022953  -0.027654   0.000453  -0.000514  -0.000923  -0.000452
     7  C   -0.057390   0.116151   0.007702   0.000391   0.000103   0.000482
     8  C    0.116151   0.178276   0.012196  -0.000321  -0.000038  -0.000071
     9  O    0.007702   0.012196   0.318800   0.000333  -0.000008   0.000000
    10  H    0.000391  -0.000321   0.000333  -0.006212  -0.000070   0.000004
    11  H    0.000103  -0.000038  -0.000008  -0.000070   0.003251  -0.000022
    12  H    0.000482  -0.000071   0.000000   0.000004  -0.000022  -0.010166
    13  H   -0.001854   0.001265   0.000010   0.000000  -0.000004  -0.000018
    14  H    0.008561  -0.013960   0.000287  -0.000004   0.000001   0.000003
             13         14
     1  O    0.000003  -0.002327
     2  H    0.000004  -0.000248
     3  C   -0.000480   0.003182
     4  C    0.000333   0.001401
     5  C   -0.000193   0.000636
     6  C   -0.000003  -0.001050
     7  C   -0.001854   0.008561
     8  C    0.001265  -0.013960
     9  O    0.000010   0.000287
    10  H    0.000000  -0.000004
    11  H   -0.000004   0.000001
    12  H   -0.000018   0.000003
    13  H    0.003609  -0.000195
    14  H   -0.000195  -0.002779
 Mulliken atomic spin densities:
              1
     1  O    1.540324
     2  H   -0.047390
     3  C   -0.034576
     4  C    0.108411
     5  C   -0.050201
     6  C    0.154701
     7  C   -0.047433
     8  C    0.122228
     9  O    0.272684
    10  H   -0.006840
    11  H    0.002381
    12  H   -0.010276
    13  H    0.002477
    14  H   -0.006492
 Sum of Mulliken atomic spin densities =   2.00000
 APT atomic charges:
              1
     1  O    0.323454
     2  H   -1.250548
     3  C   -0.704616
     4  C    0.395247
     5  C   -0.163359
     6  C    0.014275
     7  C   -0.296571
     8  C    0.039599
     9  O    1.374707
    10  H    0.065882
    11  H    0.046022
    12  H    0.057037
    13  H    0.045373
    14  H    0.053499
 Sum of APT charges=   0.00000
 APT Atomic charges with hydrogens summed into heavy atoms:
              1
     1  O    0.323454
     2  H    0.000000
     3  C   -0.704616
     4  C    0.461129
     5  C   -0.117338
     6  C    0.071311
     7  C   -0.251198
     8  C    0.093099
     9  O    0.124159
    10  H    0.000000
    11  H    0.000000
    12  H    0.000000
    13  H    0.000000
    14  H    0.000000
 Sum of APT charges=   0.00000
 Electronic spatial extent (au):  <R**2>=            996.1640
 Charge=              0.0000 electrons
 Dipole moment (field-independent basis, Debye):
    X=              3.0828    Y=              0.4590    Z=             -0.3836  Tot=              3.1403
 Quadrupole moment (field-independent basis, Debye-Ang):
   XX=            -47.2638   YY=            -42.5852   ZZ=            -50.7951
   XY=             -0.2988   XZ=              3.5547   YZ=             -2.0902
 Traceless Quadrupole moment (field-independent basis, Debye-Ang):
   XX=             -0.3824   YY=              4.2961   ZZ=             -3.9137
   XY=             -0.2988   XZ=              3.5547   YZ=             -2.0902
 Octapole moment (field-independent basis, Debye-Ang**2):
  XXX=              8.7236  YYY=             -0.0214  ZZZ=             -1.0075  XYY=              2.8811
  XXY=             -1.3326  XXZ=             -2.8612  XZZ=             -5.1220  YZZ=             -0.4830
  YYZ=              0.4984  XYZ=              1.4513
 Hexadecapole moment (field-independent basis, Debye-Ang**3):
 XXXX=           -828.8994 YYYY=           -300.8361 ZZZZ=           -102.6539 XXXY=             12.7078
 XXXZ=             35.1151 YYYX=             -0.8186 YYYZ=             -5.3012 ZZZX=              0.0863
 ZZZY=              3.1634 XXYY=           -193.8658 XXZZ=           -176.8740 YYZZ=            -76.0900
 XXYZ=             -6.5987 YYXZ=              1.5313 ZZXY=             -1.7494
 N-N= 3.334320434287D+02 E-N=-2.323411639293D+03  KE= 5.689552013632D+02
  Exact polarizability: 267.053 -29.568  89.726 -38.242   6.186  62.770
 Approx polarizability: 217.874 -17.749 116.107 -14.971   4.316  74.782
                          Isotropic Fermi Contact Couplings
        Atom                 a.u.       MegaHertz       Gauss      10(-4) cm-1
     1  O(17)              0.16924     -51.29516     -18.30339     -17.11022
     2  H(1)              -0.02223     -49.68088     -17.72737     -16.57176
     3  C(13)             -0.01364      -7.66695      -2.73576      -2.55742
     4  C(13)              0.01149       6.46091       2.30541       2.15513
     5  C(13)             -0.01148      -6.45400      -2.30295      -2.15282
     6  C(13)              0.01761       9.90045       3.53273       3.30243
     7  C(13)             -0.01204      -6.76660      -2.41449      -2.25710
     8  C(13)              0.01339       7.52639       2.68560       2.51053
     9  O(17)              0.02548      -7.72170      -2.75529      -2.57568
    10  H(1)              -0.00173      -3.87561      -1.38291      -1.29276
    11  H(1)               0.00045       1.01040       0.36053       0.33703
    12  H(1)              -0.00220      -4.92676      -1.75799      -1.64339
    13  H(1)               0.00044       0.98165       0.35028       0.32744
    14  H(1)              -0.00139      -3.10336      -1.10736      -1.03517
 --------------------------------------------------------
       Center         ----  Spin Dipole Couplings  ----
                      3XX-RR        3YY-RR        3ZZ-RR
 --------------------------------------------------------
     1   Atom        2.200535      0.310783     -2.511318
     2   Atom       -0.000492     -0.011647      0.012139
     3   Atom        0.037941     -0.006335     -0.031605
     4   Atom       -0.047711     -0.051994      0.099705
     5   Atom        0.018644      0.016488     -0.035132
     6   Atom       -0.056197     -0.073796      0.129993
     7   Atom        0.023408      0.015204     -0.038612
     8   Atom       -0.033822     -0.057926      0.091748
     9   Atom       -0.411528     -0.480670      0.892198
    10   Atom       -0.003594      0.009060     -0.005465
    11   Atom        0.001952      0.001048     -0.003001
    12   Atom        0.011420     -0.009171     -0.002249
    13   Atom        0.004484     -0.000982     -0.003502
    14   Atom        0.005858     -0.001830     -0.004028
 --------------------------------------------------------
                        XY            XZ            YZ
 --------------------------------------------------------
     1   Atom        0.400294      1.010102      1.134962
     2   Atom       -0.118591     -0.105258      0.122496
     3   Atom       -0.001717     -0.015540      0.002242
     4   Atom       -0.007603     -0.017735      0.015683
     5   Atom        0.002009      0.014325     -0.005738
     6   Atom       -0.003982     -0.047167      0.025123
     7   Atom        0.003076      0.012657     -0.007433
     8   Atom       -0.003352     -0.050747      0.018086
     9   Atom       -0.212750     -0.672373      0.550929
    10   Atom       -0.003174     -0.000939     -0.002018
    11   Atom       -0.000055      0.000403     -0.000015
    12   Atom        0.006536      0.001803      0.002268
    13   Atom        0.001256     -0.000058     -0.000845
    14   Atom        0.002308     -0.010327     -0.010046
 --------------------------------------------------------


 ---------------------------------------------------------------------------------
              Anisotropic Spin Dipole Couplings in Principal Axis System
 ---------------------------------------------------------------------------------

       Atom             a.u.   MegaHertz   Gauss  10(-4) cm-1        Axes

              Baa    -3.0427   220.166    78.561    73.440 -0.1584 -0.2995  0.9409
     1 O(17)  Bbb     0.4499   -32.551   -11.615   -10.858 -0.3422  0.9105  0.2322
              Bcc     2.5928  -187.615   -66.946   -62.582  0.9262  0.2852  0.2467
 
              Baa    -0.1315   -70.175   -25.040   -23.408  0.4370  0.8169 -0.3764
     2 H(1)   Bbb    -0.0995   -53.096   -18.946   -17.711  0.7007 -0.0468  0.7119
              Bcc     0.2310   123.271    43.986    41.119 -0.5640  0.5748  0.5929
 
              Baa    -0.0350    -4.702    -1.678    -1.568  0.2064 -0.0639  0.9764
     3 C(13)  Bbb    -0.0063    -0.847    -0.302    -0.283  0.0573  0.9969  0.0531
              Bcc     0.0414     5.549     1.980     1.851  0.9768 -0.0450 -0.2094
 
              Baa    -0.0578    -7.753    -2.767    -2.586  0.5860  0.8102 -0.0147
     4 C(13)  Bbb    -0.0458    -6.143    -2.192    -2.049  0.8012 -0.5766  0.1598
              Bcc     0.1036    13.896     4.958     4.635 -0.1210  0.1054  0.9870
 
              Baa    -0.0394    -5.283    -1.885    -1.762 -0.2419  0.1078  0.9643
     5 C(13)  Bbb     0.0171     2.293     0.818     0.765 -0.0782  0.9884 -0.1301
              Bcc     0.0223     2.990     1.067     0.997  0.9672  0.1069  0.2306
 
              Baa    -0.0771   -10.351    -3.694    -3.453 -0.1660  0.9737 -0.1559
     6 C(13)  Bbb    -0.0671    -9.000    -3.212    -3.002  0.9590  0.1962  0.2045
              Bcc     0.1442    19.352     6.905     6.455 -0.2297  0.1156  0.9664
 
              Baa    -0.0422    -5.660    -2.020    -1.888 -0.1939  0.1362  0.9715
     7 C(13)  Bbb     0.0160     2.152     0.768     0.718 -0.1286  0.9782 -0.1628
              Bcc     0.0261     3.508     1.252     1.170  0.9726  0.1565  0.1721
 
              Baa    -0.0608    -8.156    -2.910    -2.720 -0.2509  0.9480 -0.1959
     8 C(13)  Bbb    -0.0509    -6.825    -2.435    -2.277  0.9101  0.3000  0.2858
              Bcc     0.1116    14.981     5.346     4.997 -0.3297  0.1066  0.9380
 
              Baa    -0.7052    51.026    18.207    17.020  0.7708 -0.4279  0.4720
     9 O(17)  Bbb    -0.6604    47.785    17.051    15.939  0.5196  0.8510 -0.0770
              Bcc     1.3656   -98.811   -35.258   -32.960 -0.3687  0.3046  0.8782
 
              Baa    -0.0065    -3.481    -1.242    -1.161  0.4975  0.2103  0.8416
    10 H(1)   Bbb    -0.0035    -1.860    -0.664    -0.620  0.8395  0.1274 -0.5281
              Bcc     0.0100     5.341     1.906     1.782 -0.2183  0.9693 -0.1132
 
              Baa    -0.0030    -1.618    -0.577    -0.540 -0.0805  0.0025  0.9968
    11 H(1)   Bbb     0.0010     0.558     0.199     0.186  0.0591  0.9982  0.0022
              Bcc     0.0020     1.061     0.378     0.354  0.9950 -0.0591  0.0805
 
              Baa    -0.0114    -6.074    -2.167    -2.026 -0.2572  0.9485 -0.1847
    12 H(1)   Bbb    -0.0023    -1.221    -0.436    -0.407 -0.1930  0.1368  0.9716
              Bcc     0.0137     7.295     2.603     2.433  0.9469  0.2856  0.1479
 
              Baa    -0.0038    -2.012    -0.718    -0.671 -0.0399  0.3060  0.9512
    13 H(1)   Bbb    -0.0010    -0.530    -0.189    -0.177 -0.2158  0.9268 -0.3072
              Bcc     0.0048     2.543     0.907     0.848  0.9756  0.2175 -0.0291
 
              Baa    -0.0152    -8.094    -2.888    -2.700  0.3254  0.5323  0.7815
    14 H(1)   Bbb    -0.0006    -0.329    -0.117    -0.110 -0.6367  0.7344 -0.2350
              Bcc     0.0158     8.422     3.005     2.809  0.6991  0.4211 -0.5779
 

 ---------------------------------------------------------------------------------

 Calling FoFJK, ICntrl=    100127 FMM=F ISym2X=0 I1Cent= 0 IOpClX= 1 NMat=1 NMatS=1 NMatT=0.
 -------------------------------------------------------------------
 Center     Atomic                   Forces (Hartrees/Bohr)
 Number     Number              X              Y              Z
 -------------------------------------------------------------------
      1        8           0.000002717    0.000025265    0.000003773
      2        1           0.000001052    0.000024745    0.000011713
      3        6          -0.000013749    0.000002154    0.000004506
      4        6          -0.000005849   -0.000002519    0.000010211
      5        6          -0.000007394   -0.000010690    0.000002305
      6        6           0.000002792   -0.000009042   -0.000006345
      7        6           0.000008849   -0.000006468   -0.000009586
      8        6           0.000005072    0.000005313   -0.000005721
      9        8           0.000000719    0.000003016    0.000003199
     10        1          -0.000015640    0.000001301    0.000014502
     11        1          -0.000009674   -0.000011796    0.000004985
     12        1           0.000005954   -0.000016335   -0.000010385
     13        1           0.000015391   -0.000008305   -0.000016532
     14        1           0.000009760    0.000003362   -0.000006625
 -------------------------------------------------------------------
 Cartesian Forces:  Max     0.000025265 RMS     0.000010055
 IRC-IRC-IRC-IRC-IRC-IRC-IRC-IRC-IRC-IRC-IRC-IRC-IRC-IRC-IRC-IRC-IRC-IRC
          ******** Start new reaction path calculation ********
 Supplied step size of   0.1000 bohr.
    Integration on MW PES will use step size of   0.1062 sqrt(amu)*bohr.
 Point Number:   0          Path Number:   1
 Calculating another point on the path.
 IRC-IRC-IRC-IRC-IRC-IRC-IRC-IRC-IRC-IRC-IRC-IRC-IRC-IRC-IRC-IRC-IRC-IRC
                          Input orientation:                          
 ---------------------------------------------------------------------
 Center     Atomic      Atomic             Coordinates (Angstroms)
 Number     Number       Type             X           Y           Z
 ---------------------------------------------------------------------
      1          8           0       -2.935338    0.558065    0.723159
      2          1           0       -2.287616   -0.156822   -0.244339
      3          6           0       -0.356510   -0.383950   -0.287443
      4          6           0        0.629636   -1.309999    0.076105
      5          6           0        1.919653   -0.875526    0.303927
      6          6           0        2.231344    0.479174    0.207740
      7          6           0        1.247230    1.401859   -0.132255
      8          6           0       -0.043307    0.979956   -0.389947
      9          8           0       -1.581103   -0.830292   -0.557119
     10          1           0        0.352757   -2.351638    0.159273
     11          1           0        2.688447   -1.588261    0.569241
     12          1           0        3.240982    0.814840    0.399217
     13          1           0        1.492580    2.452528   -0.204273
     14          1           0       -0.820134    1.678786   -0.672495
 ---------------------------------------------------------------------
                    Distance matrix (angstroms):
                    1          2          3          4          5
     1  O    0.000000
     2  H    1.366257   0.000000
     3  C    2.925587   1.944894   0.000000
     4  C    4.076442   3.153230   1.400792   0.000000
     5  C    5.079554   4.303282   2.402558   1.380149   0.000000
     6  C    5.192927   4.585833   2.772577   2.404981   1.393418
     7  C    4.351735   3.864865   2.405240   2.789087   2.414309
     8  C    3.127434   2.519998   1.403155   2.431861   2.788814
     9  O    2.323919   1.024966   1.331005   2.349140   3.605376
    10  H    4.426727   3.457122   2.138788   1.081014   2.157543
    11  H    6.021409   5.241387   3.384677   2.135255   1.081401
    12  H    6.190137   5.650105   3.853641   3.382080   2.147633
    13  H    4.904649   4.593494   3.386984   3.870386   3.393612
    14  H    2.770912   2.388781   2.148975   3.405154   3.870962
                    6          7          8          9         10
     6  C    0.000000
     7  C    1.391196   0.000000
     8  C    2.404589   1.381989   0.000000
     9  O    4.102982   3.628013   2.381126   0.000000
    10  H    3.397784   3.869601   3.399710   2.562719   0.000000
    11  H    2.148002   3.392642   3.870176   4.480208   2.491237
    12  H    1.081066   2.145250   3.381804   5.183970   4.292551
    13  H    2.147011   1.081337   2.135858   4.510980   4.950896
    14  H    3.394909   2.154656   1.082431   2.624473   4.279233
                   11         12         13         14
    11  H    0.000000
    12  H    2.471659   0.000000
    13  H    4.284437   2.470452   0.000000
    14  H    4.952338   4.288080   2.483255   0.000000
 Symmetry turned off by external request.
 Stoichiometry    C6H6O2(3)
 Framework group  C1[X(C6H6O2)]
 Deg. of freedom    36
 Full point group                 C1      NOp   1
 Rotational constants (GHZ):      4.1348635      1.4358377      1.1586023
 Standard basis: 6-311+G(2df,2p) (5D, 7F)
 Integral buffers will be    131072 words long.
 Raffenetti 2 integral format.
 Two-electron integral symmetry is turned off.
   326 basis functions,   482 primitive gaussians,   366 cartesian basis functions
    30 alpha electrons       28 beta electrons
       nuclear repulsion energy       333.4845882970 Hartrees.
 NAtoms=   14 NActive=   14 NUniq=   14 SFac= 1.00D+00 NAtFMM=   50 NAOKFM=F Big=F
 One-electron integrals computed using PRISM.
 NBasis=   326 RedAO= T  NBF=   326
 NBsUse=   326 1.00D-06 NBFU=   326
 Initial guess read from the read-write file.
 B after Tr=     0.000000    0.000000    0.000000
         Rot=    1.000000    0.000000    0.000000    0.000000 Ang=   0.00 deg.
 Initial guess <Sx>= 0.0000 <Sy>= 0.0000 <Sz>= 1.0000 <S**2>= 2.0217 S= 1.0072
 Harris functional with IExCor= 1009 diagonalized for initial guess.
 ExpMin= 4.38D-02 ExpMax= 8.59D+03 ExpMxC= 1.30D+03 IAcc=2 IRadAn=         0 AccDes= 0.00D+00
 HarFok:  IExCor= 1009 AccDes= 0.00D+00 IRadAn=         0 IDoV= 1
 ScaDFX=  1.000000  1.000000  1.000000  1.000000
 FoFCou: FMM=F IPFlag=           0 FMFlag=      100000 FMFlg1=           0
         NFxFlg=           0 DoJE=T BraDBF=F KetDBF=T FulRan=T
         Omega=  0.000000  0.000000  1.000000  0.000000  0.000000 ICntrl=     500 IOpCl=  0
         NMat0=    1 NMatS0=    1 NMatT0=    0 NMatD0=    1 NMtDS0=    0 NMtDT0=    0
         I1Cent=           4 NGrid=           0.
 Symmetry not used in FoFCou.
 Requested convergence on RMS density matrix=1.00D-08 within 128 cycles.
 Requested convergence on MAX density matrix=1.00D-06.
 Requested convergence on             energy=1.00D-06.
 No special actions if energy rises.
 Restarting incremental Fock formation.
 SCF Done:  E(UM062X) =  -382.495738030     A.U. after   29 cycles
             Convg  =    0.7031D-08             -V/T =  2.0033
 <Sx>= 0.0000 <Sy>= 0.0000 <Sz>= 1.0000 <S**2>= 2.0165 S= 1.0055
 <L.S>= 0.000000000000E+00
 Annihilation of the first spin contaminant:
 S**2 before annihilation     2.0165,   after     2.0001
 Range of M.O.s used for correlation:     1   326
 NBasis=   326 NAE=    30 NBE=    28 NFC=     0 NFV=     0
 NROrb=    326 NOA=    30 NOB=    28 NVA=   296 NVB=   298

 **** Warning!!: The largest alpha MO coefficient is  0.12148040D+03


 **** Warning!!: The largest beta MO coefficient is  0.12210243D+03

 Symmetrizing basis deriv contribution to polar:
 IMax=3 JMax=2 DiffMx= 0.00D+00
 G2DrvN: will do    15 centers at a time, making    1 passes doing MaxLOS=3.
 Calling FoFCou, ICntrl=  3107 FMM=F I1Cent=   0 AccDes= 0.00D+00.
 FoFDir/FoFCou used for L=0 through L=3.
 End of G2Drv Frequency-dependent properties file   721 does not exist.
 End of G2Drv Frequency-dependent properties file   722 does not exist.
          IDoAtm=11111111111111
          Differentiating once with respect to electric field.
                with respect to dipole field.
          Differentiating once with respect to nuclear coordinates.
          There are    45 degrees of freedom in the 1st order CPHF.  IDoFFX=5.
     42 vectors produced by pass  0 Test12= 3.83D-14 2.22D-09 XBig12= 4.53D+02 1.83D+01.
 AX will form    42 AO Fock derivatives at one time.
     42 vectors produced by pass  1 Test12= 3.83D-14 2.22D-09 XBig12= 5.60D+01 9.80D-01.
     42 vectors produced by pass  2 Test12= 3.83D-14 2.22D-09 XBig12= 8.06D+00 3.73D-01.
     42 vectors produced by pass  3 Test12= 3.83D-14 2.22D-09 XBig12= 1.30D-01 8.80D-02.
     42 vectors produced by pass  4 Test12= 3.83D-14 2.22D-09 XBig12= 2.57D-03 8.37D-03.
     42 vectors produced by pass  5 Test12= 3.83D-14 2.22D-09 XBig12= 3.07D-05 6.58D-04.
     42 vectors produced by pass  6 Test12= 3.83D-14 2.22D-09 XBig12= 3.50D-07 8.17D-05.
     28 vectors produced by pass  7 Test12= 3.83D-14 2.22D-09 XBig12= 2.80D-09 5.87D-06.
      6 vectors produced by pass  8 Test12= 3.83D-14 2.22D-09 XBig12= 2.22D-11 4.06D-07.
      3 vectors produced by pass  9 Test12= 3.83D-14 2.22D-09 XBig12= 3.06D-13 6.34D-08.
      3 vectors produced by pass 10 Test12= 3.83D-14 2.22D-09 XBig12= 4.88D-14 3.12D-08.
      3 vectors produced by pass 11 Test12= 3.83D-14 2.22D-09 XBig12= 6.51D-15 1.28D-08.
      3 vectors produced by pass 12 Test12= 3.83D-14 2.22D-09 XBig12= 2.26D-15 1.03D-08.
      3 vectors produced by pass 13 Test12= 3.83D-14 2.22D-09 XBig12= 1.54D-15 7.38D-09.
      3 vectors produced by pass 14 Test12= 3.83D-14 2.22D-09 XBig12= 1.35D-15 7.04D-09.
      3 vectors produced by pass 15 Test12= 3.83D-14 2.22D-09 XBig12= 1.01D-15 5.48D-09.
      3 vectors produced by pass 16 Test12= 3.83D-14 2.22D-09 XBig12= 1.61D-15 7.20D-09.
      3 vectors produced by pass 17 Test12= 3.83D-14 2.22D-09 XBig12= 7.09D-16 5.87D-09.
      3 vectors produced by pass 18 Test12= 3.83D-14 2.22D-09 XBig12= 1.12D-15 4.22D-09.
      3 vectors produced by pass 19 Test12= 3.83D-14 2.22D-09 XBig12= 7.71D-16 4.49D-09.
      3 vectors produced by pass 20 Test12= 3.83D-14 2.22D-09 XBig12= 7.50D-16 3.90D-09.
      3 vectors produced by pass 21 Test12= 3.83D-14 2.22D-09 XBig12= 5.01D-16 4.04D-09.
      3 vectors produced by pass 22 Test12= 3.83D-14 2.22D-09 XBig12= 4.77D-16 3.80D-09.
      3 vectors produced by pass 23 Test12= 3.83D-14 2.22D-09 XBig12= 6.36D-16 4.63D-09.
      3 vectors produced by pass 24 Test12= 3.83D-14 2.22D-09 XBig12= 5.25D-16 4.20D-09.
      2 vectors produced by pass 25 Test12= 3.83D-14 2.22D-09 XBig12= 5.64D-16 3.49D-09.
      2 vectors produced by pass 26 Test12= 3.83D-14 2.22D-09 XBig12= 5.10D-16 2.94D-09.
      2 vectors produced by pass 27 Test12= 3.83D-14 2.22D-09 XBig12= 1.03D-15 5.39D-09.
      2 vectors produced by pass 28 Test12= 3.83D-14 2.22D-09 XBig12= 3.59D-16 2.97D-09.
      2 vectors produced by pass 29 Test12= 3.83D-14 2.22D-09 XBig12= 4.49D-16 3.19D-09.
      2 vectors produced by pass 30 Test12= 3.83D-14 2.22D-09 XBig12= 4.39D-16 2.65D-09.
      2 vectors produced by pass 31 Test12= 3.83D-14 2.22D-09 XBig12= 4.39D-16 3.08D-09.
      2 vectors produced by pass 32 Test12= 3.83D-14 2.22D-09 XBig12= 3.78D-16 2.83D-09.
      2 vectors produced by pass 33 Test12= 3.83D-14 2.22D-09 XBig12= 3.26D-16 3.05D-09.
      2 vectors produced by pass 34 Test12= 3.83D-14 2.22D-09 XBig12= 4.18D-16 2.91D-09.
      1 vectors produced by pass 35 Test12= 3.83D-14 2.22D-09 XBig12= 3.15D-16 2.23D-09.
 Inverted reduced A of dimension   397 with in-core refinement.
 Isotropic polarizability for W=    0.000000      138.16 Bohr**3.
 End of Minotr Frequency-dependent properties file   721 does not exist.
 End of Minotr Frequency-dependent properties file   722 does not exist.
 Calling FoFJK, ICntrl=    100127 FMM=F ISym2X=0 I1Cent= 0 IOpClX= 1 NMat=1 NMatS=1 NMatT=0.
 -------------------------------------------------------------------
 Center     Atomic                   Forces (Hartrees/Bohr)
 Number     Number              X              Y              Z
 -------------------------------------------------------------------
      1        8          -0.004709193    0.005025958    0.007710833
      2        1           0.002264337   -0.001596701   -0.007708508
      3        6           0.006988899    0.003101153    0.001610713
      4        6          -0.002120513    0.001478539   -0.001364037
      5        6           0.000337785    0.001693719    0.000043089
      6        6           0.000327290    0.000250244   -0.000011420
      7        6           0.001597765   -0.000831620    0.000633344
      8        6          -0.000763209   -0.002589720    0.000607134
      9        8          -0.004074688   -0.006575387   -0.001069428
     10        1          -0.000068513    0.000088987   -0.000075587
     11        1          -0.000048128    0.000028560    0.000042008
     12        1           0.000025935   -0.000001017   -0.000057927
     13        1           0.000054161   -0.000031494   -0.000026963
     14        1           0.000188071   -0.000041221   -0.000333252
 -------------------------------------------------------------------
 Cartesian Forces:  Max     0.007710833 RMS     0.002756859
 IRC-IRC-IRC-IRC-IRC-IRC-IRC-IRC-IRC-IRC-IRC-IRC-IRC-IRC-IRC-IRC-IRC-IRC
 Pt  1 Step number   1 out of a maximum of  20
 CORRECTOR INTEGRATION CONVERGENCE:
   Recorrection delta-x convergence threshold:    0.010000
   Delta-x Convergence NOT Met
 IRC-IRC-IRC-IRC-IRC-IRC-IRC-IRC-IRC-IRC-IRC-IRC-IRC-IRC-IRC-IRC-IRC-IRC
                          Input orientation:                          
 ---------------------------------------------------------------------
 Center     Atomic      Atomic             Coordinates (Angstroms)
 Number     Number       Type             X           Y           Z
 ---------------------------------------------------------------------
      1          8           0       -2.935513    0.558258    0.723481
      2          1           0       -2.290029   -0.153025   -0.246873
      3          6           0       -0.356424   -0.383861   -0.287380
      4          6           0        0.629621   -1.309957    0.076074
      5          6           0        1.919624   -0.875497    0.303928
      6          6           0        2.231376    0.479207    0.207737
      7          6           0        1.247289    1.401820   -0.132238
      8          6           0       -0.043308    0.979934   -0.389915
      9          8           0       -1.580876   -0.830814   -0.557323
     10          1           0        0.352647   -2.351550    0.159244
     11          1           0        2.688373   -1.588269    0.569262
     12          1           0        3.241040    0.814804    0.399170
     13          1           0        1.492635    2.452474   -0.204354
     14          1           0       -0.820034    1.678663   -0.672627
 ---------------------------------------------------------------------
                    Distance matrix (angstroms):
                    1          2          3          4          5
     1  O    0.000000
     2  H    1.365342   0.000000
     3  C    2.925941   1.947756   0.000000
     4  C    4.076707   3.157078   1.400727   0.000000
     5  C    5.079767   4.306567   2.402446   1.380138   0.000000
     6  C    5.193167   4.587972   2.772496   2.405008   1.393436
     7  C    4.351975   3.865656   2.405123   2.789022   2.414218
     8  C    3.127668   2.520279   1.403029   2.431785   2.788753
     9  O    2.324870   1.028919   1.331135   2.348844   3.605170
    10  H    4.426888   3.461528   2.138704   1.080994   2.157564
    11  H    6.021583   5.245044   3.384557   2.135218   1.081398
    12  H    6.190380   5.652148   3.853556   3.382087   2.147634
    13  H    4.904837   4.593362   3.386843   3.870313   3.393533
    14  H    2.771223   2.386887   2.148803   3.404982   3.870803
                    6          7          8          9         10
     6  C    0.000000
     7  C    1.391123   0.000000
     8  C    2.404600   1.382037   0.000000
     9  O    4.103016   3.628205   2.381375   0.000000
    10  H    3.397817   3.869513   3.399580   2.562151   0.000000
    11  H    2.148023   3.392559   3.870112   4.479891   2.491251
    12  H    1.081061   2.145233   3.381843   5.183996   4.292572
    13  H    2.146938   1.081328   2.135867   4.511213   4.950801
    14  H    3.394825   2.154643   1.082336   2.624815   4.278996
                   11         12         13         14
    11  H    0.000000
    12  H    2.471665   0.000000
    13  H    4.284376   2.470450   0.000000
    14  H    4.952176   4.288044   2.483244   0.000000
 Symmetry turned off by external request.
 Stoichiometry    C6H6O2(3)
 Framework group  C1[X(C6H6O2)]
 Deg. of freedom    36
 Full point group                 C1      NOp   1
 Rotational constants (GHZ):      4.1341098      1.4357233      1.1585256
 Standard basis: 6-311+G(2df,2p) (5D, 7F)
 Integral buffers will be    131072 words long.
 Raffenetti 2 integral format.
 Two-electron integral symmetry is turned off.
   326 basis functions,   482 primitive gaussians,   366 cartesian basis functions
    30 alpha electrons       28 beta electrons
       nuclear repulsion energy       333.4599238687 Hartrees.
 NAtoms=   14 NActive=   14 NUniq=   14 SFac= 1.00D+00 NAtFMM=   50 NAOKFM=F Big=F
 One-electron integrals computed using PRISM.
 NBasis=   326 RedAO= T  NBF=   326
 NBsUse=   326 1.00D-06 NBFU=   326
 Initial guess read from the read-write file.
 B after Tr=     0.000000    0.000000    0.000000
         Rot=    1.000000    0.000000    0.000000    0.000000 Ang=   0.00 deg.
 Initial guess <Sx>= 0.0000 <Sy>= 0.0000 <Sz>= 1.0000 <S**2>= 2.0165 S= 1.0055
 Harris functional with IExCor= 1009 diagonalized for initial guess.
 ExpMin= 4.38D-02 ExpMax= 8.59D+03 ExpMxC= 1.30D+03 IAcc=2 IRadAn=         0 AccDes= 0.00D+00
 HarFok:  IExCor= 1009 AccDes= 0.00D+00 IRadAn=         0 IDoV= 1
 ScaDFX=  1.000000  1.000000  1.000000  1.000000
 FoFCou: FMM=F IPFlag=           0 FMFlag=      100000 FMFlg1=           0
         NFxFlg=           0 DoJE=T BraDBF=F KetDBF=T FulRan=T
         Omega=  0.000000  0.000000  1.000000  0.000000  0.000000 ICntrl=     500 IOpCl=  0
         NMat0=    1 NMatS0=    1 NMatT0=    0 NMatD0=    1 NMtDS0=    0 NMtDT0=    0
         I1Cent=           4 NGrid=           0.
 Symmetry not used in FoFCou.
 Requested convergence on RMS density matrix=1.00D-08 within 128 cycles.
 Requested convergence on MAX density matrix=1.00D-06.
 Requested convergence on             energy=1.00D-06.
 No special actions if energy rises.
 Restarting incremental Fock formation.
 SCF Done:  E(UM062X) =  -382.495761270     A.U. after   26 cycles
             Convg  =    0.9208D-08             -V/T =  2.0033
 <Sx>= 0.0000 <Sy>= 0.0000 <Sz>= 1.0000 <S**2>= 2.0167 S= 1.0056
 <L.S>= 0.000000000000E+00
 Annihilation of the first spin contaminant:
 S**2 before annihilation     2.0167,   after     2.0001
 Range of M.O.s used for correlation:     1   326
 NBasis=   326 NAE=    30 NBE=    28 NFC=     0 NFV=     0
 NROrb=    326 NOA=    30 NOB=    28 NVA=   296 NVB=   298

 **** Warning!!: The largest alpha MO coefficient is  0.12160529D+03


 **** Warning!!: The largest beta MO coefficient is  0.12206702D+03

 Symmetrizing basis deriv contribution to polar:
 IMax=3 JMax=2 DiffMx= 0.00D+00
 G2DrvN: will do    15 centers at a time, making    1 passes doing MaxLOS=3.
 Calling FoFCou, ICntrl=  3107 FMM=F I1Cent=   0 AccDes= 0.00D+00.
 FoFDir/FoFCou used for L=0 through L=3.
 End of G2Drv Frequency-dependent properties file   721 does not exist.
 End of G2Drv Frequency-dependent properties file   722 does not exist.
          IDoAtm=11111111111111
          Differentiating once with respect to electric field.
                with respect to dipole field.
          Differentiating once with respect to nuclear coordinates.
          There are    45 degrees of freedom in the 1st order CPHF.  IDoFFX=5.
     42 vectors produced by pass  0 Test12= 3.83D-14 2.22D-09 XBig12= 4.56D+02 1.84D+01.
 AX will form    42 AO Fock derivatives at one time.
     42 vectors produced by pass  1 Test12= 3.83D-14 2.22D-09 XBig12= 5.67D+01 9.68D-01.
     42 vectors produced by pass  2 Test12= 3.83D-14 2.22D-09 XBig12= 8.27D+00 3.76D-01.
     42 vectors produced by pass  3 Test12= 3.83D-14 2.22D-09 XBig12= 1.33D-01 8.91D-02.
     42 vectors produced by pass  4 Test12= 3.83D-14 2.22D-09 XBig12= 2.62D-03 8.30D-03.
     42 vectors produced by pass  5 Test12= 3.83D-14 2.22D-09 XBig12= 3.12D-05 6.69D-04.
     42 vectors produced by pass  6 Test12= 3.83D-14 2.22D-09 XBig12= 3.56D-07 8.22D-05.
     28 vectors produced by pass  7 Test12= 3.83D-14 2.22D-09 XBig12= 2.85D-09 5.89D-06.
      5 vectors produced by pass  8 Test12= 3.83D-14 2.22D-09 XBig12= 2.26D-11 4.08D-07.
      5 vectors produced by pass  9 Test12= 3.83D-14 2.22D-09 XBig12= 3.37D-13 6.67D-08.
      5 vectors produced by pass 10 Test12= 3.83D-14 2.22D-09 XBig12= 3.95D-14 3.97D-08.
      5 vectors produced by pass 11 Test12= 3.83D-14 2.22D-09 XBig12= 2.14D-15 7.10D-09.
      5 vectors produced by pass 12 Test12= 3.83D-14 2.22D-09 XBig12= 2.08D-15 6.88D-09.
      5 vectors produced by pass 13 Test12= 3.83D-14 2.22D-09 XBig12= 1.17D-15 6.05D-09.
      5 vectors produced by pass 14 Test12= 3.83D-14 2.22D-09 XBig12= 1.03D-15 5.19D-09.
      4 vectors produced by pass 15 Test12= 3.83D-14 2.22D-09 XBig12= 1.26D-15 5.40D-09.
      4 vectors produced by pass 16 Test12= 3.83D-14 2.22D-09 XBig12= 6.51D-16 4.07D-09.
      4 vectors produced by pass 17 Test12= 3.83D-14 2.22D-09 XBig12= 7.02D-16 5.22D-09.
      4 vectors produced by pass 18 Test12= 3.83D-14 2.22D-09 XBig12= 6.92D-16 3.79D-09.
      3 vectors produced by pass 19 Test12= 3.83D-14 2.22D-09 XBig12= 4.42D-16 3.50D-09.
      2 vectors produced by pass 20 Test12= 3.83D-14 2.22D-09 XBig12= 4.21D-16 2.61D-09.
      2 vectors produced by pass 21 Test12= 3.83D-14 2.22D-09 XBig12= 5.78D-16 4.35D-09.
      2 vectors produced by pass 22 Test12= 3.83D-14 2.22D-09 XBig12= 4.73D-16 3.38D-09.
      1 vectors produced by pass 23 Test12= 3.83D-14 2.22D-09 XBig12= 3.07D-16 2.66D-09.
 Inverted reduced A of dimension   383 with in-core refinement.
 Isotropic polarizability for W=    0.000000      137.96 Bohr**3.
 End of Minotr Frequency-dependent properties file   721 does not exist.
 End of Minotr Frequency-dependent properties file   722 does not exist.
 Calling FoFJK, ICntrl=    100127 FMM=F ISym2X=0 I1Cent= 0 IOpClX= 1 NMat=1 NMatS=1 NMatT=0.
 -------------------------------------------------------------------
 Center     Atomic                   Forces (Hartrees/Bohr)
 Number     Number              X              Y              Z
 -------------------------------------------------------------------
      1        8          -0.004336951    0.004645435    0.007107780
      2        1           0.003302367   -0.002609669   -0.007547738
      3        6           0.006349380    0.002805378    0.001465909
      4        6          -0.001917991    0.001407123   -0.001236116
      5        6           0.000304957    0.001594754    0.000039698
      6        6           0.000346333    0.000204987    0.000002256
      7        6           0.001466139   -0.000764925    0.000581841
      8        6          -0.000616848   -0.002410549    0.000583361
      9        8          -0.005007243   -0.004961476   -0.000559993
     10        1          -0.000067358    0.000079568   -0.000074447
     11        1          -0.000043852    0.000029636    0.000037032
     12        1           0.000026103    0.000004064   -0.000053010
     13        1           0.000051304   -0.000027404   -0.000025055
     14        1           0.000143661    0.000003078   -0.000321519
 -------------------------------------------------------------------
 Cartesian Forces:  Max     0.007547738 RMS     0.002608016
 IRC-IRC-IRC-IRC-IRC-IRC-IRC-IRC-IRC-IRC-IRC-IRC-IRC-IRC-IRC-IRC-IRC-IRC
 Error in corrector energy =          -0.0000034188
 Magnitude of corrector gradient =     0.0173604624
 Magnitude of analytic gradient =      0.0169018760
 Magnitude of difference =             0.0011277097
 Angle between gradients (degrees)=    3.4466
 Pt  1 Step number   2 out of a maximum of  20
 CORRECTOR INTEGRATION CONVERGENCE:
   Recorrection delta-x convergence threshold:    0.010000
   Delta-x Convergence Met
 Point Number:   1          Path Number:   1
   CHANGE IN THE REACTION COORDINATE =    0.10474
   NET REACTION COORDINATE UP TO THIS POINT =    0.10474
  # OF POINTS ALONG THE PATH =   1
  # OF STEPS =   2

 Calculating another point on the path.
 IRC-IRC-IRC-IRC-IRC-IRC-IRC-IRC-IRC-IRC-IRC-IRC-IRC-IRC-IRC-IRC-IRC-IRC
                          Input orientation:                          
 ---------------------------------------------------------------------
 Center     Atomic      Atomic             Coordinates (Angstroms)
 Number     Number       Type             X           Y           Z
 ---------------------------------------------------------------------
      1          8           0       -2.937251    0.560126    0.726175
      2          1           0       -2.271934   -0.167931   -0.291390
      3          6           0       -0.353264   -0.382516   -0.286744
      4          6           0        0.628710   -1.309225    0.075374
      5          6           0        1.919780   -0.874671    0.303961
      6          6           0        2.231579    0.479312    0.207747
      7          6           0        1.248018    1.401440   -0.131909
      8          6           0       -0.043602    0.978703   -0.389573
      9          8           0       -1.582613   -0.832830   -0.557515
     10          1           0        0.352260   -2.351034    0.158627
     11          1           0        2.688128   -1.588027    0.569516
     12          1           0        3.241224    0.814871    0.398816
     13          1           0        1.492933    2.452310   -0.204442
     14          1           0       -0.819078    1.678617   -0.674758
 ---------------------------------------------------------------------
                    Distance matrix (angstroms):
                    1          2          3          4          5
     1  O    0.000000
     2  H    1.417092   0.000000
     3  C    2.931137   1.930639   0.000000
     4  C    4.078491   3.138599   1.397923   0.000000
     5  C    5.082092   4.292365   2.399558   1.381286   0.000000
     6  C    5.195392   4.577084   2.769238   2.405322   1.392748
     7  C    4.354375   3.857256   2.402202   2.788227   2.412868
     8  C    3.129425   2.507962   1.399779   2.429567   2.787626
     9  O    2.328783   0.994021   1.336936   2.348925   3.607028
    10  H    4.429203   3.443087   2.138033   1.081075   2.158214
    11  H    6.023619   5.230684   3.381790   2.136144   1.081552
    12  H    6.192383   5.642446   3.850203   3.382547   2.147036
    13  H    4.906417   4.587749   3.383999   3.869667   3.392562
    14  H    2.774940   2.380652   2.148443   3.403819   3.870209
                    6          7          8          9         10
     6  C    0.000000
     7  C    1.390352   0.000000
     8  C    2.404711   1.383249   0.000000
     9  O    4.105533   3.631194   2.382941   0.000000
    10  H    3.397810   3.868831   3.397702   2.561549   0.000000
    11  H    2.147837   3.391582   3.869148   4.481044   2.491444
    12  H    1.080967   2.144435   3.382082   5.186413   4.292640
    13  H    2.146677   1.081468   2.136991   4.513954   4.950259
    14  H    3.394651   2.155086   1.082853   2.627564   4.278393
                   11         12         13         14
    11  H    0.000000
    12  H    2.471633   0.000000
    13  H    4.283903   2.470151   0.000000
    14  H    4.951734   4.287734   2.482980   0.000000
 Symmetry turned off by external request.
 Stoichiometry    C6H6O2(3)
 Framework group  C1[X(C6H6O2)]
 Deg. of freedom    36
 Full point group                 C1      NOp   1
 Rotational constants (GHZ):      4.1315133      1.4347323      1.1580792
 Standard basis: 6-311+G(2df,2p) (5D, 7F)
 Integral buffers will be    131072 words long.
 Raffenetti 2 integral format.
 Two-electron integral symmetry is turned off.
   326 basis functions,   482 primitive gaussians,   366 cartesian basis functions
    30 alpha electrons       28 beta electrons
       nuclear repulsion energy       333.4552688892 Hartrees.
 NAtoms=   14 NActive=   14 NUniq=   14 SFac= 1.00D+00 NAtFMM=   50 NAOKFM=F Big=F
 One-electron integrals computed using PRISM.
 NBasis=   326 RedAO= T  NBF=   326
 NBsUse=   326 1.00D-06 NBFU=   326
 Initial guess read from the read-write file.
 B after Tr=     0.000000    0.000000    0.000000
         Rot=    1.000000    0.000000    0.000000    0.000000 Ang=   0.00 deg.
 Initial guess <Sx>= 0.0000 <Sy>= 0.0000 <Sz>= 1.0000 <S**2>= 2.0166 S= 1.0055
 Harris functional with IExCor= 1009 diagonalized for initial guess.
 ExpMin= 4.38D-02 ExpMax= 8.59D+03 ExpMxC= 1.30D+03 IAcc=2 IRadAn=         0 AccDes= 0.00D+00
 HarFok:  IExCor= 1009 AccDes= 0.00D+00 IRadAn=         0 IDoV= 1
 ScaDFX=  1.000000  1.000000  1.000000  1.000000
 FoFCou: FMM=F IPFlag=           0 FMFlag=      100000 FMFlg1=           0
         NFxFlg=           0 DoJE=T BraDBF=F KetDBF=T FulRan=T
         Omega=  0.000000  0.000000  1.000000  0.000000  0.000000 ICntrl=     500 IOpCl=  0
         NMat0=    1 NMatS0=    1 NMatT0=    0 NMatD0=    1 NMtDS0=    0 NMtDT0=    0
         I1Cent=           4 NGrid=           0.
 Symmetry not used in FoFCou.
 Requested convergence on RMS density matrix=1.00D-08 within 128 cycles.
 Requested convergence on MAX density matrix=1.00D-06.
 Requested convergence on             energy=1.00D-06.
 No special actions if energy rises.
 Restarting incremental Fock formation.
 SCF Done:  E(UM062X) =  -382.496864919     A.U. after   30 cycles
             Convg  =    0.5456D-08             -V/T =  2.0032
 <Sx>= 0.0000 <Sy>= 0.0000 <Sz>= 1.0000 <S**2>= 2.0130 S= 1.0043
 <L.S>= 0.000000000000E+00
 Annihilation of the first spin contaminant:
 S**2 before annihilation     2.0130,   after     2.0001
 Range of M.O.s used for correlation:     1   326
 NBasis=   326 NAE=    30 NBE=    28 NFC=     0 NFV=     0
 NROrb=    326 NOA=    30 NOB=    28 NVA=   296 NVB=   298

 **** Warning!!: The largest alpha MO coefficient is  0.10997754D+03


 **** Warning!!: The largest beta MO coefficient is  0.11965070D+03

 Symmetrizing basis deriv contribution to polar:
 IMax=3 JMax=2 DiffMx= 0.00D+00
 G2DrvN: will do    15 centers at a time, making    1 passes doing MaxLOS=3.
 Calling FoFCou, ICntrl=  3107 FMM=F I1Cent=   0 AccDes= 0.00D+00.
 FoFDir/FoFCou used for L=0 through L=3.
 End of G2Drv Frequency-dependent properties file   721 does not exist.
 End of G2Drv Frequency-dependent properties file   722 does not exist.
          IDoAtm=11111111111111
          Differentiating once with respect to electric field.
                with respect to dipole field.
          Differentiating once with respect to nuclear coordinates.
          There are    45 degrees of freedom in the 1st order CPHF.  IDoFFX=5.
     42 vectors produced by pass  0 Test12= 3.83D-14 2.22D-09 XBig12= 3.64D+02 1.55D+01.
 AX will form    42 AO Fock derivatives at one time.
     42 vectors produced by pass  1 Test12= 3.83D-14 2.22D-09 XBig12= 4.22D+01 1.30D+00.
     42 vectors produced by pass  2 Test12= 3.83D-14 2.22D-09 XBig12= 4.71D+00 3.31D-01.
     42 vectors produced by pass  3 Test12= 3.83D-14 2.22D-09 XBig12= 7.53D-02 6.20D-02.
     42 vectors produced by pass  4 Test12= 3.83D-14 2.22D-09 XBig12= 1.49D-03 7.98D-03.
     42 vectors produced by pass  5 Test12= 3.83D-14 2.22D-09 XBig12= 1.91D-05 4.45D-04.
     42 vectors produced by pass  6 Test12= 3.83D-14 2.22D-09 XBig12= 2.08D-07 5.02D-05.
     27 vectors produced by pass  7 Test12= 3.83D-14 2.22D-09 XBig12= 1.64D-09 3.87D-06.
      6 vectors produced by pass  8 Test12= 3.83D-14 2.22D-09 XBig12= 1.33D-11 2.97D-07.
      3 vectors produced by pass  9 Test12= 3.83D-14 2.22D-09 XBig12= 1.96D-13 4.90D-08.
      3 vectors produced by pass 10 Test12= 3.83D-14 2.22D-09 XBig12= 5.04D-14 3.25D-08.
      3 vectors produced by pass 11 Test12= 3.83D-14 2.22D-09 XBig12= 1.89D-15 7.90D-09.
      3 vectors produced by pass 12 Test12= 3.83D-14 2.22D-09 XBig12= 2.04D-15 7.87D-09.
      3 vectors produced by pass 13 Test12= 3.83D-14 2.22D-09 XBig12= 9.72D-16 4.57D-09.
      3 vectors produced by pass 14 Test12= 3.83D-14 2.22D-09 XBig12= 1.44D-15 5.92D-09.
      3 vectors produced by pass 15 Test12= 3.83D-14 2.22D-09 XBig12= 1.64D-15 6.19D-09.
      3 vectors produced by pass 16 Test12= 3.83D-14 2.22D-09 XBig12= 8.93D-16 5.34D-09.
      3 vectors produced by pass 17 Test12= 3.83D-14 2.22D-09 XBig12= 1.69D-15 7.59D-09.
      3 vectors produced by pass 18 Test12= 3.83D-14 2.22D-09 XBig12= 4.96D-16 3.00D-09.
      3 vectors produced by pass 19 Test12= 3.83D-14 2.22D-09 XBig12= 9.31D-16 4.49D-09.
      3 vectors produced by pass 20 Test12= 3.83D-14 2.22D-09 XBig12= 6.38D-16 4.54D-09.
      3 vectors produced by pass 21 Test12= 3.83D-14 2.22D-09 XBig12= 6.00D-16 4.24D-09.
      3 vectors produced by pass 22 Test12= 3.83D-14 2.22D-09 XBig12= 6.07D-16 3.92D-09.
      3 vectors produced by pass 23 Test12= 3.83D-14 2.22D-09 XBig12= 5.48D-16 3.27D-09.
      1 vectors produced by pass 24 Test12= 3.83D-14 2.22D-09 XBig12= 4.54D-16 2.71D-09.
 Inverted reduced A of dimension   373 with in-core refinement.
 Isotropic polarizability for W=    0.000000      134.68 Bohr**3.
 End of Minotr Frequency-dependent properties file   721 does not exist.
 End of Minotr Frequency-dependent properties file   722 does not exist.
 Calling FoFJK, ICntrl=    100127 FMM=F ISym2X=0 I1Cent= 0 IOpClX= 1 NMat=1 NMatS=1 NMatT=0.
 -------------------------------------------------------------------
 Center     Atomic                   Forces (Hartrees/Bohr)
 Number     Number              X              Y              Z
 -------------------------------------------------------------------
      1        8          -0.007324635    0.007928705    0.011737689
      2        1           0.000320575    0.001054338   -0.010001201
      3        6           0.007922902    0.003743280    0.001811599
      4        6          -0.002169018    0.002070771   -0.001872408
      5        6           0.000217760    0.002295269    0.000144197
      6        6           0.000781875    0.000476009    0.000041073
      7        6           0.002079354   -0.001160528    0.000904440
      8        6          -0.000607792   -0.003074075    0.001002161
      9        8          -0.001445299   -0.013401235   -0.003058922
     10        1          -0.000118665    0.000170810   -0.000185108
     11        1          -0.000086538    0.000077899    0.000060058
     12        1           0.000070675    0.000022257   -0.000079819
     13        1           0.000064582   -0.000065976   -0.000032222
     14        1           0.000294225   -0.000137523   -0.000471537
 -------------------------------------------------------------------
 Cartesian Forces:  Max     0.013401235 RMS     0.003973312
 IRC-IRC-IRC-IRC-IRC-IRC-IRC-IRC-IRC-IRC-IRC-IRC-IRC-IRC-IRC-IRC-IRC-IRC
 Pt  2 Step number   1 out of a maximum of  20
 CORRECTOR INTEGRATION CONVERGENCE:
   Recorrection delta-x convergence threshold:    0.010000
   Delta-x Convergence NOT Met
 IRC-IRC-IRC-IRC-IRC-IRC-IRC-IRC-IRC-IRC-IRC-IRC-IRC-IRC-IRC-IRC-IRC-IRC
                          Input orientation:                          
 ---------------------------------------------------------------------
 Center     Atomic      Atomic             Coordinates (Angstroms)
 Number     Number       Type             X           Y           Z
 ---------------------------------------------------------------------
      1          8           0       -2.937279    0.560150    0.726367
      2          1           0       -2.274845   -0.163397   -0.292669
      3          6           0       -0.353276   -0.382441   -0.286660
      4          6           0        0.628701   -1.309215    0.075418
      5          6           0        1.919763   -0.874654    0.303960
      6          6           0        2.231600    0.479326    0.207747
      7          6           0        1.248032    1.401417   -0.131932
      8          6           0       -0.043573    0.978726   -0.389593
      9          8           0       -1.582415   -0.833221   -0.557704
     10          1           0        0.352205   -2.350976    0.158648
     11          1           0        2.688077   -1.588012    0.569500
     12          1           0        3.241245    0.814875    0.398864
     13          1           0        1.492914    2.452271   -0.204474
     14          1           0       -0.819057    1.678466   -0.674569
 ---------------------------------------------------------------------
                    Distance matrix (angstroms):
                    1          2          3          4          5
     1  O    0.000000
     2  H    1.414488   0.000000
     3  C    2.931173   1.934023   0.000000
     4  C    4.078539   3.143082   1.397959   0.000000
     5  C    5.082120   4.296113   2.399543   1.381273   0.000000
     6  C    5.195460   4.579471   2.769234   2.405343   1.392753
     7  C    4.354450   3.858126   2.402139   2.788205   2.412824
     8  C    3.129554   2.508468   1.399745   2.429581   2.787601
     9  O    2.329373   0.999183   1.336956   2.348712   3.606858
    10  H    4.429184   3.448272   2.138021   1.081038   2.158212
[...]
  Beta virt. eigenvalues --    3.35040   3.35803   3.39233   3.39859   3.40880
  Beta virt. eigenvalues --    3.41341   3.44816   3.45584   3.50055   3.50742
  Beta virt. eigenvalues --    3.55939   3.57345   3.60509   3.66087   3.67466
  Beta virt. eigenvalues --    3.68737   3.70303   3.72655   3.72783   3.75292
  Beta virt. eigenvalues --    3.79830   3.80284   3.82962   3.83777   3.86352
  Beta virt. eigenvalues --    3.87861   3.90422   3.94364   3.96158   3.98866
  Beta virt. eigenvalues --    4.02230   4.03752   4.04484   4.08681   4.11063
  Beta virt. eigenvalues --    4.13412   4.19608   4.23032   4.23678   4.25443
  Beta virt. eigenvalues --    4.29340   4.31881   4.35954   4.36979   4.38259
  Beta virt. eigenvalues --    4.39332   4.40040   4.45864   4.48903   4.53660
  Beta virt. eigenvalues --    4.57404   4.58605   4.62527   4.66076   4.67786
  Beta virt. eigenvalues --    4.85770   4.91454   4.93675   4.98878   5.03516
  Beta virt. eigenvalues --    5.06928   5.07552   5.07867   5.08887   5.11514
  Beta virt. eigenvalues --    5.12583   5.15289   5.15503   5.17571   5.20793
  Beta virt. eigenvalues --    5.24596   5.26760   5.36392   5.41263   5.44179
  Beta virt. eigenvalues --    5.50729   5.54613   5.56988   5.60927   5.65617
  Beta virt. eigenvalues --    5.68780   5.76231   5.79279   5.80051   6.09697
  Beta virt. eigenvalues --    6.16738   6.34162   6.76154   6.84146   6.84980
  Beta virt. eigenvalues --    6.92717   6.98084   7.06303   7.07732   7.16386
  Beta virt. eigenvalues --    7.26567   7.36372   7.48359   7.61523   7.70850
  Beta virt. eigenvalues --   23.85877  24.37496  24.52192  24.73887  24.74035
  Beta virt. eigenvalues --   25.16652  49.97614  50.30016
          Condensed to atoms (all electrons):
              1          2          3          4          5          6
     1  O    8.089199   0.247334  -0.027143  -0.062937   0.001707   0.001681
     2  H    0.247334   0.458344  -0.004580   0.029032   0.001783  -0.000083
     3  C   -0.027143  -0.004580   6.160045  -0.113814   0.029140  -0.216392
     4  C   -0.062937   0.029032  -0.113814   6.234120   0.353825   0.061489
     5  C    0.001707   0.001783   0.029140   0.353825   5.258789   0.388721
     6  C    0.001681  -0.000083  -0.216392   0.061489   0.388721   4.994369
     7  C    0.079066   0.001022  -0.312527  -0.374303   0.262325   0.446017
     8  C    0.050990  -0.029693   0.178357  -0.503971  -0.362392   0.000451
     9  O   -0.049788   0.010648   0.544226  -0.209572  -0.020652  -0.013365
    10  H    0.000084  -0.000004   0.044526   0.325710   0.029692  -0.009592
    11  H   -0.000009   0.000000  -0.010850   0.042107   0.327565   0.026954
    12  H    0.000003  -0.000001   0.003440  -0.010644   0.025250   0.340337
    13  H    0.000026  -0.000014  -0.008524  -0.003230  -0.004628   0.023633
    14  H   -0.004139   0.003881   0.023451  -0.009409   0.001203  -0.007511
              7          8          9         10         11         12
     1  O    0.079066   0.050990  -0.049788   0.000084  -0.000009   0.000003
     2  H    0.001022  -0.029693   0.010648  -0.000004   0.000000  -0.000001
     3  C   -0.312527   0.178357   0.544226   0.044526  -0.010850   0.003440
     4  C   -0.374303  -0.503971  -0.209572   0.325710   0.042107  -0.010644
     5  C    0.262325  -0.362392  -0.020652   0.029692   0.327565   0.025250
     6  C    0.446017   0.000451  -0.013365  -0.009592   0.026954   0.340337
     7  C    6.059178  -0.130915  -0.037390   0.001274  -0.007293   0.027800
     8  C   -0.130915   6.316252  -0.202421  -0.005725   0.001166  -0.010237
     9  O   -0.037390  -0.202421   8.342381  -0.000619  -0.000173   0.000043
    10  H    0.001274  -0.005725  -0.000619   0.445411  -0.006487  -0.000029
    11  H   -0.007293   0.001166  -0.000173  -0.006487   0.475644  -0.005687
    12  H    0.027800  -0.010237   0.000043  -0.000029  -0.005687   0.464091
    13  H    0.323527   0.048195  -0.000201   0.000039  -0.000078  -0.005746
    14  H    0.031063   0.346427   0.000175  -0.000045   0.000037  -0.000024
             13         14
     1  O    0.000026  -0.004139
     2  H   -0.000014   0.003881
     3  C   -0.008524   0.023451
     4  C   -0.003230  -0.009409
     5  C   -0.004628   0.001203
     6  C    0.023633  -0.007511
     7  C    0.323527   0.031063
     8  C    0.048195   0.346427
     9  O   -0.000201   0.000175
    10  H    0.000039  -0.000045
    11  H   -0.000078   0.000037
    12  H   -0.005746  -0.000024
    13  H    0.474773  -0.006422
    14  H   -0.006422   0.435084
 Mulliken atomic charges:
              1
     1  O   -0.326072
     2  H    0.282331
     3  C   -0.289354
     4  C    0.241597
     5  C   -0.292328
     6  C   -0.036707
     7  C   -0.368843
     8  C    0.303516
     9  O   -0.363293
    10  H    0.175765
    11  H    0.157105
    12  H    0.171404
    13  H    0.158649
    14  H    0.186230
 Sum of Mulliken atomic charges =   0.00000
 Mulliken charges with hydrogens summed into heavy atoms:
              1
     1  O   -0.043742
     3  C   -0.289354
     4  C    0.417362
     5  C   -0.135223
     6  C    0.134697
     7  C   -0.210194
     8  C    0.489745
     9  O   -0.363293
 Sum of Mulliken charges with hydrogens summed into heavy atoms =   0.00000
          Atomic-Atomic Spin Densities.
              1          2          3          4          5          6
     1  O    1.018534   0.012200   0.027851  -0.023545  -0.000690   0.000019
     2  H    0.012200  -0.041942   0.005708  -0.000048  -0.000329   0.000364
     3  C    0.027851   0.005708   0.109120  -0.165252   0.003089  -0.033739
     4  C   -0.023545  -0.000048  -0.165252   0.573321  -0.003285  -0.012598
     5  C   -0.000690  -0.000329   0.003089  -0.003285  -0.158359   0.021204
     6  C    0.000019   0.000364  -0.033739  -0.012598   0.021204   0.452665
     7  C   -0.008492  -0.001150   0.011144   0.017602  -0.014904   0.017214
     8  C    0.006893   0.002020   0.065220  -0.103338  -0.001688  -0.024989
     9  O   -0.009804   0.003714  -0.064813  -0.007620   0.000055   0.002438
    10  H    0.000015   0.000025   0.002800  -0.006676   0.002771  -0.000444
    11  H   -0.000001   0.000001  -0.000565   0.001058  -0.002037  -0.001129
    12  H    0.000000   0.000000   0.000567  -0.001959   0.003288  -0.001638
    13  H   -0.000002   0.000002  -0.000170   0.000490   0.000052  -0.001100
    14  H   -0.000565  -0.000170   0.000073   0.001586  -0.000006  -0.000409
              7          8          9         10         11         12
     1  O   -0.008492   0.006893  -0.009804   0.000015  -0.000001   0.000000
     2  H   -0.001150   0.002020   0.003714   0.000025   0.000001   0.000000
     3  C    0.011144   0.065220  -0.064813   0.002800  -0.000565   0.000567
     4  C    0.017602  -0.103338  -0.007620  -0.006676   0.001058  -0.001959
     5  C   -0.014904  -0.001688   0.000055   0.002771  -0.002037   0.003288
     6  C    0.017214  -0.024989   0.002438  -0.000444  -0.001129  -0.001638
     7  C   -0.227059   0.040680  -0.000242  -0.000048   0.000300   0.002582
     8  C    0.040680   0.358896  -0.015548  -0.000094   0.000133  -0.001683
     9  O   -0.000242  -0.015548   0.473079   0.000509   0.000000  -0.000001
    10  H   -0.000048  -0.000094   0.000509  -0.014976  -0.000146   0.000007
    11  H    0.000300   0.000133   0.000000  -0.000146   0.009477  -0.000129
    12  H    0.002582  -0.001683  -0.000001   0.000007  -0.000129  -0.022994
    13  H   -0.001542   0.000010   0.000015   0.000001  -0.000006  -0.000124
    14  H    0.003114  -0.006488   0.000346  -0.000008   0.000002   0.000006
             13         14
     1  O   -0.000002  -0.000565
     2  H    0.000002  -0.000170
     3  C   -0.000170   0.000073
     4  C    0.000490   0.001586
     5  C    0.000052  -0.000006
     6  C   -0.001100  -0.000409
     7  C   -0.001542   0.003114
     8  C    0.000010  -0.006488
     9  O    0.000015   0.000346
    10  H    0.000001  -0.000008
    11  H   -0.000006   0.000002
    12  H   -0.000124   0.000006
    13  H    0.009603  -0.000134
    14  H   -0.000134  -0.014998
 Mulliken atomic spin densities:
              1
     1  O    1.022414
     2  H   -0.019606
     3  C   -0.038966
     4  C    0.269736
     5  C   -0.150841
     6  C    0.417859
     7  C   -0.160801
     8  C    0.320022
     9  O    0.382126
    10  H   -0.016264
    11  H    0.006957
    12  H   -0.022078
    13  H    0.007095
    14  H   -0.017653
 Sum of Mulliken atomic spin densities =   2.00000
 APT atomic charges:
              1
     1  O   -0.488493
     2  H    0.490844
     3  C    0.295597
     4  C    0.076655
     5  C   -0.186963
     6  C    0.200776
     7  C   -0.197148
     8  C    0.043917
     9  O   -0.567757
    10  H    0.073422
    11  H    0.055212
    12  H    0.058883
    13  H    0.057566
    14  H    0.087489
 Sum of APT charges=   0.00000
 APT Atomic charges with hydrogens summed into heavy atoms:
              1
     1  O    0.002350
     2  H    0.000000
     3  C    0.295597
     4  C    0.150076
     5  C   -0.131751
     6  C    0.259659
     7  C   -0.139582
     8  C    0.131407
     9  O   -0.567757
    10  H    0.000000
    11  H    0.000000
    12  H    0.000000
    13  H    0.000000
    14  H    0.000000
 Sum of APT charges=   0.00000
 Electronic spatial extent (au):  <R**2>=           1006.3971
 Charge=              0.0000 electrons
 Dipole moment (field-independent basis, Debye):
    X=              5.6809    Y=              0.2864    Z=             -0.8087  Tot=              5.7453
 Quadrupole moment (field-independent basis, Debye-Ang):
   XX=            -50.4746   YY=            -42.4396   ZZ=            -50.2808
   XY=              0.8522   XZ=              5.4181   YZ=             -2.8388
 Traceless Quadrupole moment (field-independent basis, Debye-Ang):
   XX=             -2.7429   YY=              5.2921   ZZ=             -2.5491
   XY=              0.8522   XZ=              5.4181   YZ=             -2.8388
 Octapole moment (field-independent basis, Debye-Ang**2):
  XXX=             26.6802  YYY=             -1.6054  ZZZ=             -1.5249  XYY=              4.5379
  XXY=             -2.8869  XXZ=             -8.8854  XZZ=             -4.7923  YZZ=             -1.2857
  YYZ=             -0.2728  XYZ=              3.4502
 Hexadecapole moment (field-independent basis, Debye-Ang**3):
 XXXX=           -873.9412 YYYY=           -302.0332 ZZZZ=           -101.1253 XXXY=             22.1698
 XXXZ=             61.0732 YYYX=              5.0520 YYYZ=             -7.4556 ZZZX=              2.7593
 ZZZY=              2.5390 XXYY=           -198.2566 XXZZ=           -181.2920 YYZZ=            -76.9203
 XXYZ=            -11.5752 YYXZ=              4.5677 ZZXY=              0.7241
 N-N= 3.326287427576D+02 E-N=-2.321514378621D+03  KE= 5.696582175946D+02
  Exact polarizability: 109.037   4.571  81.661   7.212  -1.943  49.970
 Approx polarizability: 131.149   9.785 102.717  12.061  -1.167  65.867
                          Isotropic Fermi Contact Couplings
        Atom                 a.u.       MegaHertz       Gauss      10(-4) cm-1
     1  O(17)              0.14984     -45.41767     -16.20615     -15.14970
     2  H(1)              -0.01549     -34.62417     -12.35477     -11.54938
     3  C(13)             -0.03085     -17.33994      -6.18732      -5.78398
     4  C(13)              0.02931      16.47375       5.87824       5.49505
     5  C(13)             -0.03086     -17.34675      -6.18975      -5.78625
     6  C(13)              0.05281      29.68534      10.59247       9.90196
     7  C(13)             -0.03139     -17.64594      -6.29651      -5.88605
     8  C(13)              0.03135      17.62308       6.28835       5.87843
     9  O(17)              0.07449     -22.57830      -8.05650      -7.53131
    10  H(1)              -0.00443      -9.90086      -3.53287      -3.30257
    11  H(1)               0.00122       2.71615       0.96919       0.90601
    12  H(1)              -0.00630     -14.08006      -5.02411      -4.69660
    13  H(1)               0.00125       2.80396       1.00052       0.93530
    14  H(1)              -0.00450     -10.04674      -3.58493      -3.35123
 --------------------------------------------------------
       Center         ----  Spin Dipole Couplings  ----
                      3XX-RR        3YY-RR        3ZZ-RR
 --------------------------------------------------------
     1   Atom        2.395740     -1.582181     -0.813559
     2   Atom       -0.023052     -0.042342      0.065394
     3   Atom        0.037981      0.000047     -0.038028
     4   Atom       -0.119209     -0.124870      0.244079
     5   Atom        0.048615      0.051002     -0.099617
     6   Atom       -0.166877     -0.203343      0.370220
     7   Atom        0.054754      0.047073     -0.101826
     8   Atom       -0.117829     -0.133231      0.251060
     9   Atom       -0.650247     -0.765639      1.415886
    10   Atom       -0.014159      0.022042     -0.007884
    11   Atom        0.000904      0.004555     -0.005459
    12   Atom        0.026862     -0.023359     -0.003503
    13   Atom        0.006188     -0.000886     -0.005302
    14   Atom        0.003538      0.001831     -0.005369
 --------------------------------------------------------
                        XY            XZ            YZ
 --------------------------------------------------------
     1   Atom       -0.901259      2.133187     -0.391686
     2   Atom       -0.084295     -0.046765      0.128272
     3   Atom        0.008795      0.008458      0.000525
     4   Atom       -0.018405     -0.087550      0.053740
     5   Atom        0.008232      0.032931     -0.018131
     6   Atom       -0.011682     -0.131160      0.070706
     7   Atom        0.003745      0.037184     -0.018827
     8   Atom       -0.014455     -0.099431      0.055369
     9   Atom       -0.081891     -0.641511      0.246373
    10   Atom        0.001826     -0.003008     -0.002557
    11   Atom        0.002778      0.000573     -0.000455
    12   Atom        0.017260      0.004480      0.006321
    13   Atom       -0.001856      0.001973     -0.001641
    14   Atom       -0.012968     -0.003735     -0.010402
 --------------------------------------------------------


 ---------------------------------------------------------------------------------
              Anisotropic Spin Dipole Couplings in Principal Axis System
 ---------------------------------------------------------------------------------

       Atom             a.u.   MegaHertz   Gauss  10(-4) cm-1        Axes

              Baa    -1.8981   137.346    49.009    45.814 -0.4746 -0.3560  0.8050
     1 O(17)  Bbb    -1.7466   126.381    45.096    42.156 -0.0071  0.9161  0.4009
              Bcc     3.6447  -263.727   -94.104   -87.970  0.8802 -0.1845  0.4374
 
              Baa    -0.1473   -78.595   -28.045   -26.216  0.4036  0.8200 -0.4058
     2 H(1)   Bbb    -0.0394   -21.002    -7.494    -7.006  0.8290 -0.1400  0.5415
              Bcc     0.1867    99.597    35.539    33.222 -0.3872  0.5549  0.7363
 
              Baa    -0.0390    -5.228    -1.866    -1.744 -0.1106  0.0115  0.9938
     3 C(13)  Bbb    -0.0018    -0.248    -0.088    -0.083 -0.2085  0.9774 -0.0345
              Bcc     0.0408     5.476     1.954     1.827  0.9718  0.2110  0.1057
 
              Baa    -0.1428   -19.157    -6.836    -6.390  0.8515  0.5099  0.1219
     4 C(13)  Bbb    -0.1294   -17.358    -6.194    -5.790 -0.4747  0.8486 -0.2334
              Bcc     0.2721    36.515    13.030    12.180 -0.2225  0.1409  0.9647
 
              Baa    -0.1090   -14.623    -5.218    -4.878 -0.2091  0.1207  0.9704
     5 C(13)  Bbb     0.0501     6.720     2.398     2.242 -0.5772  0.7858 -0.2221
              Bcc     0.0589     7.902     2.820     2.636  0.7894  0.6065  0.0946
 
              Baa    -0.2130   -28.581   -10.198    -9.534 -0.2426  0.9551 -0.1703
     6 C(13)  Bbb    -0.1959   -26.289    -9.380    -8.769  0.9442  0.2728  0.1847
              Bcc     0.4089    54.870    19.579    18.303 -0.2228  0.1160  0.9679
 
              Baa    -0.1125   -15.098    -5.388    -5.036 -0.2180  0.1194  0.9686
     7 C(13)  Bbb     0.0494     6.624     2.364     2.210  0.0604  0.9922 -0.1087
              Bcc     0.0632     8.474     3.024     2.827  0.9741 -0.0348  0.2235
 
              Baa    -0.1430   -19.193    -6.849    -6.402  0.9511  0.2283  0.2079
     8 C(13)  Bbb    -0.1410   -18.917    -6.750    -6.310 -0.1910  0.9641 -0.1846
              Bcc     0.2840    38.110    13.599    12.712 -0.2426  0.1359  0.9606
 
              Baa    -0.8361    60.502    21.589    20.181  0.9376  0.2521  0.2395
     9 O(17)  Bbb    -0.7908    57.225    20.419    19.088 -0.2152  0.9617 -0.1699
              Bcc     1.6270  -117.727   -42.008   -39.270 -0.2732  0.1078  0.9559
 
              Baa    -0.0154    -8.208    -2.929    -2.738  0.9303 -0.0204  0.3662
    10 H(1)   Bbb    -0.0070    -3.732    -1.332    -1.245 -0.3623  0.1043  0.9262
              Bcc     0.0224    11.940     4.260     3.983  0.0571  0.9943 -0.0897
 
              Baa    -0.0056    -2.969    -1.059    -0.990 -0.1211  0.0777  0.9896
    11 H(1)   Bbb    -0.0005    -0.262    -0.093    -0.087  0.8723 -0.4674  0.1434
              Bcc     0.0061     3.231     1.153     1.078  0.4737  0.8806 -0.0112
 
              Baa    -0.0296   -15.787    -5.633    -5.266 -0.2743  0.9443 -0.1817
    12 H(1)   Bbb    -0.0037    -1.960    -0.699    -0.654 -0.2127  0.1247  0.9691
              Bcc     0.0333    17.747     6.332     5.920  0.9378  0.3045  0.1666
 
              Baa    -0.0060    -3.198    -1.141    -1.067 -0.1145  0.2658  0.9572
    13 H(1)   Bbb    -0.0011    -0.580    -0.207    -0.194  0.2972  0.9286 -0.2223
              Bcc     0.0071     3.778     1.348     1.260  0.9479 -0.2590  0.1853
 
              Baa    -0.0185    -9.871    -3.522    -3.293  0.4715  0.6211  0.6261
    14 H(1)   Bbb     0.0018     0.944     0.337     0.315 -0.5985 -0.2960  0.7444
              Bcc     0.0167     8.927     3.185     2.978 -0.6476  0.7257 -0.2321
 

 ---------------------------------------------------------------------------------

 -------------------------------------------------------------------
 Center     Atomic                   Forces (Hartrees/Bohr)
 Number     Number              X              Y              Z
 -------------------------------------------------------------------
      1        8          -0.011494944    0.013880453    0.012397099
      2        1          -0.005323386    0.000939223   -0.000679354
      3        6           0.001154000   -0.002898143   -0.002976735
      4        6           0.004288875   -0.003854522    0.000625061
      5        6           0.001914209   -0.002219663    0.002008062
      6        6          -0.001235326   -0.000312503   -0.000367333
      7        6          -0.001944985    0.001385861   -0.000942539
      8        6          -0.001709027    0.002401563    0.000483229
      9        8           0.013871586   -0.009358614   -0.010818142
     10        1           0.000516809   -0.000383093   -0.000105330
     11        1           0.000302068   -0.000005914    0.000261697
     12        1          -0.000119110    0.000059493   -0.000092866
     13        1          -0.000031152    0.000097553   -0.000037721
     14        1          -0.000189616    0.000268307    0.000244874
 -------------------------------------------------------------------
 Cartesian Forces:  Max     0.013880453 RMS     0.004850451

 This type of calculation cannot be archived.


 IF AT FIRST YOU DON'T SUCCEED, TRY, TRY AGAIN.
 THEN GIVE UP;
 THERE'S NO USE BEING A DAMN FOOL ABOUT IT.

                                 -- W. C. FIELDS
 Job cpu time:  9 days 20 hours 42 minutes 22.9 seconds.
 File lengths (MBytes):  RWF=   2448 Int=      0 D2E=      0 Chk=     32 Scr=     32
 Normal termination of Gaussian 09 at Mon Aug 21 05:16:34 2017.
