 Entering Gaussian System, Link 0=/shared/apps/gaussian/G09_LINUX_LINDA/g09/g09
 Input=/gss_gpfs_scratch/harms.n/QMscratch/[OH]+[O]OC=O_O=COO+[O]RxnC.gjf
 Output=/gss_gpfs_scratch/harms.n/QMscratch/[OH]+[O]OC=O_O=COO+[O]RxnC.log
 Initial command:
 /shared/apps/gaussian/G09_LINUX_LINDA/g09/l1.exe /gss_gpfs_scratch/harms.n/comparerTST/Gau-12422.inp -scrdir=/gss_gpfs_scratch/harms.n/comparerTST/
 Entering Link 1 = /shared/apps/gaussian/G09_LINUX_LINDA/g09/l1.exe PID=     12423.
  
 Copyright (c) 1988,1990,1992,1993,1995,1998,2003,2009,2010,
            Gaussian, Inc.  All Rights Reserved.
  
 This is part of the Gaussian(R) 09 program.  It is based on
 the Gaussian(R) 03 system (copyright 2003, Gaussian, Inc.),
 the Gaussian(R) 98 system (copyright 1998, Gaussian, Inc.),
 the Gaussian(R) 94 system (copyright 1995, Gaussian, Inc.),
 the Gaussian 92(TM) system (copyright 1992, Gaussian, Inc.),
 the Gaussian 90(TM) system (copyright 1990, Gaussian, Inc.),
 the Gaussian 88(TM) system (copyright 1988, Gaussian, Inc.),
 the Gaussian 86(TM) system (copyright 1986, Carnegie Mellon
 University), and the Gaussian 82(TM) system (copyright 1983,
 Carnegie Mellon University). Gaussian is a federally registered
 trademark of Gaussian, Inc.
  
 This software contains proprietary and confidential information,
 including trade secrets, belonging to Gaussian, Inc.
  
 This software is provided under written license and may be
 used, copied, transmitted, or stored only in accord with that
 written license.
  
 The following legend is applicable only to US Government
 contracts under FAR:
  
                    RESTRICTED RIGHTS LEGEND
  
 Use, reproduction and disclosure by the US Government is
 subject to restrictions as set forth in subparagraphs (a)
 and (c) of the Commercial Computer Software - Restricted
 Rights clause in FAR 52.227-19.
  
 Gaussian, Inc.
 340 Quinnipiac St., Bldg. 40, Wallingford CT 06492
  
  
 ---------------------------------------------------------------
 Warning -- This program may not be used in any manner that
 competes with the business of Gaussian, Inc. or will provide
 assistance to any competitor of Gaussian, Inc.  The licensee
 of this program is prohibited from giving any competitor of
 Gaussian, Inc. access to this program.  By using this program,
 the user acknowledges that Gaussian, Inc. is engaged in the
 business of creating and licensing software in the field of
 computational chemistry and represents and warrants to the
 licensee that it is not a competitor of Gaussian, Inc. and that
 it will not use this program in any manner prohibited above.
 ---------------------------------------------------------------
  

 Cite this work as:
 Gaussian 09, Revision B.01,
 M. J. Frisch, G. W. Trucks, H. B. Schlegel, G. E. Scuseria, 
 M. A. Robb, J. R. Cheeseman, G. Scalmani, V. Barone, B. Mennucci, 
 G. A. Petersson, H. Nakatsuji, M. Caricato, X. Li, H. P. Hratchian, 
 A. F. Izmaylov, J. Bloino, G. Zheng, J. L. Sonnenberg, M. Hada, 
 M. Ehara, K. Toyota, R. Fukuda, J. Hasegawa, M. Ishida, T. Nakajima, 
 Y. Honda, O. Kitao, H. Nakai, T. Vreven, J. A. Montgomery, Jr., 
 J. E. Peralta, F. Ogliaro, M. Bearpark, J. J. Heyd, E. Brothers, 
 K. N. Kudin, V. N. Staroverov, T. Keith, R. Kobayashi, J. Normand, 
 K. Raghavachari, A. Rendell, J. C. Burant, S. S. Iyengar, J. Tomasi, 
 M. Cossi, N. Rega, J. M. Millam, M. Klene, J. E. Knox, J. B. Cross, 
 V. Bakken, C. Adamo, J. Jaramillo, R. Gomperts, R. E. Stratmann, 
 O. Yazyev, A. J. Austin, R. Cammi, C. Pomelli, J. W. Ochterski, 
 R. L. Martin, K. Morokuma, V. G. Zakrzewski, G. A. Voth, 
 P. Salvador, J. J. Dannenberg, S. Dapprich, A. D. Daniels, 
 O. Farkas, J. B. Foresman, J. V. Ortiz, J. Cioslowski, 
 and D. J. Fox, Gaussian, Inc., Wallingford CT, 2010.
 
 ******************************************
 Gaussian 09:  EM64L-G09RevB.01 12-Aug-2010
                 1-Aug-2017 
 ******************************************
 %nprocshared=20
 Will use up to   20 processors via shared memory.
 %mem=5GB
 ---------------------------------------------------
 # m062x/6-311+g(2df,2p) opt=(ts,calcfc,noeigentest)
 ---------------------------------------------------
 1/5=1,10=4,11=1,14=-1,18=20,26=3,38=1/1,3;
 2/9=110,12=2,17=6,18=5,40=1/2;
 3/5=4,6=6,7=214,11=2,16=1,25=1,30=1,71=2,74=-55/1,2,3;
 4//1;
 5/5=2,38=5/2;
 8/6=4,10=90,11=11/1;
 11/6=1,8=1,9=11,15=111,16=1/1,2,10;
 10/6=1,7=6,13=1/2;
 6/7=2,8=2,9=2,10=2,28=1/1;
 7/10=1,18=20,25=1/1,2,3,16;
 1/5=1,10=4,11=1,14=-1,18=20/3(2);
 2/9=110/2;
 99//99;
 2/9=110/2;
 3/5=4,6=6,7=214,11=2,16=1,25=1,30=1,71=1,74=-55/1,2,3;
 4/5=5,16=3/1;
 5/5=2,38=5/2;
 7//1,2,3,16;
 1/5=1,11=1,14=-1,18=20/3(-5);
 2/9=110/2;
 6/7=2,8=2,9=2,10=2,19=2,28=1/1;
 99/9=1/99;
 ----------------------
 [OH]+[O]OC=O_O=COO+[O]
 ----------------------
 Symbolic Z-matrix:
 Charge =  0 Multiplicity = 3
 O                    -2.66747   0.48755   0.21467 
 H                    -1.49973  -0.06355   0.09366 
 C                     1.47963  -0.01641   0.36017 
 O                     0.55152  -0.98076   0.00587 
 O                     1.55676   1.02927  -0.25068 
 H                     2.06461  -0.22334   1.2545 
 O                    -0.62115  -0.48789  -0.4085 
 

 GradGradGradGradGradGradGradGradGradGradGradGradGradGradGradGradGradGrad
 Berny optimization.
 Initialization pass.
                           ----------------------------
                           !    Initial Parameters    !
                           ! (Angstroms and Degrees)  !
 --------------------------                            --------------------------
 ! Name  Definition              Value          Derivative Info.                !
 --------------------------------------------------------------------------------
 ! R1    R(1,2)                  1.2969         calculate D2E/DX2 analytically  !
 ! R2    R(2,7)                  1.0973         calculate D2E/DX2 analytically  !
 ! R3    R(3,4)                  1.3845         calculate D2E/DX2 analytically  !
 ! R4    R(3,5)                  1.2135         calculate D2E/DX2 analytically  !
 ! R5    R(3,6)                  1.0885         calculate D2E/DX2 analytically  !
 ! R6    R(4,7)                  1.3378         calculate D2E/DX2 analytically  !
 ! A1    A(1,2,7)              158.1143         calculate D2E/DX2 analytically  !
 ! A2    A(4,3,5)              120.9299         calculate D2E/DX2 analytically  !
 ! A3    A(4,3,6)              115.9827         calculate D2E/DX2 analytically  !
 ! A4    A(5,3,6)              122.9053         calculate D2E/DX2 analytically  !
 ! A5    A(3,4,7)              114.2209         calculate D2E/DX2 analytically  !
 ! A6    A(2,7,4)              134.6306         calculate D2E/DX2 analytically  !
 ! D1    D(1,2,7,4)            177.3899         calculate D2E/DX2 analytically  !
 ! D2    D(5,3,4,7)            -36.5381         calculate D2E/DX2 analytically  !
 ! D3    D(6,3,4,7)            138.6971         calculate D2E/DX2 analytically  !
 ! D4    D(4,3,5,6)            174.8975         calculate D2E/DX2 analytically  !
 ! D5    D(3,4,7,2)            -77.727          calculate D2E/DX2 analytically  !
 --------------------------------------------------------------------------------
 Trust Radius=3.00D-01 FncErr=1.00D-07 GrdErr=1.00D-06
 Number of steps in this run=     27 maximum allowed number of steps=    100.
 Search for a saddle point of order  1.
 GradGradGradGradGradGradGradGradGradGradGradGradGradGradGradGradGradGrad

                          Input orientation:                          
 ---------------------------------------------------------------------
 Center     Atomic      Atomic             Coordinates (Angstroms)
 Number     Number       Type             X           Y           Z
 ---------------------------------------------------------------------
      1          8           0       -2.667470    0.487553    0.214667
      2          1           0       -1.499725   -0.063550    0.093661
      3          6           0        1.479633   -0.016409    0.360174
      4          8           0        0.551519   -0.980756    0.005865
      5          8           0        1.556761    1.029265   -0.250680
      6          1           0        2.064609   -0.223340    1.254503
      7          8           0       -0.621146   -0.487893   -0.408504
 ---------------------------------------------------------------------
                    Distance matrix (angstroms):
                    1          2          3          4          5
     1  O    0.000000
     2  H    1.296914   0.000000
     3  C    4.180145   2.991626   0.000000
     4  O    3.544209   2.248683   1.384520   0.000000
     5  O    4.284172   3.264188   1.213477   2.261971   0.000000
     6  H    4.896856   3.752008   1.088504   2.102907   2.022994
     7  O    2.351017   1.097332   2.286140   1.337819   2.658939
                    6          7
     6  H    0.000000
     7  O    3.169994   0.000000
 Stoichiometry    CH2O4(3)
 Framework group  C1[X(CH2O4)]
 Deg. of freedom    15
 Full point group                 C1      NOp   1
 Largest Abelian subgroup         C1      NOp   1
 Largest concise Abelian subgroup C1      NOp   1
                         Standard orientation:                         
 ---------------------------------------------------------------------
 Center     Atomic      Atomic             Coordinates (Angstroms)
 Number     Number       Type             X           Y           Z
 ---------------------------------------------------------------------
      1          8           0       -2.667470    0.487553    0.214667
      2          1           0       -1.499725   -0.063550    0.093661
      3          6           0        1.479633   -0.016409    0.360174
      4          8           0        0.551519   -0.980756    0.005865
      5          8           0        1.556761    1.029265   -0.250680
      6          1           0        2.064609   -0.223340    1.254503
      7          8           0       -0.621146   -0.487893   -0.408504
 ---------------------------------------------------------------------
 Rotational constants (GHZ):     10.6385420      2.4775938      2.1371707
 Standard basis: 6-311+G(2df,2p) (5D, 7F)
 There are   188 symmetry adapted basis functions of A   symmetry.
 Integral buffers will be    131072 words long.
 Raffenetti 2 integral format.
 Two-electron integral symmetry is turned on.
   188 basis functions,   282 primitive gaussians,   213 cartesian basis functions
    21 alpha electrons       19 beta electrons
       nuclear repulsion energy       162.0832285925 Hartrees.
 NAtoms=    7 NActive=    7 NUniq=    7 SFac= 1.00D+00 NAtFMM=   50 NAOKFM=F Big=F
 One-electron integrals computed using PRISM.
 NBasis=   188 RedAO= T  NBF=   188
 NBsUse=   188 1.00D-06 NBFU=   188
 Harris functional with IExCor= 1009 diagonalized for initial guess.
 ExpMin= 4.38D-02 ExpMax= 8.59D+03 ExpMxC= 1.30D+03 IAcc=2 IRadAn=         0 AccDes= 0.00D+00
 HarFok:  IExCor= 1009 AccDes= 0.00D+00 IRadAn=         0 IDoV= 1
 ScaDFX=  1.000000  1.000000  1.000000  1.000000
 FoFCou: FMM=F IPFlag=           0 FMFlag=      100000 FMFlg1=           0
         NFxFlg=           0 DoJE=T BraDBF=F KetDBF=T FulRan=T
         Omega=  0.000000  0.000000  1.000000  0.000000  0.000000 ICntrl=     500 IOpCl=  0
         NMat0=    1 NMatS0=    1 NMatT0=    0 NMatD0=    1 NMtDS0=    0 NMtDT0=    0
         I1Cent=           4 NGrid=           0.
 Petite list used in FoFCou.
 Initial guess orbital symmetries:
 Alpha Orbitals:
       Occupied  (A) (A) (A) (A) (A) (A) (A) (A) (A) (A) (A) (A)
                 (A) (A) (A) (A) (A) (A) (A) (A) (A)
       Virtual   (A) (A) (A) (A) (A) (A) (A) (A) (A) (A) (A) (A)
                 (A) (A) (A) (A) (A) (A) (A) (A) (A) (A) (A) (A)
                 (A) (A) (A) (A) (A) (A) (A) (A) (A) (A) (A) (A)
                 (A) (A) (A) (A) (A) (A) (A) (A) (A) (A) (A) (A)
                 (A) (A) (A) (A) (A) (A) (A) (A) (A) (A) (A) (A)
                 (A) (A) (A) (A) (A) (A) (A) (A) (A) (A) (A) (A)
                 (A) (A) (A) (A) (A) (A) (A) (A) (A) (A) (A) (A)
                 (A) (A) (A) (A) (A) (A) (A) (A) (A) (A) (A) (A)
                 (A) (A) (A) (A) (A) (A) (A) (A) (A) (A) (A) (A)
                 (A) (A) (A) (A) (A) (A) (A) (A) (A) (A) (A) (A)
                 (A) (A) (A) (A) (A) (A) (A) (A) (A) (A) (A) (A)
                 (A) (A) (A) (A) (A) (A) (A) (A) (A) (A) (A) (A)
                 (A) (A) (A) (A) (A) (A) (A) (A) (A) (A) (A) (A)
                 (A) (A) (A) (A) (A) (A) (A) (A) (A) (A) (A)
 Beta  Orbitals:
       Occupied  (A) (A) (A) (A) (A) (A) (A) (A) (A) (A) (A) (A)
                 (A) (A) (A) (A) (A) (A) (A)
       Virtual   (A) (A) (A) (A) (A) (A) (A) (A) (A) (A) (A) (A)
                 (A) (A) (A) (A) (A) (A) (A) (A) (A) (A) (A) (A)
                 (A) (A) (A) (A) (A) (A) (A) (A) (A) (A) (A) (A)
                 (A) (A) (A) (A) (A) (A) (A) (A) (A) (A) (A) (A)
                 (A) (A) (A) (A) (A) (A) (A) (A) (A) (A) (A) (A)
                 (A) (A) (A) (A) (A) (A) (A) (A) (A) (A) (A) (A)
                 (A) (A) (A) (A) (A) (A) (A) (A) (A) (A) (A) (A)
                 (A) (A) (A) (A) (A) (A) (A) (A) (A) (A) (A) (A)
                 (A) (A) (A) (A) (A) (A) (A) (A) (A) (A) (A) (A)
                 (A) (A) (A) (A) (A) (A) (A) (A) (A) (A) (A) (A)
                 (A) (A) (A) (A) (A) (A) (A) (A) (A) (A) (A) (A)
                 (A) (A) (A) (A) (A) (A) (A) (A) (A) (A) (A) (A)
                 (A) (A) (A) (A) (A) (A) (A) (A) (A) (A) (A) (A)
                 (A) (A) (A) (A) (A) (A) (A) (A) (A) (A) (A) (A)
                 (A)
 The electronic state of the initial guess is 3-A.
 Initial guess <Sx>= 0.0000 <Sy>= 0.0000 <Sz>= 1.0000 <S**2>= 2.0000 S= 1.0000
 Requested convergence on RMS density matrix=1.00D-08 within 128 cycles.
 Requested convergence on MAX density matrix=1.00D-06.
 Requested convergence on             energy=1.00D-06.
 No special actions if energy rises.
 Keep R1 and R2 ints in memory in canonical form, NReq=524572936.
 SCF Done:  E(UM062X) =  -339.887707855     A.U. after   33 cycles
             Convg  =    0.4452D-08             -V/T =  2.0030
 <Sx>= 0.0000 <Sy>= 0.0000 <Sz>= 1.0000 <S**2>= 2.0261 S= 1.0087
 <L.S>= 0.000000000000E+00
 Annihilation of the first spin contaminant:
 S**2 before annihilation     2.0261,   after     2.0002
 Range of M.O.s used for correlation:     1   188
 NBasis=   188 NAE=    21 NBE=    19 NFC=     0 NFV=     0
 NROrb=    188 NOA=    21 NOB=    19 NVA=   167 NVB=   169

 **** Warning!!: The largest alpha MO coefficient is  0.18772817D+02


 **** Warning!!: The largest beta MO coefficient is  0.19921114D+02

 Symmetrizing basis deriv contribution to polar:
 IMax=3 JMax=2 DiffMx= 0.00D+00
 G2DrvN: will do     8 centers at a time, making    1 passes doing MaxLOS=3.
 Calling FoFCou, ICntrl=  3107 FMM=F I1Cent=   0 AccDes= 0.00D+00.
 FoFDir/FoFCou used for L=0 through L=3.
 End of G2Drv Frequency-dependent properties file   721 does not exist.
 End of G2Drv Frequency-dependent properties file   722 does not exist.
          IDoAtm=1111111
          Differentiating once with respect to nuclear coordinates.
          Keep R1 and R2 ints in memory in canonical form, NReq=521395447.
          There are    24 degrees of freedom in the 1st order CPHF.  IDoFFX=5.
     18 vectors produced by pass  0 Test12= 2.80D-10 4.17D-07 XBig12= 3.24D-01 4.17D-01.
 AX will form    18 AO Fock derivatives at one time.
     18 vectors produced by pass  1 Test12= 2.80D-10 4.17D-07 XBig12= 7.69D-02 8.65D-02.
     18 vectors produced by pass  2 Test12= 2.80D-10 4.17D-07 XBig12= 7.29D-03 2.72D-02.
     18 vectors produced by pass  3 Test12= 2.80D-10 4.17D-07 XBig12= 2.30D-04 3.35D-03.
     18 vectors produced by pass  4 Test12= 2.80D-10 4.17D-07 XBig12= 1.06D-05 5.82D-04.
     18 vectors produced by pass  5 Test12= 2.80D-10 4.17D-07 XBig12= 2.85D-07 8.46D-05.
      7 vectors produced by pass  6 Test12= 2.80D-10 4.17D-07 XBig12= 3.42D-09 7.55D-06.
      2 vectors produced by pass  7 Test12= 2.80D-10 4.17D-07 XBig12= 3.93D-11 9.66D-07.
 Inverted reduced A of dimension   117 with in-core refinement.
 End of Minotr Frequency-dependent properties file   721 does not exist.
 End of Minotr Frequency-dependent properties file   722 does not exist.

 **********************************************************************

            Population analysis using the SCF density.

 **********************************************************************

 Orbital symmetries:
 Alpha Orbitals:
       Occupied  (A) (A) (A) (A) (A) (A) (A) (A) (A) (A) (A) (A)
                 (A) (A) (A) (A) (A) (A) (A) (A) (A)
       Virtual   (A) (A) (A) (A) (A) (A) (A) (A) (A) (A) (A) (A)
                 (A) (A) (A) (A) (A) (A) (A) (A) (A) (A) (A) (A)
                 (A) (A) (A) (A) (A) (A) (A) (A) (A) (A) (A) (A)
                 (A) (A) (A) (A) (A) (A) (A) (A) (A) (A) (A) (A)
                 (A) (A) (A) (A) (A) (A) (A) (A) (A) (A) (A) (A)
                 (A) (A) (A) (A) (A) (A) (A) (A) (A) (A) (A) (A)
                 (A) (A) (A) (A) (A) (A) (A) (A) (A) (A) (A) (A)
                 (A) (A) (A) (A) (A) (A) (A) (A) (A) (A) (A) (A)
                 (A) (A) (A) (A) (A) (A) (A) (A) (A) (A) (A) (A)
                 (A) (A) (A) (A) (A) (A) (A) (A) (A) (A) (A) (A)
                 (A) (A) (A) (A) (A) (A) (A) (A) (A) (A) (A) (A)
                 (A) (A) (A) (A) (A) (A) (A) (A) (A) (A) (A) (A)
                 (A) (A) (A) (A) (A) (A) (A) (A) (A) (A) (A) (A)
                 (A) (A) (A) (A) (A) (A) (A) (A) (A) (A) (A)
 Beta  Orbitals:
       Occupied  (A) (A) (A) (A) (A) (A) (A) (A) (A) (A) (A) (A)
                 (A) (A) (A) (A) (A) (A) (A)
       Virtual   (A) (A) (A) (A) (A) (A) (A) (A) (A) (A) (A) (A)
                 (A) (A) (A) (A) (A) (A) (A) (A) (A) (A) (A) (A)
                 (A) (A) (A) (A) (A) (A) (A) (A) (A) (A) (A) (A)
                 (A) (A) (A) (A) (A) (A) (A) (A) (A) (A) (A) (A)
                 (A) (A) (A) (A) (A) (A) (A) (A) (A) (A) (A) (A)
                 (A) (A) (A) (A) (A) (A) (A) (A) (A) (A) (A) (A)
                 (A) (A) (A) (A) (A) (A) (A) (A) (A) (A) (A) (A)
                 (A) (A) (A) (A) (A) (A) (A) (A) (A) (A) (A) (A)
                 (A) (A) (A) (A) (A) (A) (A) (A) (A) (A) (A) (A)
                 (A) (A) (A) (A) (A) (A) (A) (A) (A) (A) (A) (A)
                 (A) (A) (A) (A) (A) (A) (A) (A) (A) (A) (A) (A)
                 (A) (A) (A) (A) (A) (A) (A) (A) (A) (A) (A) (A)
                 (A) (A) (A) (A) (A) (A) (A) (A) (A) (A) (A) (A)
                 (A) (A) (A) (A) (A) (A) (A) (A) (A) (A) (A) (A)
                 (A)
 The electronic state is 3-A.
 Alpha  occ. eigenvalues --  -19.77789 -19.74850 -19.74001 -19.67697 -10.72201
 Alpha  occ. eigenvalues --   -1.37362  -1.21865  -1.14947  -1.06872  -0.79271
 Alpha  occ. eigenvalues --   -0.68103  -0.65724  -0.62914  -0.57404  -0.53668
 Alpha  occ. eigenvalues --   -0.52641  -0.50107  -0.47349  -0.44965  -0.41361
 Alpha  occ. eigenvalues --   -0.40463
 Alpha virt. eigenvalues --   -0.03642   0.00893   0.03591   0.04000   0.04675
 Alpha virt. eigenvalues --    0.08361   0.13549   0.15012   0.15393   0.17366
 Alpha virt. eigenvalues --    0.18113   0.19134   0.19401   0.21922   0.22395
 Alpha virt. eigenvalues --    0.25346   0.25909   0.26671   0.27192   0.28166
 Alpha virt. eigenvalues --    0.29626   0.30753   0.34811   0.38303   0.41468
 Alpha virt. eigenvalues --    0.42969   0.51824   0.53399   0.58591   0.61273
 Alpha virt. eigenvalues --    0.63732   0.69086   0.73537   0.76231   0.80200
 Alpha virt. eigenvalues --    0.83019   0.88561   0.93597   0.97320   0.99123
 Alpha virt. eigenvalues --    1.01415   1.03167   1.04696   1.05619   1.07185
 Alpha virt. eigenvalues --    1.08192   1.10203   1.13458   1.15790   1.18086
 Alpha virt. eigenvalues --    1.20210   1.25009   1.34874   1.40566   1.41514
 Alpha virt. eigenvalues --    1.43597   1.46821   1.47480   1.48831   1.52160
 Alpha virt. eigenvalues --    1.55079   1.56457   1.59382   1.62633   1.69283
 Alpha virt. eigenvalues --    1.82399   1.83872   1.92488   2.00491   2.03653
 Alpha virt. eigenvalues --    2.06743   2.10541   2.15021   2.31701   2.34425
 Alpha virt. eigenvalues --    2.42246   2.46588   2.50172   2.63793   2.70391
 Alpha virt. eigenvalues --    2.76168   2.77328   2.94171   2.98451   3.00762
 Alpha virt. eigenvalues --    3.09836   3.17682   3.26202   3.29291   3.35261
 Alpha virt. eigenvalues --    3.43274   3.48682   3.52653   3.65985   3.66780
 Alpha virt. eigenvalues --    3.74686   3.86713   3.89887   4.04795   4.08228
 Alpha virt. eigenvalues --    4.29213   4.58472   4.62682   4.75383   4.83682
 Alpha virt. eigenvalues --    4.90152   4.91209   4.95197   4.95874   4.96118
 Alpha virt. eigenvalues --    4.96544   4.97323   4.98770   4.99171   5.01836
 Alpha virt. eigenvalues --    5.02017   5.04383   5.05166   5.07525   5.08784
 Alpha virt. eigenvalues --    5.11218   5.13344   5.16877   5.18713   5.20883
 Alpha virt. eigenvalues --    5.22752   5.29939   5.35908   5.38635   5.43610
 Alpha virt. eigenvalues --    5.49158   5.63481   5.76446   5.80032   6.17316
 Alpha virt. eigenvalues --    6.17890   6.31166   6.38401   6.57497   6.57789
 Alpha virt. eigenvalues --    6.63070   6.70338   6.72951   6.74985   6.77029
 Alpha virt. eigenvalues --    6.81586   6.82700   6.85390   6.94443   6.98027
 Alpha virt. eigenvalues --    7.03137   7.08749   7.15562   7.18932   7.26717
 Alpha virt. eigenvalues --    7.39262   7.42862   7.55098   7.62187   7.64944
 Alpha virt. eigenvalues --    7.92124   7.95885  24.64974  49.86424  49.91814
 Alpha virt. eigenvalues --   49.99993  50.17969
  Beta  occ. eigenvalues --  -19.77495 -19.74016 -19.71209 -19.67644 -10.72219
  Beta  occ. eigenvalues --   -1.35817  -1.21462  -1.06651  -0.99339  -0.77933
  Beta  occ. eigenvalues --   -0.67554  -0.64136  -0.59725  -0.55601  -0.48398
  Beta  occ. eigenvalues --   -0.44815  -0.41654  -0.40020  -0.37454
  Beta virt. eigenvalues --   -0.18144  -0.11274  -0.02997   0.01020   0.03882
  Beta virt. eigenvalues --    0.04098   0.04935   0.09055   0.13661   0.15723
  Beta virt. eigenvalues --    0.16756   0.17863   0.18262   0.19342   0.19892
  Beta virt. eigenvalues --    0.22114   0.22615   0.25537   0.25910   0.26939
  Beta virt. eigenvalues --    0.27322   0.28362   0.29976   0.30634   0.35240
  Beta virt. eigenvalues --    0.38306   0.42428   0.43269   0.51861   0.53431
  Beta virt. eigenvalues --    0.58718   0.61339   0.63963   0.69277   0.74021
  Beta virt. eigenvalues --    0.76311   0.80941   0.83252   0.88802   0.94566
  Beta virt. eigenvalues --    0.97891   0.99939   1.03152   1.04586   1.05563
  Beta virt. eigenvalues --    1.06503   1.08815   1.09930   1.11612   1.14866
  Beta virt. eigenvalues --    1.16072   1.19001   1.20827   1.25254   1.35313
  Beta virt. eigenvalues --    1.41712   1.42434   1.46035   1.49805   1.51375
  Beta virt. eigenvalues --    1.52585   1.54627   1.55846   1.57925   1.60024
  Beta virt. eigenvalues --    1.63580   1.69747   1.83028   1.85280   1.93540
  Beta virt. eigenvalues --    2.01314   2.04400   2.06997   2.11232   2.15868
  Beta virt. eigenvalues --    2.31756   2.34931   2.42441   2.46575   2.51064
  Beta virt. eigenvalues --    2.62985   2.69845   2.72746   2.77256   2.93925
  Beta virt. eigenvalues --    2.98395   3.00691   3.09691   3.17527   3.26107
  Beta virt. eigenvalues --    3.29084   3.35155   3.43151   3.48568   3.52499
  Beta virt. eigenvalues --    3.65834   3.66678   3.74580   3.86040   3.89091
  Beta virt. eigenvalues --    4.04522   4.08083   4.29124   4.59205   4.62959
  Beta virt. eigenvalues --    4.75950   4.84415   4.91375   4.96922   4.98229
  Beta virt. eigenvalues --    4.99114   5.00367   5.00891   5.01942   5.02268
  Beta virt. eigenvalues --    5.03077   5.03523   5.03732   5.06915   5.07548
  Beta virt. eigenvalues --    5.09553   5.10394   5.11677   5.15115   5.18540
  Beta virt. eigenvalues --    5.20576   5.21553   5.23224   5.31727   5.36341
  Beta virt. eigenvalues --    5.39156   5.44261   5.50050   5.64135   5.76738
  Beta virt. eigenvalues --    5.80030   6.17520   6.19966   6.31469   6.38349
  Beta virt. eigenvalues --    6.71264   6.73646   6.74201   6.74388   6.75084
  Beta virt. eigenvalues --    6.78323   6.81321   6.84392   6.87558   6.92634
  Beta virt. eigenvalues --    6.95638   7.01258   7.06492   7.09882   7.16125
  Beta virt. eigenvalues --    7.20439   7.27212   7.39675   7.50793   7.56007
  Beta virt. eigenvalues --    7.64354   7.66043   7.92462   7.96660  24.64901
  Beta virt. eigenvalues --   49.85543  49.91168  49.99763  50.17890
          Condensed to atoms (all electrons):
              1          2          3          4          5          6
     1  O    8.110679   0.056486   0.002633  -0.002457  -0.000564   0.000056
     2  H    0.056486   0.317711  -0.001427  -0.024589  -0.001109   0.000420
     3  C    0.002633  -0.001427   4.756823   0.164779   0.443102   0.451739
     4  O   -0.002457  -0.024589   0.164779   7.849954  -0.045978  -0.059745
     5  O   -0.000564  -0.001109   0.443102  -0.045978   7.928748  -0.043194
     6  H    0.000056   0.000420   0.451739  -0.059745  -0.043194   0.470169
     7  O    0.064426   0.199830  -0.024706   0.124091   0.010596   0.006944
              7
     1  O    0.064426
     2  H    0.199830
     3  C   -0.024706
     4  O    0.124091
     5  O    0.010596
     6  H    0.006944
     7  O    7.923251
 Mulliken atomic charges:
              1
     1  O   -0.231259
     2  H    0.452677
     3  C    0.207057
     4  O   -0.006055
     5  O   -0.291600
     6  H    0.173612
     7  O   -0.304432
 Sum of Mulliken atomic charges =   0.00000
 Mulliken charges with hydrogens summed into heavy atoms:
              1
     1  O   -0.231259
     3  C    0.380669
     4  O   -0.006055
     5  O   -0.291600
     7  O    0.148245
 Sum of Mulliken charges with hydrogens summed into heavy atoms =   0.00000
          Atomic-Atomic Spin Densities.
              1          2          3          4          5          6
     1  O    1.579658   0.005271   0.000690   0.002776  -0.000679  -0.000112
     2  H    0.005271  -0.127186  -0.000491   0.010672   0.000347  -0.000277
     3  C    0.000690  -0.000491  -0.020315   0.006154  -0.001502   0.000261
     4  O    0.002776   0.010672   0.006154   0.145818  -0.001554  -0.000470
     5  O   -0.000679   0.000347  -0.001502  -0.001554   0.033222  -0.000127
     6  H   -0.000112  -0.000277   0.000261  -0.000470  -0.000127  -0.000421
     7  O   -0.017481   0.034923  -0.001681  -0.058781   0.001073   0.001183
              7
     1  O   -0.017481
     2  H    0.034923
     3  C   -0.001681
     4  O   -0.058781
     5  O    0.001073
     6  H    0.001183
     7  O    0.428830
 Mulliken atomic spin densities:
              1
     1  O    1.570125
     2  H   -0.076741
     3  C   -0.016884
     4  O    0.104616
     5  O    0.030779
     6  H    0.000038
     7  O    0.388067
 Sum of Mulliken atomic spin densities =   2.00000
 APT atomic charges:
              1
     1  O   -0.079829
     2  H    0.485452
     3  C   -0.096784
     4  O   -0.025435
     5  O   -0.303977
     6  H    0.557968
     7  O   -0.537395
 Sum of APT charges=   0.00000
 APT Atomic charges with hydrogens summed into heavy atoms:
              1
     1  O   -0.079829
     2  H    0.000000
     3  C    0.461184
     4  O   -0.025435
     5  O   -0.303977
     6  H    0.000000
     7  O   -0.051943
 Sum of APT charges=   0.00000
 Electronic spatial extent (au):  <R**2>=            514.0401
 Charge=              0.0000 electrons
 Dipole moment (field-independent basis, Debye):
    X=              1.6709    Y=             -1.3148    Z=              2.0724  Tot=              2.9691
 Quadrupole moment (field-independent basis, Debye-Ang):
   XX=            -27.7393   YY=            -30.8214   ZZ=            -27.2621
   XY=             -2.1243   XZ=              3.1209   YZ=              0.0426
 Traceless Quadrupole moment (field-independent basis, Debye-Ang):
   XX=              0.8683   YY=             -2.2138   ZZ=              1.3455
   XY=             -2.1243   XZ=              3.1209   YZ=              0.0426
 Octapole moment (field-independent basis, Debye-Ang**2):
  XXX=              9.3885  YYY=             -0.5327  ZZZ=              0.7446  XYY=             -5.1883
  XXY=             -9.1791  XXZ=              3.3834  XZZ=              3.8585  YZZ=             -0.9190
  YYZ=             -0.1562  XYZ=              1.3741
 Hexadecapole moment (field-independent basis, Debye-Ang**3):
 XXXX=           -455.4675 YYYY=           -107.5999 ZZZZ=            -40.5544 XXXY=             -1.6794
 XXXZ=             16.6432 YYYX=             -4.7957 YYYZ=              0.5550 ZZZX=              4.1230
 ZZZY=             -0.2907 XXYY=            -96.5754 XXZZ=            -80.1015 YYZZ=            -24.9861
 XXYZ=             -2.8844 YYXZ=              0.0758 ZZXY=              0.2007
 N-N= 1.620832285925D+02 E-N=-1.673190932536D+03  KE= 5.051790037937D+02
  Exact polarizability:   0.000   0.000   0.000   0.000   0.000   0.000
 Approx polarizability:  84.371 -18.119  43.766  -5.578  -0.906  30.479
                          Isotropic Fermi Contact Couplings
        Atom                 a.u.       MegaHertz       Gauss      10(-4) cm-1
     1  O(17)              0.16013     -48.53408     -17.31817     -16.18923
     2  H(1)              -0.04320     -96.55083     -34.45174     -32.20589
     3  C(13)             -0.00623      -3.50382      -1.25025      -1.16875
     4  O(17)              0.01449      -4.39206      -1.56720      -1.46503
     5  O(17)              0.00515      -1.56230      -0.55747      -0.52113
     6  H(1)              -0.00021      -0.47822      -0.17064      -0.15952
     7  O(17)             -0.05966      18.08321       6.45254       6.03191
 --------------------------------------------------------
       Center         ----  Spin Dipole Couplings  ----
                      3XX-RR        3YY-RR        3ZZ-RR
 --------------------------------------------------------
     1   Atom        0.527296      2.003693     -2.530989
     2   Atom        0.211283     -0.061662     -0.149620
     3   Atom        0.009006      0.004973     -0.013979
     4   Atom       -0.165102     -0.313692      0.478794
     5   Atom        0.052692     -0.009648     -0.043043
     6   Atom        0.005323     -0.003577     -0.001746
     7   Atom       -0.645173     -0.852632      1.497805
 --------------------------------------------------------
                        XY            XZ            YZ
 --------------------------------------------------------
     1   Atom        1.101391      1.037695     -0.884567
     2   Atom       -0.175876     -0.082705      0.038461
     3   Atom        0.010305      0.016948     -0.005587
     4   Atom        0.006755     -0.436897      0.153634
     5   Atom       -0.069973     -0.059506      0.040885
     6   Atom        0.001552      0.004695      0.001364
     7   Atom       -0.089990     -0.779500      0.217125
 --------------------------------------------------------


 ---------------------------------------------------------------------------------
              Anisotropic Spin Dipole Couplings in Principal Axis System
 ---------------------------------------------------------------------------------

       Atom             a.u.   MegaHertz   Gauss  10(-4) cm-1        Axes

              Baa    -3.1248   226.110    80.682    75.422 -0.3293  0.2287  0.9161
     1 O(17)  Bbb     0.5144   -37.221   -13.282   -12.416  0.8350 -0.3825  0.3956
              Bcc     2.6104  -188.888   -67.400   -63.006  0.4409  0.8952 -0.0650
 
              Baa    -0.1677   -89.461   -31.922   -29.841  0.2119 -0.0031  0.9773
     2 H(1)   Bbb    -0.1476   -78.774   -28.109   -26.276  0.4218  0.9024 -0.0886
              Bcc     0.3153   168.235    60.030    56.117  0.8816 -0.4310 -0.1925
 
              Baa    -0.0261    -3.506    -1.251    -1.169 -0.4851  0.3078  0.8185
     3 C(13)  Bbb     0.0051     0.685     0.244     0.228 -0.2404  0.8530 -0.4633
              Bcc     0.0210     2.821     1.007     0.941  0.8407  0.4215  0.3398
 
              Baa    -0.4381    31.700    11.311    10.574  0.7015 -0.5686  0.4296
     4 O(17)  Bbb    -0.2790    20.187     7.203     6.734  0.5611  0.8123  0.1588
              Bcc     0.7171   -51.887   -18.515   -17.308 -0.4393  0.1296  0.8890
 
              Baa    -0.0736     5.324     1.900     1.776  0.2726 -0.2886  0.9178
     5 O(17)  Bbb    -0.0549     3.974     1.418     1.326  0.5757  0.8133  0.0847
              Bcc     0.1285    -9.298    -3.318    -3.101  0.7709 -0.5053 -0.3879
 
              Baa    -0.0045    -2.418    -0.863    -0.807 -0.2461 -0.6398  0.7281
     6 H(1)   Bbb    -0.0035    -1.856    -0.662    -0.619 -0.4096  0.7494  0.5201
              Bcc     0.0080     4.274     1.525     1.426  0.8784  0.1702  0.4465
 
              Baa    -0.9084    65.730    23.454    21.925  0.8540  0.4642  0.2348
     7 O(17)  Bbb    -0.8639    62.510    22.305    20.851 -0.4187  0.8813 -0.2192
              Bcc     1.7723  -128.240   -45.759   -42.776 -0.3087  0.0889  0.9470
 

 ---------------------------------------------------------------------------------

 Calling FoFJK, ICntrl=    100147 FMM=F ISym2X=0 I1Cent= 0 IOpClX= 1 NMat=1 NMatS=1 NMatT=0.
 ***** Axes restored to original set *****
 -------------------------------------------------------------------
 Center     Atomic                   Forces (Hartrees/Bohr)
 Number     Number              X              Y              Z
 -------------------------------------------------------------------
      1        8           0.017087318   -0.008581585    0.004669587
      2        1          -0.016123358    0.010075629    0.019492339
      3        6          -0.009007523    0.071851687   -0.040562561
      4        8          -0.000201184   -0.015320986    0.043239312
      5        8          -0.000719003   -0.044810588    0.030050019
      6        1           0.001671685   -0.014613480   -0.002278451
      7        8           0.007292065    0.001399325   -0.054610245
 -------------------------------------------------------------------
 Cartesian Forces:  Max     0.071851687 RMS     0.027854085

 GradGradGradGradGradGradGradGradGradGradGradGradGradGradGradGradGradGrad
 Berny optimization.
 Internal  Forces:  Max     0.060442949 RMS     0.022062097
 Search for a saddle point.
 Step number   1 out of a maximum of   27
 All quantities printed in internal units (Hartrees-Bohrs-Radians)
 Swaping is turned off.
 Second derivative matrix not updated -- analytic derivatives used.
 The second derivative matrix:
                          R1        R2        R3        R4        R5
           R1          -0.00662
           R2           0.18135   0.08763
           R3           0.02066  -0.02992   0.32118
           R4          -0.01236   0.01727   0.09812   0.78828
           R5          -0.00098   0.00089   0.00679   0.02011   0.35944
           R6          -0.04742   0.07385   0.04803  -0.01522  -0.00229
           A1           0.02363   0.00705  -0.00312   0.00242  -0.00056
           A2          -0.00877   0.01230   0.04605   0.02732  -0.00937
           A3           0.00264  -0.00411  -0.00221  -0.04339   0.00457
           A4           0.00617  -0.00827  -0.04356   0.01632   0.00492
           A5          -0.00013   0.00079   0.05883  -0.01286   0.00354
           A6           0.04347  -0.04236  -0.00139   0.00088   0.00135
           D1           0.00246  -0.00458   0.00052   0.00051  -0.00006
           D2          -0.00756   0.01070   0.00951  -0.00705   0.00125
           D3          -0.00661   0.00921   0.01095  -0.00306   0.00305
           D4           0.00078  -0.00129   0.00396   0.00145   0.00184
           D5          -0.00583   0.00581   0.00088  -0.00327   0.00014
                          R6        A1        A2        A3        A4
           R6           0.38501
           A1           0.01176   0.02681
           A2          -0.02407   0.00151   0.18155
           A3           0.01258  -0.00025  -0.08733   0.10611
           A4           0.01130  -0.00129  -0.09365  -0.01899   0.11248
           A5           0.05224   0.00195  -0.00590   0.01350  -0.00774
           A6           0.01917   0.00061  -0.00098   0.00122  -0.00026
           D1           0.00262  -0.00138   0.00257  -0.00185  -0.00077
           D2           0.00078   0.00054  -0.00889   0.00977  -0.00191
           D3          -0.00093   0.00010  -0.00689   0.00643   0.00164
           D4          -0.00194  -0.00041   0.00375   0.00214  -0.00352
           D5          -0.00641  -0.00007  -0.00169   0.00102   0.00082
                          A5        A6        D1        D2        D3
           A5           0.30973
           A6           0.00267   0.02613
           D1           0.00133  -0.00051  -0.01023
           D2          -0.00255   0.00012   0.00144   0.00562
           D3          -0.00484  -0.00021   0.00076  -0.00786   0.00774
           D4          -0.00142  -0.00028  -0.00077  -0.01391   0.01690
           D5          -0.00679  -0.00758  -0.00504  -0.00345  -0.00161
                          D4        D5
           D4           0.03330
           D5           0.00197   0.00857
 ITU=  0
     Eigenvalues ---   -0.18764  -0.01154  -0.00427   0.00919   0.02448
     Eigenvalues ---    0.04731   0.04884   0.11957   0.20634   0.23419
     Eigenvalues ---    0.27709   0.34748   0.36111   0.45588   0.81472
 Eigenvectors required to have negative eigenvalues:
                          R1        R2        A6        R6        R3
   1                   -0.72587   0.58363   0.27661  -0.15853   0.09660
                          D2        A1        D3        A2        A4
   1                   -0.07164   0.07143  -0.06451  -0.04769   0.03916
 RFO step:  Lambda0=6.953835509D-05 Lambda=-5.61205510D-02.
 Linear search not attempted -- option 19 set.
 Maximum step size (   0.300) exceeded in Quadratic search.
    -- Step size scaled by   0.449
 Iteration  1 RMS(Cart)=  0.12820886 RMS(Int)=  0.02873118
 Iteration  2 RMS(Cart)=  0.04589612 RMS(Int)=  0.00095397
 Iteration  3 RMS(Cart)=  0.00123284 RMS(Int)=  0.00009371
 Iteration  4 RMS(Cart)=  0.00000063 RMS(Int)=  0.00009370
 Variable       Old X    -DE/DX   Delta X   Delta X   Delta X     New X
                                 (Linear)    (Quad)   (Total)
    R1        2.45081  -0.01860   0.00000  -0.08914  -0.08914   2.36167
    R2        2.07366   0.01084   0.00000   0.03691   0.03691   2.11057
    R3        2.61636   0.00001   0.00000   0.00606   0.00606   2.62242
    R4        2.29314  -0.05378   0.00000  -0.03416  -0.03416   2.25897
    R5        2.05698   0.00180   0.00000   0.00290   0.00290   2.05988
    R6        2.52811   0.00325   0.00000  -0.00129  -0.00129   2.52682
    A1        2.75961   0.01567   0.00000   0.10123   0.10123   2.86085
    A2        2.11063   0.01449   0.00000   0.03151   0.03149   2.14211
    A3        2.02428  -0.01918   0.00000  -0.06452  -0.06455   1.95973
    A4        2.14510   0.00508   0.00000   0.03383   0.03381   2.17892
    A5        1.99353  -0.01425   0.00000  -0.00940  -0.00940   1.98413
    A6        2.34975  -0.06044   0.00000  -0.24690  -0.24690   2.10284
    D1        3.09604   0.00057   0.00000  -0.32143  -0.32143   2.77461
    D2       -0.63771   0.00647   0.00000   0.19585   0.19608  -0.44163
    D3        2.42072   0.01170   0.00000   0.20801   0.20778   2.62850
    D4        3.05254   0.00447   0.00000   0.00826   0.00847   3.06100
    D5       -1.35659  -0.00076   0.00000  -0.05336  -0.05336  -1.40995
         Item               Value     Threshold  Converged?
 Maximum Force            0.060443     0.000450     NO 
 RMS     Force            0.022062     0.000300     NO 
 Maximum Displacement     0.405046     0.001800     NO 
 RMS     Displacement     0.169730     0.001200     NO 
 Predicted change in Energy=-2.425766D-02
 GradGradGradGradGradGradGradGradGradGradGradGradGradGradGradGradGradGrad

                          Input orientation:                          
 ---------------------------------------------------------------------
 Center     Atomic      Atomic             Coordinates (Angstroms)
 Number     Number       Type             X           Y           Z
 ---------------------------------------------------------------------
      1          8           0       -2.453129    0.545150    0.347146
      2          1           0       -1.436916   -0.103120    0.017129
      3          6           0        1.403098    0.018697    0.372451
      4          8           0        0.501345   -0.992326    0.071685
      5          8           0        1.460558    1.039133   -0.247537
      6          1           0        1.986257   -0.200191    1.266990
      7          8           0       -0.597032   -0.562473   -0.558178
 ---------------------------------------------------------------------
                    Distance matrix (angstroms):
                    1          2          3          4          5
     1  O    0.000000
     2  H    1.249741   0.000000
     3  C    3.892079   2.864746   0.000000
     4  O    3.341950   2.133195   1.387727   0.000000
     5  O    3.989312   3.125723   1.195398   2.269100   0.000000
     6  H    4.594539   3.645502   1.090040   2.064266   2.026345
     7  O    2.343403   1.116866   2.281304   1.337136   2.625893
                    6          7
     6  H    0.000000
     7  O    3.183688   0.000000
 Stoichiometry    CH2O4(3)
 Framework group  C1[X(CH2O4)]
 Deg. of freedom    15
 Full point group                 C1      NOp   1
 Largest Abelian subgroup         C1      NOp   1
 Largest concise Abelian subgroup C1      NOp   1
                         Standard orientation:                         
 ---------------------------------------------------------------------
 Center     Atomic      Atomic             Coordinates (Angstroms)
 Number     Number       Type             X           Y           Z
 ---------------------------------------------------------------------
      1          8           0       -2.463756    0.567467    0.259095
      2          1           0       -1.443479   -0.104080   -0.005318
      3          6           0        1.391428    0.046371    0.378659
      4          8           0        0.493295   -0.985433    0.145160
      5          8           0        1.458078    1.015414   -0.318112
      6          1           0        1.962035   -0.101868    1.295512
      7          8           0       -0.596008   -0.606482   -0.531411
 ---------------------------------------------------------------------
 Rotational constants (GHZ):      9.3585682      2.7949933      2.3723986
 Standard basis: 6-311+G(2df,2p) (5D, 7F)
 There are   188 symmetry adapted basis functions of A   symmetry.
 Integral buffers will be    131072 words long.
 Raffenetti 2 integral format.
 Two-electron integral symmetry is turned on.
   188 basis functions,   282 primitive gaussians,   213 cartesian basis functions
    21 alpha electrons       19 beta electrons
       nuclear repulsion energy       164.5137772964 Hartrees.
 NAtoms=    7 NActive=    7 NUniq=    7 SFac= 1.00D+00 NAtFMM=   50 NAOKFM=F Big=F
 One-electron integrals computed using PRISM.
 NBasis=   188 RedAO= T  NBF=   188
 NBsUse=   188 1.00D-06 NBFU=   188
 Initial guess read from the read-write file.
 B after Tr=     0.000000    0.000000    0.000000
         Rot=    1.000000    0.000000    0.000000    0.000000 Ang=   0.00 deg.
 Initial guess orbital symmetries:
 Alpha Orbitals:
       Occupied  (A) (A) (A) (A) (A) (A) (A) (A) (A) (A) (A) (A)
                 (A) (A) (A) (A) (A) (A) (A) (A) (A)
       Virtual   (A) (A) (A) (A) (A) (A) (A) (A) (A) (A) (A) (A)
                 (A) (A) (A) (A) (A) (A) (A) (A) (A) (A) (A) (A)
                 (A) (A) (A) (A) (A) (A) (A) (A) (A) (A) (A) (A)
                 (A) (A) (A) (A) (A) (A) (A) (A) (A) (A) (A) (A)
                 (A) (A) (A) (A) (A) (A) (A) (A) (A) (A) (A) (A)
                 (A) (A) (A) (A) (A) (A) (A) (A) (A) (A) (A) (A)
                 (A) (A) (A) (A) (A) (A) (A) (A) (A) (A) (A) (A)
                 (A) (A) (A) (A) (A) (A) (A) (A) (A) (A) (A) (A)
                 (A) (A) (A) (A) (A) (A) (A) (A) (A) (A) (A) (A)
                 (A) (A) (A) (A) (A) (A) (A) (A) (A) (A) (A) (A)
                 (A) (A) (A) (A) (A) (A) (A) (A) (A) (A) (A) (A)
                 (A) (A) (A) (A) (A) (A) (A) (A) (A) (A) (A) (A)
                 (A) (A) (A) (A) (A) (A) (A) (A) (A) (A) (A) (A)
                 (A) (A) (A) (A) (A) (A) (A) (A) (A) (A) (A)
 Beta  Orbitals:
       Occupied  (A) (A) (A) (A) (A) (A) (A) (A) (A) (A) (A) (A)
                 (A) (A) (A) (A) (A) (A) (A)
       Virtual   (A) (A) (A) (A) (A) (A) (A) (A) (A) (A) (A) (A)
                 (A) (A) (A) (A) (A) (A) (A) (A) (A) (A) (A) (A)
                 (A) (A) (A) (A) (A) (A) (A) (A) (A) (A) (A) (A)
                 (A) (A) (A) (A) (A) (A) (A) (A) (A) (A) (A) (A)
                 (A) (A) (A) (A) (A) (A) (A) (A) (A) (A) (A) (A)
                 (A) (A) (A) (A) (A) (A) (A) (A) (A) (A) (A) (A)
                 (A) (A) (A) (A) (A) (A) (A) (A) (A) (A) (A) (A)
                 (A) (A) (A) (A) (A) (A) (A) (A) (A) (A) (A) (A)
                 (A) (A) (A) (A) (A) (A) (A) (A) (A) (A) (A) (A)
                 (A) (A) (A) (A) (A) (A) (A) (A) (A) (A) (A) (A)
                 (A) (A) (A) (A) (A) (A) (A) (A) (A) (A) (A) (A)
                 (A) (A) (A) (A) (A) (A) (A) (A) (A) (A) (A) (A)
                 (A) (A) (A) (A) (A) (A) (A) (A) (A) (A) (A) (A)
                 (A) (A) (A) (A) (A) (A) (A) (A) (A) (A) (A) (A)
                 (A)
 Initial guess <Sx>= 0.0000 <Sy>= 0.0000 <Sz>= 1.0000 <S**2>= 2.0248 S= 1.0083
 Harris functional with IExCor= 1009 diagonalized for initial guess.
 ExpMin= 4.38D-02 ExpMax= 8.59D+03 ExpMxC= 1.30D+03 IAcc=2 IRadAn=         0 AccDes= 0.00D+00
 HarFok:  IExCor= 1009 AccDes= 0.00D+00 IRadAn=         0 IDoV= 1
 ScaDFX=  1.000000  1.000000  1.000000  1.000000
 FoFCou: FMM=F IPFlag=           0 FMFlag=      100000 FMFlg1=           0
         NFxFlg=           0 DoJE=T BraDBF=F KetDBF=T FulRan=T
         Omega=  0.000000  0.000000  1.000000  0.000000  0.000000 ICntrl=     500 IOpCl=  0
         NMat0=    1 NMatS0=    1 NMatT0=    0 NMatD0=    1 NMtDS0=    0 NMtDT0=    0
         I1Cent=           4 NGrid=           0.
 Petite list used in FoFCou.
 Requested convergence on RMS density matrix=1.00D-08 within 128 cycles.
 Requested convergence on MAX density matrix=1.00D-06.
 Requested convergence on             energy=1.00D-06.
 No special actions if energy rises.
 Keep R1 and R2 ints in memory in canonical form, NReq=524572936.
 SCF Done:  E(UM062X) =  -339.910082120     A.U. after   49 cycles
             Convg  =    0.5596D-08             -V/T =  2.0028
 <Sx>= 0.0000 <Sy>= 0.0000 <Sz>= 1.0000 <S**2>= 2.0222 S= 1.0074
 <L.S>= 0.000000000000E+00
 Annihilation of the first spin contaminant:
 S**2 before annihilation     2.0222,   after     2.0002
 Calling FoFJK, ICntrl=      2127 FMM=F ISym2X=0 I1Cent= 0 IOpClX= 1 NMat=1 NMatS=1 NMatT=0.
 ***** Axes restored to original set *****
 -------------------------------------------------------------------
 Center     Atomic                   Forces (Hartrees/Bohr)
 Number     Number              X              Y              Z
 -------------------------------------------------------------------
      1        8           0.011141390   -0.007217316    0.001665820
      2        1          -0.008738373    0.008323735    0.011171143
      3        6          -0.007310649    0.040425157   -0.024967488
      4        8          -0.000610408   -0.006026481    0.032046866
      5        8          -0.000523587   -0.023466131    0.016936512
      6        1           0.002331519   -0.010967816   -0.002185718
      7        8           0.003710108   -0.001071148   -0.034667134
 -------------------------------------------------------------------
 Cartesian Forces:  Max     0.040425157 RMS     0.016915966

 GradGradGradGradGradGradGradGradGradGradGradGradGradGradGradGradGradGrad
 Berny optimization.
 Internal  Forces:  Max     0.037084496 RMS     0.013447681
 Search for a saddle point.
 Step number   2 out of a maximum of   27
 All quantities printed in internal units (Hartrees-Bohrs-Radians)
 Swaping is turned off.
 Update second derivatives using D2CorX and points    1    2
 The second derivative matrix:
                          R1        R2        R3        R4        R5
           R1          -0.00565
           R2           0.18027   0.08864
           R3           0.01980  -0.02920   0.32167
           R4          -0.01124   0.01625   0.09739   0.78933
           R5          -0.00083   0.00077   0.00672   0.02023   0.35945
           R6          -0.04609   0.07275   0.04730  -0.01411  -0.00219
           A1           0.02247   0.00833  -0.00211   0.00110  -0.00074
           A2          -0.00893   0.01253   0.04626   0.02708  -0.00941
           A3           0.00294  -0.00456  -0.00261  -0.04292   0.00465
           A4           0.00602  -0.00803  -0.04335   0.01608   0.00488
           A5          -0.00040   0.00099   0.05894  -0.01305   0.00353
           A6           0.04832  -0.04715  -0.00496   0.00579   0.00196
           D1           0.00386  -0.00676  -0.00143   0.00281   0.00034
           D2          -0.00800   0.01168   0.01048  -0.00810   0.00104
           D3          -0.00714   0.01031   0.01200  -0.00422   0.00282
           D4           0.00084  -0.00131   0.00395   0.00147   0.00184
           D5          -0.00486   0.00484   0.00016  -0.00228   0.00027
                          R6        A1        A2        A3        A4
           R6           0.38609
           A1           0.01020   0.02821
           A2          -0.02439   0.00170   0.18156
           A3           0.01322  -0.00061  -0.08735   0.10613
           A4           0.01097  -0.00110  -0.09364  -0.01900   0.11248
           A5           0.05208   0.00227  -0.00583   0.01335  -0.00767
           A6           0.02461  -0.00517  -0.00195   0.00309  -0.00124
           D1           0.00572  -0.00314   0.00251  -0.00177  -0.00081
           D2          -0.00077   0.00111  -0.00895   0.00993  -0.00199
           D3          -0.00263   0.00078  -0.00693   0.00656   0.00157
           D4          -0.00195  -0.00047   0.00373   0.00218  -0.00354
           D5          -0.00530  -0.00122  -0.00188   0.00138   0.00063
                          A5        A6        D1        D2        D3
           A5           0.30975
           A6           0.00165   0.04853
           D1           0.00060   0.00853  -0.01001
           D2          -0.00216  -0.00367   0.00230   0.00460
           D3          -0.00441  -0.00449   0.00152  -0.00887   0.00676
           D4          -0.00141  -0.00013  -0.00055  -0.01405   0.01675
           D5          -0.00700  -0.00309  -0.00328  -0.00417  -0.00242
                          D4        D5
           D4           0.03329
           D5           0.00201   0.00947
 ITU=  0  0
     Eigenvalues ---   -0.18762  -0.01340  -0.00598   0.01126   0.02732
     Eigenvalues ---    0.04767   0.07200   0.11984   0.20661   0.23438
     Eigenvalues ---    0.27700   0.34859   0.36121   0.45603   0.81535
 Eigenvectors required to have negative eigenvalues:
                          R1        R2        A6        R6        R3
   1                   -0.72451   0.58287   0.28105  -0.15815   0.09628
                          D2        A1        D3        A2        A4
   1                   -0.07382   0.06977  -0.06700  -0.04789   0.03873
 RFO step:  Lambda0=3.883563689D-06 Lambda=-2.57258378D-02.
 Linear search not attempted -- option 19 set.
 Maximum step size (   0.300) exceeded in Quadratic search.
    -- Step size scaled by   0.520
 Iteration  1 RMS(Cart)=  0.09188674 RMS(Int)=  0.06891238
 Iteration  2 RMS(Cart)=  0.07466707 RMS(Int)=  0.01367264
 Iteration  3 RMS(Cart)=  0.02587022 RMS(Int)=  0.00087970
 Iteration  4 RMS(Cart)=  0.00192057 RMS(Int)=  0.00014740
 Iteration  5 RMS(Cart)=  0.00000401 RMS(Int)=  0.00014736
 Iteration  6 RMS(Cart)=  0.00000000 RMS(Int)=  0.00014736
 Variable       Old X    -DE/DX   Delta X   Delta X   Delta X     New X
                                 (Linear)    (Quad)   (Total)
    R1        2.36167  -0.01238   0.00000  -0.05914  -0.05914   2.30252
    R2        2.11057   0.00524   0.00000   0.01662   0.01662   2.12719
    R3        2.62242  -0.00138   0.00000   0.00621   0.00621   2.62863
    R4        2.25897  -0.02882   0.00000  -0.02244  -0.02244   2.23653
    R5        2.05988   0.00165   0.00000   0.00391   0.00391   2.06379
    R6        2.52682   0.00524   0.00000   0.00481   0.00481   2.53163
    A1        2.86085   0.01182   0.00000   0.14162   0.14162   3.00247
    A2        2.14211   0.00884   0.00000   0.01286   0.01274   2.15486
    A3        1.95973  -0.01283   0.00000  -0.03915  -0.03928   1.92045
    A4        2.17892   0.00424   0.00000   0.02812   0.02801   2.20692
    A5        1.98413  -0.00951   0.00000  -0.01359  -0.01359   1.97053
    A6        2.10284  -0.03708   0.00000  -0.24677  -0.24677   1.85608
    D1        2.77461  -0.00062   0.00000   0.43564   0.43564  -3.07294
    D2       -0.44163   0.00651   0.00000   0.05922   0.05956  -0.38207
    D3        2.62850   0.01036   0.00000   0.08712   0.08678   2.71528
    D4        3.06100   0.00368   0.00000   0.02860   0.02890   3.08991
    D5       -1.40995  -0.00128   0.00000   0.02307   0.02307  -1.38689
         Item               Value     Threshold  Converged?
 Maximum Force            0.037084     0.000450     NO 
 RMS     Force            0.013448     0.000300     NO 
 Maximum Displacement     0.432127     0.001800     NO 
 RMS     Displacement     0.192959     0.001200     NO 
 Predicted change in Energy=-1.324073D-02
 GradGradGradGradGradGradGradGradGradGradGradGradGradGradGradGradGradGrad

                          Input orientation:                          
 ---------------------------------------------------------------------
 Center     Atomic      Atomic             Coordinates (Angstroms)
 Number     Number       Type             X           Y           Z
 ---------------------------------------------------------------------
      1          8           0       -2.224457    0.511954    0.518158
      2          1           0       -1.322187   -0.076458   -0.051302
      3          6           0        1.310264    0.047071    0.382001
      4          8           0        0.426310   -0.988349    0.096613
      5          8           0        1.426704    1.010955   -0.294826
      6          1           0        1.825428   -0.149926    1.324604
      7          8           0       -0.577882   -0.610377   -0.705562
 ---------------------------------------------------------------------
                    Distance matrix (angstroms):
                    1          2          3          4          5
     1  O    0.000000
     2  H    1.218443   0.000000
     3  C    3.567760   2.670732   0.000000
     4  O    3.074927   1.977540   1.391012   0.000000
     5  O    3.773715   2.966171   1.183522   2.269631   0.000000
     6  H    4.182106   3.435985   1.092109   2.041677   2.032038
     7  O    2.338446   1.125663   2.275989   1.339683   2.610706
                    6          7
     6  H    0.000000
     7  O    3.179543   0.000000
 Stoichiometry    CH2O4(3)
 Framework group  C1[X(CH2O4)]
 Deg. of freedom    15
 Full point group                 C1      NOp   1
 Largest Abelian subgroup         C1      NOp   1
 Largest concise Abelian subgroup C1      NOp   1
                         Standard orientation:                         
 ---------------------------------------------------------------------
 Center     Atomic      Atomic             Coordinates (Angstroms)
 Number     Number       Type             X           Y           Z
 ---------------------------------------------------------------------
      1          8           0        2.246546   -0.671681    0.262082
      2          1           0        1.337748    0.040409   -0.127299
      3          6           0       -1.271460   -0.100691    0.424910
      4          8           0       -0.366789    0.948308    0.298074
      5          8           0       -1.457418   -0.907915   -0.420390
      6          1           0       -1.729679   -0.081780    1.416061
      7          8           0        0.580246    0.711977   -0.619544
 ---------------------------------------------------------------------
 Rotational constants (GHZ):      8.6183657      3.1172744      2.6665034
 Standard basis: 6-311+G(2df,2p) (5D, 7F)
 There are   188 symmetry adapted basis functions of A   symmetry.
 Integral buffers will be    131072 words long.
 Raffenetti 2 integral format.
 Two-electron integral symmetry is turned on.
   188 basis functions,   282 primitive gaussians,   213 cartesian basis functions
    21 alpha electrons       19 beta electrons
       nuclear repulsion energy       167.2018197977 Hartrees.
 NAtoms=    7 NActive=    7 NUniq=    7 SFac= 1.00D+00 NAtFMM=   50 NAOKFM=F Big=F
 One-electron integrals computed using PRISM.
 NBasis=   188 RedAO= T  NBF=   188
 NBsUse=   188 1.00D-06 NBFU=   188
 Initial guess read from the read-write file.
 B after Tr=     0.000000    0.000000    0.000000
         Rot=    1.000000    0.000000    0.000000    0.000000 Ang=   0.00 deg.
 Initial guess orbital symmetries:
 Alpha Orbitals:
       Occupied  (A) (A) (A) (A) (A) (A) (A) (A) (A) (A) (A) (A)
                 (A) (A) (A) (A) (A) (A) (A) (A) (A)
       Virtual   (A) (A) (A) (A) (A) (A) (A) (A) (A) (A) (A) (A)
                 (A) (A) (A) (A) (A) (A) (A) (A) (A) (A) (A) (A)
                 (A) (A) (A) (A) (A) (A) (A) (A) (A) (A) (A) (A)
                 (A) (A) (A) (A) (A) (A) (A) (A) (A) (A) (A) (A)
                 (A) (A) (A) (A) (A) (A) (A) (A) (A) (A) (A) (A)
                 (A) (A) (A) (A) (A) (A) (A) (A) (A) (A) (A) (A)
                 (A) (A) (A) (A) (A) (A) (A) (A) (A) (A) (A) (A)
                 (A) (A) (A) (A) (A) (A) (A) (A) (A) (A) (A) (A)
                 (A) (A) (A) (A) (A) (A) (A) (A) (A) (A) (A) (A)
                 (A) (A) (A) (A) (A) (A) (A) (A) (A) (A) (A) (A)
                 (A) (A) (A) (A) (A) (A) (A) (A) (A) (A) (A) (A)
                 (A) (A) (A) (A) (A) (A) (A) (A) (A) (A) (A) (A)
                 (A) (A) (A) (A) (A) (A) (A) (A) (A) (A) (A) (A)
                 (A) (A) (A) (A) (A) (A) (A) (A) (A) (A) (A)
 Beta  Orbitals:
       Occupied  (A) (A) (A) (A) (A) (A) (A) (A) (A) (A) (A) (A)
                 (A) (A) (A) (A) (A) (A) (A)
       Virtual   (A) (A) (A) (A) (A) (A) (A) (A) (A) (A) (A) (A)
                 (A) (A) (A) (A) (A) (A) (A) (A) (A) (A) (A) (A)
                 (A) (A) (A) (A) (A) (A) (A) (A) (A) (A) (A) (A)
                 (A) (A) (A) (A) (A) (A) (A) (A) (A) (A) (A) (A)
                 (A) (A) (A) (A) (A) (A) (A) (A) (A) (A) (A) (A)
                 (A) (A) (A) (A) (A) (A) (A) (A) (A) (A) (A) (A)
                 (A) (A) (A) (A) (A) (A) (A) (A) (A) (A) (A) (A)
                 (A) (A) (A) (A) (A) (A) (A) (A) (A) (A) (A) (A)
                 (A) (A) (A) (A) (A) (A) (A) (A) (A) (A) (A) (A)
                 (A) (A) (A) (A) (A) (A) (A) (A) (A) (A) (A) (A)
                 (A) (A) (A) (A) (A) (A) (A) (A) (A) (A) (A) (A)
                 (A) (A) (A) (A) (A) (A) (A) (A) (A) (A) (A) (A)
                 (A) (A) (A) (A) (A) (A) (A) (A) (A) (A) (A) (A)
                 (A) (A) (A) (A) (A) (A) (A) (A) (A) (A) (A) (A)
                 (A)
 Initial guess <Sx>= 0.0000 <Sy>= 0.0000 <Sz>= 1.0000 <S**2>= 2.0500 S= 1.0166
 Harris functional with IExCor= 1009 diagonalized for initial guess.
 ExpMin= 4.38D-02 ExpMax= 8.59D+03 ExpMxC= 1.30D+03 IAcc=2 IRadAn=         0 AccDes= 0.00D+00
 HarFok:  IExCor= 1009 AccDes= 0.00D+00 IRadAn=         0 IDoV= 1
 ScaDFX=  1.000000  1.000000  1.000000  1.000000
 FoFCou: FMM=F IPFlag=           0 FMFlag=      100000 FMFlg1=           0
         NFxFlg=           0 DoJE=T BraDBF=F KetDBF=T FulRan=T
         Omega=  0.000000  0.000000  1.000000  0.000000  0.000000 ICntrl=     500 IOpCl=  0
         NMat0=    1 NMatS0=    1 NMatT0=    0 NMatD0=    1 NMtDS0=    0 NMtDT0=    0
         I1Cent=           4 NGrid=           0.
 Petite list used in FoFCou.
 Requested convergence on RMS density matrix=1.00D-08 within 128 cycles.
 Requested convergence on MAX density matrix=1.00D-06.
 Requested convergence on             energy=1.00D-06.
 No special actions if energy rises.
 Keep R1 and R2 ints in memory in canonical form, NReq=524572936.
 SCF Done:  E(UM062X) =  -339.919667283     A.U. after   43 cycles
             Convg  =    0.7731D-08             -V/T =  2.0026
 <Sx>= 0.0000 <Sy>= 0.0000 <Sz>= 1.0000 <S**2>= 2.0198 S= 1.0066
 <L.S>= 0.000000000000E+00
 Annihilation of the first spin contaminant:
 S**2 before annihilation     2.0198,   after     2.0001
 Calling FoFJK, ICntrl=      2127 FMM=F ISym2X=0 I1Cent= 0 IOpClX= 1 NMat=1 NMatS=1 NMatT=0.
 ***** Axes restored to original set *****
 -------------------------------------------------------------------
 Center     Atomic                   Forces (Hartrees/Bohr)
 Number     Number              X              Y              Z
 -------------------------------------------------------------------
      1        8           0.007559452   -0.004207524   -0.000862221
      2        1          -0.012042416    0.006391892    0.001853456
      3        6          -0.003605920    0.015266920   -0.014482622
      4        8           0.006021760   -0.004003579    0.020838991
      5        8          -0.001315120   -0.006697021    0.008145581
      6        1           0.002149634   -0.007288656   -0.001651505
      7        8           0.001232609    0.000537966   -0.013841680
 -------------------------------------------------------------------
 Cartesian Forces:  Max     0.020838991 RMS     0.008657749

 GradGradGradGradGradGradGradGradGradGradGradGradGradGradGradGradGradGrad
 Berny optimization.
 Internal  Forces:  Max     0.010892827 RMS     0.006106173
 Search for a saddle point.
 Step number   3 out of a maximum of   27
 All quantities printed in internal units (Hartrees-Bohrs-Radians)
 Swaping is turned off.
 Update second derivatives using D2CorX and points    2    3
 The second derivative matrix:
                          R1        R2        R3        R4        R5
           R1          -0.00597
           R2           0.18051   0.08862
           R3           0.01964  -0.02930   0.32188
           R4          -0.01091   0.01650   0.09688   0.79053
           R5          -0.00081   0.00076   0.00673   0.02020   0.35945
           R6          -0.04521   0.07304   0.04648  -0.01212  -0.00225
           A1           0.02296   0.00766  -0.00145  -0.00035  -0.00076
           A2          -0.00872   0.01253   0.04615   0.02734  -0.00943
           A3           0.00266  -0.00443  -0.00266  -0.04285   0.00467
           A4           0.00609  -0.00817  -0.04319   0.01572   0.00488
           A5          -0.00040   0.00107   0.05883  -0.01280   0.00353
           A6           0.04936  -0.04530  -0.00797   0.01280   0.00186
           D1           0.00517  -0.00888   0.00080  -0.00211   0.00028
           D2          -0.00756   0.01148   0.01053  -0.00816   0.00101
           D3          -0.00662   0.00998   0.01219  -0.00458   0.00279
           D4           0.00093  -0.00145   0.00410   0.00116   0.00184
           D5          -0.00478   0.00474   0.00026  -0.00251   0.00026
                          R6        A1        A2        A3        A4
           R6           0.38915
           A1           0.00709   0.02803
           A2          -0.02406   0.00110   0.18157
           A3           0.01357  -0.00006  -0.08724   0.10592
           A4           0.01025  -0.00103  -0.09378  -0.01891   0.11252
           A5           0.05255   0.00212  -0.00575   0.01331  -0.00771
           A6           0.03694  -0.01166  -0.00014   0.00285  -0.00294
           D1          -0.00455  -0.00299   0.00056  -0.00015  -0.00044
           D2          -0.00123   0.00020  -0.00911   0.01025  -0.00216
           D3          -0.00372  -0.00013  -0.00722   0.00699   0.00143
           D4          -0.00261  -0.00048   0.00360   0.00229  -0.00352
           D5          -0.00579  -0.00126  -0.00198   0.00147   0.00063
                          A5        A6        D1        D2        D3
           A5           0.30979
           A6           0.00295   0.08731
           D1           0.00003  -0.01422  -0.00727
           D2          -0.00209  -0.00301  -0.00041   0.00410
           D3          -0.00438  -0.00523  -0.00105  -0.00954   0.00593
           D4          -0.00144  -0.00158  -0.00041  -0.01423   0.01658
           D5          -0.00702  -0.00409  -0.00331  -0.00432  -0.00258
                          D4        D5
           D4           0.03330
           D5           0.00200   0.00946
 ITU=  0  0  0
     Eigenvalues ---   -0.18684  -0.01278  -0.00380   0.01115   0.02714
     Eigenvalues ---    0.04756   0.10567   0.12074   0.20747   0.23439
     Eigenvalues ---    0.27702   0.35045   0.36124   0.45837   0.81640
 Eigenvectors required to have negative eigenvalues:
                          R1        R2        A6        R6        R3
   1                   -0.72822   0.58416   0.25823  -0.16063   0.09787
                          A1        D2        D1        D3        A2
   1                    0.07809  -0.07308   0.06583  -0.06536  -0.04881
 RFO step:  Lambda0=1.574360416D-04 Lambda=-1.83526849D-02.
 Linear search not attempted -- option 19 set.
 Iteration  1 RMS(Cart)=  0.01661272 RMS(Int)=  0.21403129
 Iteration  2 RMS(Cart)=  0.01300365 RMS(Int)=  0.20624803
 Iteration  3 RMS(Cart)=  0.01101792 RMS(Int)=  0.19976178
 Iteration  4 RMS(Cart)=  0.00962878 RMS(Int)=  0.19415212
 Iteration  5 RMS(Cart)=  0.00859342 RMS(Int)=  0.18917967
 Iteration  6 RMS(Cart)=  0.00778699 RMS(Int)=  0.18469415
 Iteration  7 RMS(Cart)=  0.00713812 RMS(Int)=  0.18059457
 Iteration  8 RMS(Cart)=  0.00660279 RMS(Int)=  0.17680955
 Iteration  9 RMS(Cart)=  0.00615228 RMS(Int)=  0.17328661
 Iteration 10 RMS(Cart)=  0.00576692 RMS(Int)=  0.16998600
 Iteration 11 RMS(Cart)=  0.00543280 RMS(Int)=  0.16687680
 Iteration 12 RMS(Cart)=  0.00513973 RMS(Int)=  0.16393451
 Iteration 13 RMS(Cart)=  0.00488008 RMS(Int)=  0.16113933
 Iteration 14 RMS(Cart)=  0.00464798 RMS(Int)=  0.15847507
 Iteration 15 RMS(Cart)=  0.00443883 RMS(Int)=  0.15592832
 Iteration 16 RMS(Cart)=  0.00424893 RMS(Int)=  0.15348786
 Iteration 17 RMS(Cart)=  0.00407527 RMS(Int)=  0.15114425
 Iteration 18 RMS(Cart)=  0.00391532 RMS(Int)=  0.14888952
 Iteration 19 RMS(Cart)=  0.00376685 RMS(Int)=  0.14671691
 Iteration 20 RMS(Cart)=  0.00362785 RMS(Int)=  0.14462073
 Iteration 21 RMS(Cart)=  0.00349630 RMS(Int)=  0.14259623
 Iteration 22 RMS(Cart)=  0.00336990 RMS(Int)=  0.14063947
 Iteration 23 RMS(Cart)=  0.00324547 RMS(Int)=  0.13874698
 Iteration 24 RMS(Cart)=  0.00311713 RMS(Int)=  0.13691349
 Iteration 25 RMS(Cart)=  0.00296802 RMS(Int)=  0.13509004
 Iteration 26 RMS(Cart)=  0.00265858 RMS(Int)=  0.76338379
 New curvilinear step failed, DQL= 3.10D+00 SP=-4.81D-01.
 Iteration  1 RMS(Cart)=  0.01539675 RMS(Int)=  0.19227781
 Iteration  2 RMS(Cart)=  0.01210796 RMS(Int)=  0.18495498
 Iteration  3 RMS(Cart)=  0.01032598 RMS(Int)=  0.17879436
 Iteration  4 RMS(Cart)=  0.00906361 RMS(Int)=  0.17343392
 Iteration  5 RMS(Cart)=  0.00811701 RMS(Int)=  0.16866121
 Iteration  6 RMS(Cart)=  0.00737753 RMS(Int)=  0.16434040
 Iteration  7 RMS(Cart)=  0.00678176 RMS(Int)=  0.16037912
 Iteration  8 RMS(Cart)=  0.00629005 RMS(Int)=  0.15671159
 Iteration  9 RMS(Cart)=  0.00587630 RMS(Int)=  0.15328915
 Iteration 10 RMS(Cart)=  0.00552260 RMS(Int)=  0.15007477
 Iteration 11 RMS(Cart)=  0.00521621 RMS(Int)=  0.14703956
 Iteration 12 RMS(Cart)=  0.00494780 RMS(Int)=  0.14416052
 Iteration 13 RMS(Cart)=  0.00471042 RMS(Int)=  0.14141900
 Iteration 14 RMS(Cart)=  0.00449871 RMS(Int)=  0.13879968
 Iteration 15 RMS(Cart)=  0.00430852 RMS(Int)=  0.13628978
 Iteration 16 RMS(Cart)=  0.00413656 RMS(Int)=  0.13387854
 Iteration 17 RMS(Cart)=  0.00398017 RMS(Int)=  0.13155682
 Iteration 18 RMS(Cart)=  0.00383722 RMS(Int)=  0.12931675
 Iteration 19 RMS(Cart)=  0.00370591 RMS(Int)=  0.12715154
 Iteration 20 RMS(Cart)=  0.00358479 RMS(Int)=  0.12505529
 Iteration 21 RMS(Cart)=  0.00347262 RMS(Int)=  0.12302280
 Iteration 22 RMS(Cart)=  0.00336834 RMS(Int)=  0.12104951
 Iteration 23 RMS(Cart)=  0.00327106 RMS(Int)=  0.11913139
 Iteration 24 RMS(Cart)=  0.00317999 RMS(Int)=  0.11726485
 Iteration 25 RMS(Cart)=  0.00309447 RMS(Int)=  0.11544671
 Iteration 26 RMS(Cart)=  0.00301388 RMS(Int)=  0.11367413
 Iteration 27 RMS(Cart)=  0.00293770 RMS(Int)=  0.11194457
 Iteration 28 RMS(Cart)=  0.00286542 RMS(Int)=  0.11025577
 Iteration 29 RMS(Cart)=  0.00279660 RMS(Int)=  0.10860571
 Iteration 30 RMS(Cart)=  0.00273078 RMS(Int)=  0.10699262
 Iteration 31 RMS(Cart)=  0.00266750 RMS(Int)=  0.10541495
 Iteration 32 RMS(Cart)=  0.00260625 RMS(Int)=  0.10387139
 Iteration 33 RMS(Cart)=  0.00254645 RMS(Int)=  0.10236083
 Iteration 34 RMS(Cart)=  0.00248726 RMS(Int)=  0.10088238
 Iteration 35 RMS(Cart)=  0.00242737 RMS(Int)=  0.09943528
 Iteration 36 RMS(Cart)=  0.00236416 RMS(Int)=  0.09801800
 Iteration 37 RMS(Cart)=  0.00229039 RMS(Int)=  0.09661663
 Iteration 38 RMS(Cart)=  0.00216411 RMS(Int)=  0.75977692
 New curvilinear step failed, DQL= 3.11D+00 SP=-4.91D-01.
 Iteration  1 RMS(Cart)=  0.01471701 RMS(Int)=  0.17022565
 Iteration  2 RMS(Cart)=  0.01182141 RMS(Int)=  0.16300688
 Iteration  3 RMS(Cart)=  0.01005193 RMS(Int)=  0.15694020
 Iteration  4 RMS(Cart)=  0.00879236 RMS(Int)=  0.15167327
 Iteration  5 RMS(Cart)=  0.00784904 RMS(Int)=  0.14699475
 Iteration  6 RMS(Cart)=  0.00711529 RMS(Int)=  0.14276790
 Iteration  7 RMS(Cart)=  0.00652745 RMS(Int)=  0.13889919
 Iteration  8 RMS(Cart)=  0.00604527 RMS(Int)=  0.13532184
 Iteration  9 RMS(Cart)=  0.00564203 RMS(Int)=  0.13198653
 Iteration 10 RMS(Cart)=  0.00529935 RMS(Int)=  0.12885576
 Iteration 11 RMS(Cart)=  0.00500414 RMS(Int)=  0.12590037
 Iteration 12 RMS(Cart)=  0.00474688 RMS(Int)=  0.12309720
 Iteration 13 RMS(Cart)=  0.00452044 RMS(Int)=  0.12042757
 Iteration 14 RMS(Cart)=  0.00431939 RMS(Int)=  0.11787614
 Iteration 15 RMS(Cart)=  0.00413952 RMS(Int)=  0.11543021
 Iteration 16 RMS(Cart)=  0.00397752 RMS(Int)=  0.11307907
 Iteration 17 RMS(Cart)=  0.00383073 RMS(Int)=  0.11081366
 Iteration 18 RMS(Cart)=  0.00369702 RMS(Int)=  0.10862622
 Iteration 19 RMS(Cart)=  0.00357463 RMS(Int)=  0.10651003
 Iteration 20 RMS(Cart)=  0.00346212 RMS(Int)=  0.10445926
 Iteration 21 RMS(Cart)=  0.00335829 RMS(Int)=  0.10246880
 Iteration 22 RMS(Cart)=  0.00326211 RMS(Int)=  0.10053415
 Iteration 23 RMS(Cart)=  0.00317274 RMS(Int)=  0.09865131
 Iteration 24 RMS(Cart)=  0.00308944 RMS(Int)=  0.09681674
 Iteration 25 RMS(Cart)=  0.00301158 RMS(Int)=  0.09502725
 Iteration 26 RMS(Cart)=  0.00293863 RMS(Int)=  0.09327998
 Iteration 27 RMS(Cart)=  0.00287009 RMS(Int)=  0.09157237
 Iteration 28 RMS(Cart)=  0.00280558 RMS(Int)=  0.08990206
 Iteration 29 RMS(Cart)=  0.00274472 RMS(Int)=  0.08826694
 Iteration 30 RMS(Cart)=  0.00268719 RMS(Int)=  0.08666508
 Iteration 31 RMS(Cart)=  0.00263272 RMS(Int)=  0.08509470
 Iteration 32 RMS(Cart)=  0.00258105 RMS(Int)=  0.08355419
 Iteration 33 RMS(Cart)=  0.00253196 RMS(Int)=  0.08204205
 Iteration 34 RMS(Cart)=  0.00248524 RMS(Int)=  0.08055691
 Iteration 35 RMS(Cart)=  0.00244073 RMS(Int)=  0.07909751
 Iteration 36 RMS(Cart)=  0.00239825 RMS(Int)=  0.07766266
 Iteration 37 RMS(Cart)=  0.00235765 RMS(Int)=  0.07625128
 Iteration 38 RMS(Cart)=  0.00231882 RMS(Int)=  0.07486237
 Iteration 39 RMS(Cart)=  0.00228161 RMS(Int)=  0.07349498
 Iteration 40 RMS(Cart)=  0.00224593 RMS(Int)=  0.07214824
 Iteration 41 RMS(Cart)=  0.00221167 RMS(Int)=  0.07082133
 Iteration 42 RMS(Cart)=  0.00216317 RMS(Int)=  0.06952298
 Iteration 43 RMS(Cart)=  0.00209671 RMS(Int)=  0.06826416
 Iteration 44 RMS(Cart)=  0.00200185 RMS(Int)=  0.06706227
 Iteration 45 RMS(Cart)=  0.00191194 RMS(Int)=  0.06591435
 Iteration 46 RMS(Cart)=  0.00182855 RMS(Int)=  0.06481647
 Iteration 47 RMS(Cart)=  0.00175104 RMS(Int)=  0.06376511
 Iteration 48 RMS(Cart)=  0.00167881 RMS(Int)=  0.06275709
 Iteration 49 RMS(Cart)=  0.00161137 RMS(Int)=  0.06178954
 Iteration 50 RMS(Cart)=  0.00154828 RMS(Int)=  0.06085984
 Iteration 51 RMS(Cart)=  0.00148913 RMS(Int)=  0.05996562
 Iteration 52 RMS(Cart)=  0.00143359 RMS(Int)=  0.05910471
 Iteration 53 RMS(Cart)=  0.00138134 RMS(Int)=  0.05827514
 Iteration 54 RMS(Cart)=  0.00133210 RMS(Int)=  0.05747508
 Iteration 55 RMS(Cart)=  0.00128562 RMS(Int)=  0.05670287
 Iteration 56 RMS(Cart)=  0.00124168 RMS(Int)=  0.05595699
 Iteration 57 RMS(Cart)=  0.00120008 RMS(Int)=  0.05523602
 Iteration 58 RMS(Cart)=  0.00116057 RMS(Int)=  0.05453869
 Iteration 59 RMS(Cart)=  0.00112309 RMS(Int)=  0.05386378
 Iteration 60 RMS(Cart)=  0.00108742 RMS(Int)=  0.05321018
 Iteration 61 RMS(Cart)=  0.00105341 RMS(Int)=  0.05257686
 Iteration 62 RMS(Cart)=  0.00102093 RMS(Int)=  0.05196289
 Iteration 63 RMS(Cart)=  0.00098982 RMS(Int)=  0.05136738
 Iteration 64 RMS(Cart)=  0.00095994 RMS(Int)=  0.05078952
 Iteration 65 RMS(Cart)=  0.00093112 RMS(Int)=  0.05022856
 Iteration 66 RMS(Cart)=  0.00090315 RMS(Int)=  0.04968378
 Iteration 67 RMS(Cart)=  0.00087571 RMS(Int)=  0.04915440
 Iteration 68 RMS(Cart)=  0.00084836 RMS(Int)=  0.04863909
 Iteration 69 RMS(Cart)=  0.00081949 RMS(Int)=  0.04813201
 Iteration 70 RMS(Cart)=  0.00078144 RMS(Int)=  0.75869766
 New curvilinear step failed, DQL= 3.12D+00 SP=-6.71D-01.
 Iteration  1 RMS(Cart)=  0.01655386 RMS(Int)=  0.14659565
 Iteration  2 RMS(Cart)=  0.01357172 RMS(Int)=  0.13825876
 Iteration  3 RMS(Cart)=  0.01152421 RMS(Int)=  0.13126000
 Iteration  4 RMS(Cart)=  0.01002028 RMS(Int)=  0.12521610
 Iteration  5 RMS(Cart)=  0.00886578 RMS(Int)=  0.11989115
 Iteration  6 RMS(Cart)=  0.00795143 RMS(Int)=  0.11512802
 Iteration  7 RMS(Cart)=  0.00721022 RMS(Int)=  0.11081595
 Iteration  8 RMS(Cart)=  0.00659834 RMS(Int)=  0.10687365
 Iteration  9 RMS(Cart)=  0.00608572 RMS(Int)=  0.10323953
 Iteration 10 RMS(Cart)=  0.00565099 RMS(Int)=  0.09986574
 Iteration 11 RMS(Cart)=  0.00527836 RMS(Int)=  0.09671443
 Iteration 12 RMS(Cart)=  0.00495602 RMS(Int)=  0.09375513
 Iteration 13 RMS(Cart)=  0.00467487 RMS(Int)=  0.09096300
 Iteration 14 RMS(Cart)=  0.00442786 RMS(Int)=  0.08831754
 Iteration 15 RMS(Cart)=  0.00420933 RMS(Int)=  0.08580171
 Iteration 16 RMS(Cart)=  0.00401485 RMS(Int)=  0.08340114
 Iteration 17 RMS(Cart)=  0.00384079 RMS(Int)=  0.08110367
 Iteration 18 RMS(Cart)=  0.00368418 RMS(Int)=  0.07889893
 Iteration 19 RMS(Cart)=  0.00354260 RMS(Int)=  0.07677799
 Iteration 20 RMS(Cart)=  0.00341403 RMS(Int)=  0.07473315
 Iteration 21 RMS(Cart)=  0.00329679 RMS(Int)=  0.07275769
 Iteration 22 RMS(Cart)=  0.00318946 RMS(Int)=  0.07084575
 Iteration 23 RMS(Cart)=  0.00303876 RMS(Int)=  0.06902362
 Iteration 24 RMS(Cart)=  0.00284164 RMS(Int)=  0.06731966
 Iteration 25 RMS(Cart)=  0.00264164 RMS(Int)=  0.06573580
 Iteration 26 RMS(Cart)=  0.00246584 RMS(Int)=  0.06425750
 Iteration 27 RMS(Cart)=  0.00231017 RMS(Int)=  0.06287266
 Iteration 28 RMS(Cart)=  0.00217141 RMS(Int)=  0.06157110
 Iteration 29 RMS(Cart)=  0.00204700 RMS(Int)=  0.06034421
 Iteration 30 RMS(Cart)=  0.00193485 RMS(Int)=  0.05918462
 Iteration 31 RMS(Cart)=  0.00183327 RMS(Int)=  0.05808598
 Iteration 32 RMS(Cart)=  0.00174087 RMS(Int)=  0.05704278
 Iteration 33 RMS(Cart)=  0.00165646 RMS(Int)=  0.05605021
 Iteration 34 RMS(Cart)=  0.00157908 RMS(Int)=  0.05510406
 Iteration 35 RMS(Cart)=  0.00150790 RMS(Int)=  0.05420060
 Iteration 36 RMS(Cart)=  0.00144221 RMS(Int)=  0.05333654
 Iteration 37 RMS(Cart)=  0.00138143 RMS(Int)=  0.05250893
 Iteration 38 RMS(Cart)=  0.00132502 RMS(Int)=  0.05171514
 Iteration 39 RMS(Cart)=  0.00127256 RMS(Int)=  0.05095281
 Iteration 40 RMS(Cart)=  0.00122363 RMS(Int)=  0.05021982
 Iteration 41 RMS(Cart)=  0.00117792 RMS(Int)=  0.04951424
 Iteration 42 RMS(Cart)=  0.00113511 RMS(Int)=  0.04883432
 Iteration 43 RMS(Cart)=  0.00109494 RMS(Int)=  0.04817848
 Iteration 44 RMS(Cart)=  0.00105719 RMS(Int)=  0.04754527
 Iteration 45 RMS(Cart)=  0.00102165 RMS(Int)=  0.04693336
 Iteration 46 RMS(Cart)=  0.00098814 RMS(Int)=  0.04634154
 Iteration 47 RMS(Cart)=  0.00095648 RMS(Int)=  0.04576870
 Iteration 48 RMS(Cart)=  0.00092654 RMS(Int)=  0.04521380
 Iteration 49 RMS(Cart)=  0.00089819 RMS(Int)=  0.04467589
 Iteration 50 RMS(Cart)=  0.00087129 RMS(Int)=  0.04415410
 Iteration 51 RMS(Cart)=  0.00084576 RMS(Int)=  0.04364762
 Iteration 52 RMS(Cart)=  0.00082148 RMS(Int)=  0.04315568
 Iteration 53 RMS(Cart)=  0.00079838 RMS(Int)=  0.04267758
 Iteration 54 RMS(Cart)=  0.00077637 RMS(Int)=  0.04221268
 Iteration 55 RMS(Cart)=  0.00075538 RMS(Int)=  0.04176035
 Iteration 56 RMS(Cart)=  0.00073534 RMS(Int)=  0.04132004
 Iteration 57 RMS(Cart)=  0.00071619 RMS(Int)=  0.04089119
 Iteration 58 RMS(Cart)=  0.00069787 RMS(Int)=  0.04047333
 Iteration 59 RMS(Cart)=  0.00068034 RMS(Int)=  0.04006596
 Iteration 60 RMS(Cart)=  0.00066354 RMS(Int)=  0.03966866
 Iteration 61 RMS(Cart)=  0.00064744 RMS(Int)=  0.03928100
 Iteration 62 RMS(Cart)=  0.00063199 RMS(Int)=  0.03890261
 Iteration 63 RMS(Cart)=  0.00061715 RMS(Int)=  0.03853310
 Iteration 64 RMS(Cart)=  0.00060289 RMS(Int)=  0.03817214
 Iteration 65 RMS(Cart)=  0.00058918 RMS(Int)=  0.03781938
 Iteration 66 RMS(Cart)=  0.00057599 RMS(Int)=  0.03747453
 Iteration 67 RMS(Cart)=  0.00056329 RMS(Int)=  0.03713729
 Iteration 68 RMS(Cart)=  0.00055105 RMS(Int)=  0.03680738
 Iteration 69 RMS(Cart)=  0.00053926 RMS(Int)=  0.03648454
 Iteration 70 RMS(Cart)=  0.00052788 RMS(Int)=  0.03616851
 Iteration 71 RMS(Cart)=  0.00051690 RMS(Int)=  0.03585906
 Iteration 72 RMS(Cart)=  0.00050629 RMS(Int)=  0.03555595
 Iteration 73 RMS(Cart)=  0.00049605 RMS(Int)=  0.03525899
 Iteration 74 RMS(Cart)=  0.00048615 RMS(Int)=  0.03496795
 Iteration 75 RMS(Cart)=  0.00047657 RMS(Int)=  0.03468265
 Iteration 76 RMS(Cart)=  0.00046731 RMS(Int)=  0.03440290
 Iteration 77 RMS(Cart)=  0.00045834 RMS(Int)=  0.03412852
 Iteration 78 RMS(Cart)=  0.00044966 RMS(Int)=  0.03385934
 Iteration 79 RMS(Cart)=  0.00044125 RMS(Int)=  0.03359520
 Iteration 80 RMS(Cart)=  0.00043309 RMS(Int)=  0.03333594
 Iteration 81 RMS(Cart)=  0.00042519 RMS(Int)=  0.03308142
 Iteration 82 RMS(Cart)=  0.00041752 RMS(Int)=  0.03283149
 Iteration 83 RMS(Cart)=  0.00041008 RMS(Int)=  0.03258601
 Iteration 84 RMS(Cart)=  0.00040285 RMS(Int)=  0.03234487
 Iteration 85 RMS(Cart)=  0.00039583 RMS(Int)=  0.03210792
 Iteration 86 RMS(Cart)=  0.00038902 RMS(Int)=  0.03187506
 Iteration 87 RMS(Cart)=  0.00038240 RMS(Int)=  0.03164616
 Iteration 88 RMS(Cart)=  0.00037596 RMS(Int)=  0.03142112
 Iteration 89 RMS(Cart)=  0.00036969 RMS(Int)=  0.03119983
 Iteration 90 RMS(Cart)=  0.00036360 RMS(Int)=  0.03098219
 Iteration 91 RMS(Cart)=  0.00035768 RMS(Int)=  0.03076810
 Iteration 92 RMS(Cart)=  0.00035191 RMS(Int)=  0.03055746
 Iteration 93 RMS(Cart)=  0.00034629 RMS(Int)=  0.03035018
 Iteration 94 RMS(Cart)=  0.00034082 RMS(Int)=  0.03014618
 Iteration 95 RMS(Cart)=  0.00033549 RMS(Int)=  0.02994538
 Iteration 96 RMS(Cart)=  0.00033030 RMS(Int)=  0.02974768
 Iteration 97 RMS(Cart)=  0.00032523 RMS(Int)=  0.02955301
 Iteration 98 RMS(Cart)=  0.00032029 RMS(Int)=  0.02936130
 Iteration 99 RMS(Cart)=  0.00031548 RMS(Int)=  0.02917248
 Iteration100 RMS(Cart)=  0.00031078 RMS(Int)=  0.02898646
 New curvilinear step not converged.
 Iteration  1 RMS(Cart)=  0.02694453 RMS(Int)=  0.11751045
 Iteration  2 RMS(Cart)=  0.02844370 RMS(Int)=  0.10005456
 Iteration  3 RMS(Cart)=  0.03663679 RMS(Int)=  0.07791732
 Iteration  4 RMS(Cart)=  0.06399718 RMS(Int)=  0.04004426
 Iteration  5 RMS(Cart)=  0.06730447 RMS(Int)=  0.00461551
[...]
 ! D4    D(4,3,5,6)            177.4933         -DE/DX =   -0.0001              !
 ! D5    D(3,4,7,2)            -52.7979         -DE/DX =    0.0                 !
 --------------------------------------------------------------------------------
 GradGradGradGradGradGradGradGradGradGradGradGradGradGradGradGradGradGrad

                          Input orientation:                          
 ---------------------------------------------------------------------
 Center     Atomic      Atomic             Coordinates (Angstroms)
 Number     Number       Type             X           Y           Z
 ---------------------------------------------------------------------
      1          8           0       -1.835201    0.740193    0.424497
      2          1           0       -1.201124    0.008535   -0.283300
      3          6           0        1.167361    0.057498    0.431926
      4          8           0        0.435354   -1.080184    0.246678
      5          8           0        0.871054    1.124161    0.015304
      6          1           0        2.029751   -0.204845    1.052422
      7          8           0       -0.603013   -0.900488   -0.617841
 ---------------------------------------------------------------------
                    Distance matrix (angstroms):
                    1          2          3          4          5
     1  O    0.000000
     2  H    1.199314   0.000000
     3  C    3.079206   2.474604   0.000000
     4  O    2.915615   2.035742   1.365457   0.000000
     5  O    2.763818   2.372279   1.182854   2.258873   0.000000
     6  H    4.028056   3.502604   1.094328   1.989358   2.045592
     7  O    2.301432   1.138410   2.270236   1.363044   2.583206
                    6          7
     6  H    0.000000
     7  O    3.194549   0.000000
 Stoichiometry    CH2O4(3)
 Framework group  C1[X(CH2O4)]
 Deg. of freedom    15
 Full point group                 C1      NOp   1
 Largest Abelian subgroup         C1      NOp   1
 Largest concise Abelian subgroup C1      NOp   1
                         Standard orientation:                         
 ---------------------------------------------------------------------
 Center     Atomic      Atomic             Coordinates (Angstroms)
 Number     Number       Type             X           Y           Z
 ---------------------------------------------------------------------
      1          8           0       -1.848720   -0.652142   -0.312595
      2          1           0       -1.188914    0.154707    0.280706
      3          6           0        1.202369   -0.249524   -0.211260
      4          8           0        0.580138    0.960727   -0.323473
      5          8           0        0.773196   -1.174277    0.388562
      6          1           0        2.124235   -0.200014   -0.798853
      7          8           0       -0.523306    1.058498    0.470719
 ---------------------------------------------------------------------
 Rotational constants (GHZ):      6.9470464      4.6897750      3.1644719

 **********************************************************************

            Population analysis using the SCF density.

 **********************************************************************

 Orbital symmetries:
 Alpha Orbitals:
       Occupied  (A) (A) (A) (A) (A) (A) (A) (A) (A) (A) (A) (A)
                 (A) (A) (A) (A) (A) (A) (A) (A) (A)
       Virtual   (A) (A) (A) (A) (A) (A) (A) (A) (A) (A) (A) (A)
                 (A) (A) (A) (A) (A) (A) (A) (A) (A) (A) (A) (A)
                 (A) (A) (A) (A) (A) (A) (A) (A) (A) (A) (A) (A)
                 (A) (A) (A) (A) (A) (A) (A) (A) (A) (A) (A) (A)
                 (A) (A) (A) (A) (A) (A) (A) (A) (A) (A) (A) (A)
                 (A) (A) (A) (A) (A) (A) (A) (A) (A) (A) (A) (A)
                 (A) (A) (A) (A) (A) (A) (A) (A) (A) (A) (A) (A)
                 (A) (A) (A) (A) (A) (A) (A) (A) (A) (A) (A) (A)
                 (A) (A) (A) (A) (A) (A) (A) (A) (A) (A) (A) (A)
                 (A) (A) (A) (A) (A) (A) (A) (A) (A) (A) (A) (A)
                 (A) (A) (A) (A) (A) (A) (A) (A) (A) (A) (A) (A)
                 (A) (A) (A) (A) (A) (A) (A) (A) (A) (A) (A) (A)
                 (A) (A) (A) (A) (A) (A) (A) (A) (A) (A) (A) (A)
                 (A) (A) (A) (A) (A) (A) (A) (A) (A) (A) (A)
 Beta  Orbitals:
       Occupied  (A) (A) (A) (A) (A) (A) (A) (A) (A) (A) (A) (A)
                 (A) (A) (A) (A) (A) (A) (A)
       Virtual   (A) (A) (A) (A) (A) (A) (A) (A) (A) (A) (A) (A)
                 (A) (A) (A) (A) (A) (A) (A) (A) (A) (A) (A) (A)
                 (A) (A) (A) (A) (A) (A) (A) (A) (A) (A) (A) (A)
                 (A) (A) (A) (A) (A) (A) (A) (A) (A) (A) (A) (A)
                 (A) (A) (A) (A) (A) (A) (A) (A) (A) (A) (A) (A)
                 (A) (A) (A) (A) (A) (A) (A) (A) (A) (A) (A) (A)
                 (A) (A) (A) (A) (A) (A) (A) (A) (A) (A) (A) (A)
                 (A) (A) (A) (A) (A) (A) (A) (A) (A) (A) (A) (A)
                 (A) (A) (A) (A) (A) (A) (A) (A) (A) (A) (A) (A)
                 (A) (A) (A) (A) (A) (A) (A) (A) (A) (A) (A) (A)
                 (A) (A) (A) (A) (A) (A) (A) (A) (A) (A) (A) (A)
                 (A) (A) (A) (A) (A) (A) (A) (A) (A) (A) (A) (A)
                 (A) (A) (A) (A) (A) (A) (A) (A) (A) (A) (A) (A)
                 (A) (A) (A) (A) (A) (A) (A) (A) (A) (A) (A) (A)
                 (A)
 The electronic state is 3-A.
 Alpha  occ. eigenvalues --  -19.77452 -19.75598 -19.74140 -19.67318 -10.71435
 Alpha  occ. eigenvalues --   -1.37101  -1.23228  -1.16230  -1.07237  -0.77807
 Alpha  occ. eigenvalues --   -0.69002  -0.65105  -0.62140  -0.57278  -0.55564
 Alpha  occ. eigenvalues --   -0.53847  -0.50335  -0.48062  -0.45509  -0.41466
 Alpha  occ. eigenvalues --   -0.40989
 Alpha virt. eigenvalues --   -0.00153   0.01337   0.03623   0.04532   0.05663
 Alpha virt. eigenvalues --    0.06985   0.13939   0.15453   0.15840   0.17557
 Alpha virt. eigenvalues --    0.17926   0.19184   0.22393   0.22954   0.24251
 Alpha virt. eigenvalues --    0.24914   0.25565   0.25961   0.27712   0.29258
 Alpha virt. eigenvalues --    0.30976   0.32352   0.34490   0.35162   0.37679
 Alpha virt. eigenvalues --    0.46011   0.52912   0.54692   0.56534   0.59421
 Alpha virt. eigenvalues --    0.63800   0.68762   0.71411   0.77676   0.81226
 Alpha virt. eigenvalues --    0.81906   0.89017   0.93986   0.98667   1.00079
 Alpha virt. eigenvalues --    1.01957   1.02977   1.03905   1.06151   1.07660
 Alpha virt. eigenvalues --    1.07961   1.09133   1.11013   1.16165   1.19373
 Alpha virt. eigenvalues --    1.21666   1.26607   1.33902   1.37294   1.40787
 Alpha virt. eigenvalues --    1.44419   1.45928   1.47920   1.51773   1.53025
 Alpha virt. eigenvalues --    1.58643   1.60420   1.63947   1.69059   1.74599
 Alpha virt. eigenvalues --    1.83768   1.90655   1.96099   2.00191   2.04076
 Alpha virt. eigenvalues --    2.07754   2.12559   2.25959   2.32711   2.37468
 Alpha virt. eigenvalues --    2.48116   2.50777   2.55169   2.62424   2.67358
 Alpha virt. eigenvalues --    2.70226   2.75774   2.93589   2.97984   3.01721
 Alpha virt. eigenvalues --    3.13319   3.18199   3.21578   3.31673   3.37712
 Alpha virt. eigenvalues --    3.44073   3.52484   3.54078   3.65606   3.70303
 Alpha virt. eigenvalues --    3.74570   3.79535   3.88605   4.08670   4.10326
 Alpha virt. eigenvalues --    4.31475   4.51406   4.58955   4.73450   4.79761
 Alpha virt. eigenvalues --    4.84241   4.89977   4.94548   4.95080   4.95703
 Alpha virt. eigenvalues --    4.96073   4.97304   4.97979   5.00125   5.02204
 Alpha virt. eigenvalues --    5.03382   5.04739   5.06872   5.08863   5.10114
 Alpha virt. eigenvalues --    5.13289   5.16382   5.19161   5.23837   5.30392
 Alpha virt. eigenvalues --    5.31923   5.37880   5.39121   5.42441   5.47771
 Alpha virt. eigenvalues --    5.49948   5.65943   5.82635   5.88200   6.11702
 Alpha virt. eigenvalues --    6.22631   6.35965   6.52150   6.58987   6.60251
 Alpha virt. eigenvalues --    6.66641   6.69042   6.73213   6.79202   6.80663
 Alpha virt. eigenvalues --    6.85225   6.86519   6.95580   6.98802   7.02430
 Alpha virt. eigenvalues --    7.07318   7.11949   7.14702   7.21688   7.27732
 Alpha virt. eigenvalues --    7.39416   7.44224   7.59726   7.62342   7.76410
 Alpha virt. eigenvalues --    7.84930   7.90796  24.72796  49.85274  49.94937
 Alpha virt. eigenvalues --   50.01130  50.24448
  Beta  occ. eigenvalues --  -19.77268 -19.74665 -19.71369 -19.67215 -10.71451
  Beta  occ. eigenvalues --   -1.35606  -1.22702  -1.07378  -1.00401  -0.76297
  Beta  occ. eigenvalues --   -0.67318  -0.62670  -0.60583  -0.54466  -0.50965
  Beta  occ. eigenvalues --   -0.46927  -0.41970  -0.40825  -0.39015
  Beta virt. eigenvalues --   -0.17009  -0.11256   0.00333   0.01388   0.03764
  Beta virt. eigenvalues --    0.04627   0.05778   0.07704   0.13848   0.15594
  Beta virt. eigenvalues --    0.16043   0.17573   0.18324   0.19429   0.22303
  Beta virt. eigenvalues --    0.22986   0.24483   0.24895   0.25618   0.26308
  Beta virt. eigenvalues --    0.27722   0.29314   0.31223   0.32307   0.34620
  Beta virt. eigenvalues --    0.36176   0.38644   0.46076   0.53267   0.54673
  Beta virt. eigenvalues --    0.57306   0.59510   0.63919   0.68769   0.72161
  Beta virt. eigenvalues --    0.77763   0.81859   0.82517   0.89341   0.94843
  Beta virt. eigenvalues --    0.99421   1.01230   1.03152   1.03617   1.05093
  Beta virt. eigenvalues --    1.06355   1.08258   1.09259   1.10038   1.13104
  Beta virt. eigenvalues --    1.16602   1.19710   1.22649   1.26882   1.34729
  Beta virt. eigenvalues --    1.38795   1.42580   1.45110   1.49116   1.50988
  Beta virt. eigenvalues --    1.53681   1.55741   1.59843   1.61296   1.64854
  Beta virt. eigenvalues --    1.69337   1.77316   1.85525   1.91166   1.96439
  Beta virt. eigenvalues --    2.00900   2.05073   2.08709   2.13082   2.26600
  Beta virt. eigenvalues --    2.32949   2.37559   2.48833   2.50336   2.55316
  Beta virt. eigenvalues --    2.60874   2.67536   2.67994   2.75573   2.93304
  Beta virt. eigenvalues --    2.97911   3.01651   3.13193   3.17900   3.21430
  Beta virt. eigenvalues --    3.31583   3.37657   3.43981   3.52353   3.53970
  Beta virt. eigenvalues --    3.65205   3.70033   3.74086   3.78309   3.88142
  Beta virt. eigenvalues --    4.08585   4.10214   4.31434   4.52565   4.59158
  Beta virt. eigenvalues --    4.73679   4.80641   4.84503   4.94306   4.96191
  Beta virt. eigenvalues --    4.99424   4.99967   5.00704   5.00985   5.02142
  Beta virt. eigenvalues --    5.03381   5.05332   5.05663   5.06107   5.08541
  Beta virt. eigenvalues --    5.10237   5.10673   5.14080   5.17446   5.20162
  Beta virt. eigenvalues --    5.25508   5.31709   5.32991   5.38365   5.39887
  Beta virt. eigenvalues --    5.42767   5.49932   5.52819   5.66174   5.82622
  Beta virt. eigenvalues --    5.88442   6.12812   6.23032   6.36336   6.52331
  Beta virt. eigenvalues --    6.71646   6.71980   6.75123   6.76688   6.79421
  Beta virt. eigenvalues --    6.83831   6.84474   6.86818   6.90061   7.00606
  Beta virt. eigenvalues --    7.02867   7.05451   7.08858   7.13398   7.15846
  Beta virt. eigenvalues --    7.22974   7.29989   7.40585   7.51562   7.60194
  Beta virt. eigenvalues --    7.63503   7.78826   7.86606   7.90968  24.72732
  Beta virt. eigenvalues --   49.84367  49.94468  50.00792  50.24336
          Condensed to atoms (all electrons):
              1          2          3          4          5          6
     1  O    8.027114   0.131912   0.008368   0.018346   0.003326   0.000157
     2  H    0.131912   0.344957  -0.012013  -0.022379  -0.001049  -0.000215
     3  C    0.008368  -0.012013   4.752941   0.199088   0.423448   0.457489
     4  O    0.018346  -0.022379   0.199088   7.844448  -0.074928  -0.074258
     5  O    0.003326  -0.001049   0.423448  -0.074928   7.985117  -0.037421
     6  H    0.000157  -0.000215   0.457489  -0.074258  -0.037421   0.479437
     7  O    0.002297   0.176334  -0.039363   0.152443   0.024552   0.010351
              7
     1  O    0.002297
     2  H    0.176334
     3  C   -0.039363
     4  O    0.152443
     5  O    0.024552
     6  H    0.010351
     7  O    7.873016
 Mulliken atomic charges:
              1
     1  O   -0.191519
     2  H    0.382452
     3  C    0.210042
     4  O   -0.042760
     5  O   -0.323044
     6  H    0.164460
     7  O   -0.199631
 Sum of Mulliken atomic charges =   0.00000
 Mulliken charges with hydrogens summed into heavy atoms:
              1
     1  O   -0.191519
     3  C    0.374502
     4  O   -0.042760
     5  O   -0.323044
     7  O    0.182821
 Sum of Mulliken charges with hydrogens summed into heavy atoms =   0.00000
          Atomic-Atomic Spin Densities.
              1          2          3          4          5          6
     1  O    1.552133   0.019640   0.001624   0.010983  -0.007874  -0.000281
     2  H    0.019640  -0.116087   0.005321  -0.000101   0.000375   0.000061
     3  C    0.001624   0.005321  -0.024177   0.009062   0.003638   0.000807
     4  O    0.010983  -0.000101   0.009062   0.087949  -0.001225   0.000335
     5  O   -0.007874   0.000375   0.003638  -0.001225   0.040750  -0.000930
     6  H   -0.000281   0.000061   0.000807   0.000335  -0.000930  -0.000024
     7  O   -0.039396   0.032710  -0.005562  -0.042800   0.006008   0.000363
              7
     1  O   -0.039396
     2  H    0.032710
     3  C   -0.005562
     4  O   -0.042800
     5  O    0.006008
     6  H    0.000363
     7  O    0.473942
 Mulliken atomic spin densities:
              1
     1  O    1.536828
     2  H   -0.058081
     3  C   -0.009288
     4  O    0.064202
     5  O    0.040741
     6  H    0.000332
     7  O    0.425265
 Sum of Mulliken atomic spin densities =   2.00000
 Electronic spatial extent (au):  <R**2>=            378.2483
 Charge=              0.0000 electrons
 Dipole moment (field-independent basis, Debye):
    X=              1.8370    Y=              0.6619    Z=             -0.9217  Tot=              2.1592
 Quadrupole moment (field-independent basis, Debye-Ang):
   XX=            -23.9802   YY=            -31.9429   ZZ=            -28.1795
   XY=             -0.0930   XZ=             -2.1097   YZ=              1.0961
 Traceless Quadrupole moment (field-independent basis, Debye-Ang):
   XX=              4.0540   YY=             -3.9087   ZZ=             -0.1453
   XY=             -0.0930   XZ=             -2.1097   YZ=              1.0961
 Octapole moment (field-independent basis, Debye-Ang**2):
  XXX=              6.4459  YYY=              2.1678  ZZZ=              0.4014  XYY=             -2.8298
  XXY=              2.3538  XXZ=             -2.6646  XZZ=              0.7793  YZZ=              0.5548
  YYZ=             -0.5946  XYZ=              1.7179
 Hexadecapole moment (field-independent basis, Debye-Ang**3):
 XXXX=           -218.9097 YYYY=           -154.8249 ZZZZ=            -46.6538 XXXY=             -4.2453
 XXXZ=             -5.2239 YYYX=              5.5915 YYYZ=              1.8216 ZZZX=             -1.2068
 ZZZY=              0.1473 XXYY=            -68.2055 XXZZ=            -45.1296 YYZZ=            -33.4193
 XXYZ=              1.7858 YYXZ=              0.0212 ZZXY=             -0.5957
 N-N= 1.730714800938D+02 E-N=-1.705346551541D+03  KE= 5.053866262182D+02
                          Isotropic Fermi Contact Couplings
        Atom                 a.u.       MegaHertz       Gauss      10(-4) cm-1
     1  O(17)              0.14643     -44.38358     -15.83716     -14.80477
     2  H(1)              -0.04422     -98.82590     -35.26354     -32.96477
     3  C(13)             -0.00575      -3.23264      -1.15349      -1.07829
     4  O(17)              0.01579      -4.78463      -1.70728      -1.59598
     5  O(17)              0.02321      -7.03378      -2.50983      -2.34622
     6  H(1)               0.00023       0.52471       0.18723       0.17502
     7  O(17)              0.01654      -5.01283      -1.78870      -1.67210
 --------------------------------------------------------
       Center         ----  Spin Dipole Couplings  ----
                      3XX-RR        3YY-RR        3ZZ-RR
 --------------------------------------------------------
     1   Atom        1.100364      1.545846     -2.646210
     2   Atom       -0.017486      0.117433     -0.099948
     3   Atom        0.014590      0.004492     -0.019082
     4   Atom        0.025345      0.007867     -0.033212
     5   Atom        0.116746     -0.106931     -0.009815
     6   Atom        0.008546     -0.003060     -0.005486
     7   Atom       -0.224285      0.204875      0.019410
 --------------------------------------------------------
                        XY            XZ            YZ
 --------------------------------------------------------
     1   Atom       -0.927269      1.365490     -0.627075
     2   Atom        0.214240      0.123680      0.147383
     3   Atom       -0.007418     -0.012593     -0.009157
     4   Atom        0.209114      0.259427      0.198448
     5   Atom       -0.020085      0.120700     -0.004009
     6   Atom       -0.002124     -0.003453      0.001074
     7   Atom        0.979016      0.917367      1.122863
 --------------------------------------------------------


 ---------------------------------------------------------------------------------
              Anisotropic Spin Dipole Couplings in Principal Axis System
 ---------------------------------------------------------------------------------

       Atom             a.u.   MegaHertz   Gauss  10(-4) cm-1        Axes

              Baa    -3.1127   225.234    80.369    75.130 -0.2936  0.0699  0.9534
     1 O(17)  Bbb     0.4829   -34.942   -12.468   -11.655  0.6941  0.7013  0.1624
              Bcc     2.6298  -190.291   -67.901   -63.474 -0.6573  0.7094 -0.2544
 
              Baa    -0.1898  -101.245   -36.127   -33.772 -0.6702  0.1156  0.7331
     2 H(1)   Bbb    -0.1658   -88.465   -31.566   -29.509 -0.4957  0.6654 -0.5581
              Bcc     0.3556   189.710    67.693    63.280  0.5524  0.7375  0.3886
 
              Baa    -0.0272    -3.645    -1.301    -1.216  0.3260  0.3324  0.8850
     3 C(13)  Bbb     0.0070     0.945     0.337     0.315  0.1967  0.8918 -0.4074
              Bcc     0.0201     2.700     0.963     0.901  0.9247 -0.3069 -0.2254
 
              Baa    -0.2657    19.223     6.859     6.412 -0.6329 -0.0752  0.7706
     4 O(17)  Bbb    -0.1808    13.085     4.669     4.365 -0.4654  0.8323 -0.3011
              Bcc     0.4465   -32.308   -11.528   -10.777  0.6187  0.5491  0.5618
 
              Baa    -0.1100     7.956     2.839     2.654  0.1815  0.9667 -0.1801
     5 O(17)  Bbb    -0.0810     5.864     2.092     1.956 -0.4863  0.2474  0.8380
              Bcc     0.1910   -13.820    -4.931    -4.610  0.8547 -0.0646  0.5150
 
              Baa    -0.0064    -3.413    -1.218    -1.138  0.1962 -0.1851  0.9629
     6 H(1)   Bbb    -0.0034    -1.799    -0.642    -0.600  0.2135  0.9665  0.1422
              Bcc     0.0098     5.211     1.859     1.738  0.9570 -0.1777 -0.2292
 
              Baa    -1.0282    74.400    26.548    24.817 -0.6933 -0.0995  0.7138
     7 O(17)  Bbb    -1.0072    72.878    26.005    24.310 -0.5086  0.7692 -0.3868
              Bcc     2.0354  -147.278   -52.553   -49.127  0.5105  0.6312  0.5839
 

 ---------------------------------------------------------------------------------



 Where a calculator on the ENIAC is equipped with 18,000
 vacuum tubes and weighs 30 tons, computers inthe future
 may  have only 1,000 vacuum tubes and weigh only 1 1/2 tons.
              ---Popular Mechanics, March 1949
 Error termination request processed by link 9999.
 Error termination via Lnk1e in /shared/apps/gaussian/G09_LINUX_LINDA/g09/l9999.exe at Tue Aug  1 07:15:29 2017.
 Job cpu time:  0 days 14 hours 43 minutes 25.6 seconds.
 File lengths (MBytes):  RWF=   1376 Int=      0 D2E=      0 Chk=     32 Scr=     32
