 Entering Gaussian System, Link 0=/shared/apps/gaussian/G09_LINUX_LINDA/g09/g09
 Input=/gss_gpfs_scratch/harms.n/QMscratch/[OH]+[O]C1C=CC=CC=1_OC1C=CC=CC=1+[O]RxnC.gjf
 Output=/gss_gpfs_scratch/harms.n/QMscratch/[OH]+[O]C1C=CC=CC=1_OC1C=CC=CC=1+[O]RxnC.log
 Initial command:
 /shared/apps/gaussian/G09_LINUX_LINDA/g09/l1.exe /gss_gpfs_scratch/harms.n/comparerTST/Gau-22367.inp -scrdir=/gss_gpfs_scratch/harms.n/comparerTST/
 Entering Link 1 = /shared/apps/gaussian/G09_LINUX_LINDA/g09/l1.exe PID=     22368.
  
 Copyright (c) 1988,1990,1992,1993,1995,1998,2003,2009,2010,
            Gaussian, Inc.  All Rights Reserved.
  
 This is part of the Gaussian(R) 09 program.  It is based on
 the Gaussian(R) 03 system (copyright 2003, Gaussian, Inc.),
 the Gaussian(R) 98 system (copyright 1998, Gaussian, Inc.),
 the Gaussian(R) 94 system (copyright 1995, Gaussian, Inc.),
 the Gaussian 92(TM) system (copyright 1992, Gaussian, Inc.),
 the Gaussian 90(TM) system (copyright 1990, Gaussian, Inc.),
 the Gaussian 88(TM) system (copyright 1988, Gaussian, Inc.),
 the Gaussian 86(TM) system (copyright 1986, Carnegie Mellon
 University), and the Gaussian 82(TM) system (copyright 1983,
 Carnegie Mellon University). Gaussian is a federally registered
 trademark of Gaussian, Inc.
  
 This software contains proprietary and confidential information,
 including trade secrets, belonging to Gaussian, Inc.
  
 This software is provided under written license and may be
 used, copied, transmitted, or stored only in accord with that
 written license.
  
 The following legend is applicable only to US Government
 contracts under FAR:
  
                    RESTRICTED RIGHTS LEGEND
  
 Use, reproduction and disclosure by the US Government is
 subject to restrictions as set forth in subparagraphs (a)
 and (c) of the Commercial Computer Software - Restricted
 Rights clause in FAR 52.227-19.
  
 Gaussian, Inc.
 340 Quinnipiac St., Bldg. 40, Wallingford CT 06492
  
  
 ---------------------------------------------------------------
 Warning -- This program may not be used in any manner that
 competes with the business of Gaussian, Inc. or will provide
 assistance to any competitor of Gaussian, Inc.  The licensee
 of this program is prohibited from giving any competitor of
 Gaussian, Inc. access to this program.  By using this program,
 the user acknowledges that Gaussian, Inc. is engaged in the
 business of creating and licensing software in the field of
 computational chemistry and represents and warrants to the
 licensee that it is not a competitor of Gaussian, Inc. and that
 it will not use this program in any manner prohibited above.
 ---------------------------------------------------------------
  

 Cite this work as:
 Gaussian 09, Revision B.01,
 M. J. Frisch, G. W. Trucks, H. B. Schlegel, G. E. Scuseria, 
 M. A. Robb, J. R. Cheeseman, G. Scalmani, V. Barone, B. Mennucci, 
 G. A. Petersson, H. Nakatsuji, M. Caricato, X. Li, H. P. Hratchian, 
 A. F. Izmaylov, J. Bloino, G. Zheng, J. L. Sonnenberg, M. Hada, 
 M. Ehara, K. Toyota, R. Fukuda, J. Hasegawa, M. Ishida, T. Nakajima, 
 Y. Honda, O. Kitao, H. Nakai, T. Vreven, J. A. Montgomery, Jr., 
 J. E. Peralta, F. Ogliaro, M. Bearpark, J. J. Heyd, E. Brothers, 
 K. N. Kudin, V. N. Staroverov, T. Keith, R. Kobayashi, J. Normand, 
 K. Raghavachari, A. Rendell, J. C. Burant, S. S. Iyengar, J. Tomasi, 
 M. Cossi, N. Rega, J. M. Millam, M. Klene, J. E. Knox, J. B. Cross, 
 V. Bakken, C. Adamo, J. Jaramillo, R. Gomperts, R. E. Stratmann, 
 O. Yazyev, A. J. Austin, R. Cammi, C. Pomelli, J. W. Ochterski, 
 R. L. Martin, K. Morokuma, V. G. Zakrzewski, G. A. Voth, 
 P. Salvador, J. J. Dannenberg, S. Dapprich, A. D. Daniels, 
 O. Farkas, J. B. Foresman, J. V. Ortiz, J. Cioslowski, 
 and D. J. Fox, Gaussian, Inc., Wallingford CT, 2010.
 
 ******************************************
 Gaussian 09:  EM64L-G09RevB.01 12-Aug-2010
                20-Aug-2017 
 ******************************************
 %nprocshared=20
 Will use up to   20 processors via shared memory.
 %mem=5GB
 ---------------------------------------------------
 # m062x/6-311+g(2df,2p) opt=(ts,calcfc,noeigentest)
 ---------------------------------------------------
 1/5=1,10=4,11=1,14=-1,18=20,26=3,38=1/1,3;
 2/9=110,12=2,17=6,18=5,40=1/2;
 3/5=4,6=6,7=214,11=2,16=1,25=1,30=1,71=2,74=-55/1,2,3;
 4//1;
 5/5=2,38=5/2;
 8/6=4,10=90,11=11/1;
 11/6=1,8=1,9=11,15=111,16=1/1,2,10;
 10/6=1,7=6,13=1/2;
 6/7=2,8=2,9=2,10=2,28=1/1;
 7/10=1,18=20,25=1/1,2,3,16;
 1/5=1,10=4,11=1,14=-1,18=20/3(2);
 2/9=110/2;
 99//99;
 2/9=110/2;
 3/5=4,6=6,7=214,11=2,16=1,25=1,30=1,71=1,74=-55/1,2,3;
 4/5=5,16=3/1;
 5/5=2,38=5/2;
 7//1,2,3,16;
 1/5=1,11=1,14=-1,18=20/3(-5);
 2/9=110/2;
 6/7=2,8=2,9=2,10=2,19=2,28=1/1;
 99/9=1/99;
 ------------------------------------
 [OH]+[O]C1C=CC=CC=1_OC1C=CC=CC=1+[O]
 ------------------------------------
 Symbolic Z-matrix:
 Charge =  0 Multiplicity = 3
 O                    -3.01897   0.49688   0.68829 
 H                    -2.44403  -0.16986  -0.12179 
 C                    -0.40137  -0.37604  -0.28311 
 C                     0.59057  -1.32094   0.07353 
 C                     1.88291  -0.90287   0.29057 
 C                     2.20301   0.45411   0.19351 
 C                     1.22102   1.40211  -0.1132 
 C                    -0.07165   1.00057  -0.34851 
 O                    -1.59235  -0.78786  -0.57419 
 H                     0.29409  -2.35667   0.15441 
 H                     2.65051  -1.61704   0.5513 
 H                     3.22364   0.77503   0.3551 
 H                     1.48166   2.45013  -0.15851 
 H                    -0.86224   1.70465  -0.57009 
 

 GradGradGradGradGradGradGradGradGradGradGradGradGradGradGradGradGradGrad
 Berny optimization.
 Initialization pass.
                           ----------------------------
                           !    Initial Parameters    !
                           ! (Angstroms and Degrees)  !
 --------------------------                            --------------------------
 ! Name  Definition              Value          Derivative Info.                !
 --------------------------------------------------------------------------------
 ! R1    R(1,2)                  1.1964         calculate D2E/DX2 analytically  !
 ! R2    R(2,9)                  1.1454         calculate D2E/DX2 analytically  !
 ! R3    R(3,4)                  1.4156         calculate D2E/DX2 analytically  !
 ! R4    R(3,8)                  1.4171         calculate D2E/DX2 analytically  !
 ! R5    R(3,9)                  1.2934         calculate D2E/DX2 analytically  !
 ! R6    R(4,5)                  1.3755         calculate D2E/DX2 analytically  !
 ! R7    R(4,10)                 1.0804         calculate D2E/DX2 analytically  !
 ! R8    R(5,6)                  1.3976         calculate D2E/DX2 analytically  !
 ! R9    R(5,11)                 1.0804         calculate D2E/DX2 analytically  !
 ! R10   R(6,7)                  1.399          calculate D2E/DX2 analytically  !
 ! R11   R(6,12)                 1.082          calculate D2E/DX2 analytically  !
 ! R12   R(7,8)                  1.3739         calculate D2E/DX2 analytically  !
 ! R13   R(7,13)                 1.0809         calculate D2E/DX2 analytically  !
 ! R14   R(8,14)                 1.0816         calculate D2E/DX2 analytically  !
 ! A1    A(1,2,9)              157.7375         calculate D2E/DX2 analytically  !
 ! A2    A(4,3,8)              119.803          calculate D2E/DX2 analytically  !
 ! A3    A(4,3,9)              119.3021         calculate D2E/DX2 analytically  !
 ! A4    A(8,3,9)              120.8771         calculate D2E/DX2 analytically  !
 ! A5    A(3,4,5)              119.6841         calculate D2E/DX2 analytically  !
 ! A6    A(3,4,10)             117.8059         calculate D2E/DX2 analytically  !
 ! A7    A(5,4,10)             122.5071         calculate D2E/DX2 analytically  !
 ! A8    A(4,5,6)              119.956          calculate D2E/DX2 analytically  !
 ! A9    A(4,5,11)             120.311          calculate D2E/DX2 analytically  !
 ! A10   A(6,5,11)             119.7261         calculate D2E/DX2 analytically  !
 ! A11   A(5,6,7)              120.8243         calculate D2E/DX2 analytically  !
 ! A12   A(5,6,12)             119.58           calculate D2E/DX2 analytically  !
 ! A13   A(7,6,12)             119.5955         calculate D2E/DX2 analytically  !
 ! A14   A(6,7,8)              119.9965         calculate D2E/DX2 analytically  !
 ! A15   A(6,7,13)             119.7995         calculate D2E/DX2 analytically  !
 ! A16   A(8,7,13)             120.203          calculate D2E/DX2 analytically  !
 ! A17   A(3,8,7)              119.6655         calculate D2E/DX2 analytically  !
 ! A18   A(3,8,14)             118.149          calculate D2E/DX2 analytically  !
 ! A19   A(7,8,14)             122.1787         calculate D2E/DX2 analytically  !
 ! A20   A(2,9,3)              115.0885         calculate D2E/DX2 analytically  !
 ! D1    D(1,2,9,3)            -35.3861         calculate D2E/DX2 analytically  !
 ! D2    D(8,3,4,5)             -3.1504         calculate D2E/DX2 analytically  !
 ! D3    D(8,3,4,10)           177.4535         calculate D2E/DX2 analytically  !
 ! D4    D(9,3,4,5)            175.3261         calculate D2E/DX2 analytically  !
 ! D5    D(9,3,4,10)            -4.07           calculate D2E/DX2 analytically  !
 ! D6    D(4,3,8,7)              2.3956         calculate D2E/DX2 analytically  !
 ! D7    D(4,3,8,14)          -176.6804         calculate D2E/DX2 analytically  !
 ! D8    D(9,3,8,7)           -176.0564         calculate D2E/DX2 analytically  !
 ! D9    D(9,3,8,14)             4.8676         calculate D2E/DX2 analytically  !
 ! D10   D(4,3,9,2)            136.6324         calculate D2E/DX2 analytically  !
 ! D11   D(8,3,9,2)            -44.9079         calculate D2E/DX2 analytically  !
 ! D12   D(3,4,5,6)              1.7093         calculate D2E/DX2 analytically  !
 ! D13   D(3,4,5,11)          -179.246          calculate D2E/DX2 analytically  !
 ! D14   D(10,4,5,6)          -178.9241         calculate D2E/DX2 analytically  !
 ! D15   D(10,4,5,11)            0.1205         calculate D2E/DX2 analytically  !
 ! D16   D(4,5,6,7)              0.4878         calculate D2E/DX2 analytically  !
 ! D17   D(4,5,6,12)          -179.3523         calculate D2E/DX2 analytically  !
 ! D18   D(11,5,6,7)          -178.5625         calculate D2E/DX2 analytically  !
 ! D19   D(11,5,6,12)            1.5974         calculate D2E/DX2 analytically  !
 ! D20   D(5,6,7,8)             -1.2504         calculate D2E/DX2 analytically  !
 ! D21   D(5,6,7,13)           178.3926         calculate D2E/DX2 analytically  !
 ! D22   D(12,6,7,8)           178.5897         calculate D2E/DX2 analytically  !
 ! D23   D(12,6,7,13)           -1.7673         calculate D2E/DX2 analytically  !
 ! D24   D(6,7,8,3)             -0.2129         calculate D2E/DX2 analytically  !
 ! D25   D(6,7,8,14)           178.8246         calculate D2E/DX2 analytically  !
 ! D26   D(13,7,8,3)          -179.8544         calculate D2E/DX2 analytically  !
 ! D27   D(13,7,8,14)           -0.817          calculate D2E/DX2 analytically  !
 --------------------------------------------------------------------------------
 Trust Radius=3.00D-01 FncErr=1.00D-07 GrdErr=1.00D-06
 Number of steps in this run=     71 maximum allowed number of steps=    100.
 Search for a saddle point of order  1.
 GradGradGradGradGradGradGradGradGradGradGradGradGradGradGradGradGradGrad

                          Input orientation:                          
 ---------------------------------------------------------------------
 Center     Atomic      Atomic             Coordinates (Angstroms)
 Number     Number       Type             X           Y           Z
 ---------------------------------------------------------------------
      1          8           0       -3.018966    0.496881    0.688294
      2          1           0       -2.444029   -0.169862   -0.121787
      3          6           0       -0.401371   -0.376042   -0.283106
      4          6           0        0.590569   -1.320944    0.073526
      5          6           0        1.882911   -0.902868    0.290573
      6          6           0        2.203011    0.454112    0.193506
      7          6           0        1.221022    1.402105   -0.113202
      8          6           0       -0.071652    1.000569   -0.348506
      9          8           0       -1.592354   -0.787860   -0.574188
     10          1           0        0.294089   -2.356674    0.154413
     11          1           0        2.650512   -1.617036    0.551299
     12          1           0        3.223638    0.775030    0.355095
     13          1           0        1.481658    2.450130   -0.158509
     14          1           0       -0.862235    1.704651   -0.570094
 ---------------------------------------------------------------------
                    Distance matrix (angstroms):
                    1          2          3          4          5
     1  O    0.000000
     2  H    1.196382   0.000000
     3  C    2.925306   2.059365   0.000000
     4  C    4.087930   3.251449   1.415617   0.000000
     5  C    5.113304   4.407919   2.413420   1.375516   0.000000
     6  C    5.245540   4.699333   2.774729   2.401081   1.397598
     7  C    4.409005   3.987951   2.413055   2.801309   2.431878
     8  C    3.164698   2.655086   1.417057   2.450729   2.802108
     9  O    2.297747   1.145399   1.293354   2.338560   3.583086
    10  H    4.405013   3.515071   2.144293   1.080361   2.157880
    11  H    6.052305   5.338699   3.398571   2.135252   1.080382
    12  H    6.257675   5.765647   3.856547   3.377194   2.148733
    13  H    4.978742   4.719823   3.398319   3.881865   3.406651
    14  H    2.773759   2.493361   2.150358   3.417471   3.882748
                    6          7          8          9         10
     6  C    0.000000
     7  C    1.398951   0.000000
     8  C    2.401350   1.373901   0.000000
     9  O    4.066527   3.594932   2.358378   0.000000
    10  H    3.397945   3.880624   3.414348   2.559434   0.000000
    11  H    2.148936   3.405909   3.882226   4.467232   2.501462
    12  H    1.082025   2.150115   3.377108   5.147812   4.293029
    13  H    2.151361   1.080898   2.133096   4.484074   4.961210
    14  H    3.397450   2.154123   1.081598   2.597249   4.284432
                   11         12         13         14
    11  H    0.000000
    12  H    2.467580   0.000000
    13  H    4.290907   2.470677   0.000000
    14  H    4.962914   4.291215   2.493787   0.000000
 Stoichiometry    C6H6O2(3)
 Framework group  C1[X(C6H6O2)]
 Deg. of freedom    36
 Full point group                 C1      NOp   1
 Largest Abelian subgroup         C1      NOp   1
 Largest concise Abelian subgroup C1      NOp   1
                         Standard orientation:                         
 ---------------------------------------------------------------------
 Center     Atomic      Atomic             Coordinates (Angstroms)
 Number     Number       Type             X           Y           Z
 ---------------------------------------------------------------------
      1          8           0       -3.018966    0.496881    0.688294
      2          1           0       -2.444029   -0.169862   -0.121787
      3          6           0       -0.401371   -0.376042   -0.283106
      4          6           0        0.590569   -1.320944    0.073526
      5          6           0        1.882911   -0.902868    0.290573
      6          6           0        2.203011    0.454112    0.193506
      7          6           0        1.221022    1.402105   -0.113202
      8          6           0       -0.071652    1.000569   -0.348506
      9          8           0       -1.592354   -0.787860   -0.574188
     10          1           0        0.294089   -2.356674    0.154413
     11          1           0        2.650512   -1.617036    0.551299
     12          1           0        3.223638    0.775030    0.355095
     13          1           0        1.481658    2.450130   -0.158509
     14          1           0       -0.862235    1.704651   -0.570094
 ---------------------------------------------------------------------
 Rotational constants (GHZ):      4.2129356      1.4221598      1.1487074
 Standard basis: 6-311+G(2df,2p) (5D, 7F)
 There are   326 symmetry adapted basis functions of A   symmetry.
 Integral buffers will be    131072 words long.
 Raffenetti 2 integral format.
 Two-electron integral symmetry is turned on.
   326 basis functions,   482 primitive gaussians,   366 cartesian basis functions
    30 alpha electrons       28 beta electrons
       nuclear repulsion energy       333.4813551777 Hartrees.
 NAtoms=   14 NActive=   14 NUniq=   14 SFac= 1.00D+00 NAtFMM=   50 NAOKFM=F Big=F
 One-electron integrals computed using PRISM.
 NBasis=   326 RedAO= T  NBF=   326
 NBsUse=   326 1.00D-06 NBFU=   326
 Harris functional with IExCor= 1009 diagonalized for initial guess.
 ExpMin= 4.38D-02 ExpMax= 8.59D+03 ExpMxC= 1.30D+03 IAcc=2 IRadAn=         0 AccDes= 0.00D+00
 HarFok:  IExCor= 1009 AccDes= 0.00D+00 IRadAn=         0 IDoV= 1
 ScaDFX=  1.000000  1.000000  1.000000  1.000000
 FoFCou: FMM=F IPFlag=           0 FMFlag=      100000 FMFlg1=           0
         NFxFlg=           0 DoJE=T BraDBF=F KetDBF=T FulRan=T
         Omega=  0.000000  0.000000  1.000000  0.000000  0.000000 ICntrl=     500 IOpCl=  0
         NMat0=    1 NMatS0=    1 NMatT0=    0 NMatD0=    1 NMtDS0=    0 NMtDT0=    0
         I1Cent=           4 NGrid=           0.
 Petite list used in FoFCou.
 Initial guess orbital symmetries:
 Alpha Orbitals:
       Occupied  (A) (A) (A) (A) (A) (A) (A) (A) (A) (A) (A) (A)
                 (A) (A) (A) (A) (A) (A) (A) (A) (A) (A) (A) (A)
                 (A) (A) (A) (A) (A) (A)
       Virtual   (A) (A) (A) (A) (A) (A) (A) (A) (A) (A) (A) (A)
                 (A) (A) (A) (A) (A) (A) (A) (A) (A) (A) (A) (A)
                 (A) (A) (A) (A) (A) (A) (A) (A) (A) (A) (A) (A)
                 (A) (A) (A) (A) (A) (A) (A) (A) (A) (A) (A) (A)
                 (A) (A) (A) (A) (A) (A) (A) (A) (A) (A) (A) (A)
                 (A) (A) (A) (A) (A) (A) (A) (A) (A) (A) (A) (A)
                 (A) (A) (A) (A) (A) (A) (A) (A) (A) (A) (A) (A)
                 (A) (A) (A) (A) (A) (A) (A) (A) (A) (A) (A) (A)
                 (A) (A) (A) (A) (A) (A) (A) (A) (A) (A) (A) (A)
                 (A) (A) (A) (A) (A) (A) (A) (A) (A) (A) (A) (A)
                 (A) (A) (A) (A) (A) (A) (A) (A) (A) (A) (A) (A)
                 (A) (A) (A) (A) (A) (A) (A) (A) (A) (A) (A) (A)
                 (A) (A) (A) (A) (A) (A) (A) (A) (A) (A) (A) (A)
                 (A) (A) (A) (A) (A) (A) (A) (A) (A) (A) (A) (A)
                 (A) (A) (A) (A) (A) (A) (A) (A) (A) (A) (A) (A)
                 (A) (A) (A) (A) (A) (A) (A) (A) (A) (A) (A) (A)
                 (A) (A) (A) (A) (A) (A) (A) (A) (A) (A) (A) (A)
                 (A) (A) (A) (A) (A) (A) (A) (A) (A) (A) (A) (A)
                 (A) (A) (A) (A) (A) (A) (A) (A) (A) (A) (A) (A)
                 (A) (A) (A) (A) (A) (A) (A) (A) (A) (A) (A) (A)
                 (A) (A) (A) (A) (A) (A) (A) (A) (A) (A) (A) (A)
                 (A) (A) (A) (A) (A) (A) (A) (A) (A) (A) (A) (A)
                 (A) (A) (A) (A) (A) (A) (A) (A) (A) (A) (A) (A)
                 (A) (A) (A) (A) (A) (A) (A) (A) (A) (A) (A) (A)
                 (A) (A) (A) (A) (A) (A) (A) (A)
 Beta  Orbitals:
       Occupied  (A) (A) (A) (A) (A) (A) (A) (A) (A) (A) (A) (A)
                 (A) (A) (A) (A) (A) (A) (A) (A) (A) (A) (A) (A)
                 (A) (A) (A) (A)
       Virtual   (A) (A) (A) (A) (A) (A) (A) (A) (A) (A) (A) (A)
                 (A) (A) (A) (A) (A) (A) (A) (A) (A) (A) (A) (A)
                 (A) (A) (A) (A) (A) (A) (A) (A) (A) (A) (A) (A)
                 (A) (A) (A) (A) (A) (A) (A) (A) (A) (A) (A) (A)
                 (A) (A) (A) (A) (A) (A) (A) (A) (A) (A) (A) (A)
                 (A) (A) (A) (A) (A) (A) (A) (A) (A) (A) (A) (A)
                 (A) (A) (A) (A) (A) (A) (A) (A) (A) (A) (A) (A)
                 (A) (A) (A) (A) (A) (A) (A) (A) (A) (A) (A) (A)
                 (A) (A) (A) (A) (A) (A) (A) (A) (A) (A) (A) (A)
                 (A) (A) (A) (A) (A) (A) (A) (A) (A) (A) (A) (A)
                 (A) (A) (A) (A) (A) (A) (A) (A) (A) (A) (A) (A)
                 (A) (A) (A) (A) (A) (A) (A) (A) (A) (A) (A) (A)
                 (A) (A) (A) (A) (A) (A) (A) (A) (A) (A) (A) (A)
                 (A) (A) (A) (A) (A) (A) (A) (A) (A) (A) (A) (A)
                 (A) (A) (A) (A) (A) (A) (A) (A) (A) (A) (A) (A)
                 (A) (A) (A) (A) (A) (A) (A) (A) (A) (A) (A) (A)
                 (A) (A) (A) (A) (A) (A) (A) (A) (A) (A) (A) (A)
                 (A) (A) (A) (A) (A) (A) (A) (A) (A) (A) (A) (A)
                 (A) (A) (A) (A) (A) (A) (A) (A) (A) (A) (A) (A)
                 (A) (A) (A) (A) (A) (A) (A) (A) (A) (A) (A) (A)
                 (A) (A) (A) (A) (A) (A) (A) (A) (A) (A) (A) (A)
                 (A) (A) (A) (A) (A) (A) (A) (A) (A) (A) (A) (A)
                 (A) (A) (A) (A) (A) (A) (A) (A) (A) (A) (A) (A)
                 (A) (A) (A) (A) (A) (A) (A) (A) (A) (A) (A) (A)
                 (A) (A) (A) (A) (A) (A) (A) (A) (A) (A)
 The electronic state of the initial guess is 3-A.
 Initial guess <Sx>= 0.0000 <Sy>= 0.0000 <Sz>= 1.0000 <S**2>= 2.0000 S= 1.0000
 Requested convergence on RMS density matrix=1.00D-08 within 128 cycles.
 Requested convergence on MAX density matrix=1.00D-06.
 Requested convergence on             energy=1.00D-06.
 No special actions if energy rises.
 Restarting incremental Fock formation.
 Restarting incremental Fock formation.
 SCF Done:  E(UM062X) =  -382.499030839     A.U. after   49 cycles
             Convg  =    0.3923D-08             -V/T =  2.0033
 <Sx>= 0.0000 <Sy>= 0.0000 <Sz>= 1.0000 <S**2>= 2.0324 S= 1.0108
 <L.S>= 0.000000000000E+00
 Annihilation of the first spin contaminant:
 S**2 before annihilation     2.0324,   after     2.0005
 Range of M.O.s used for correlation:     1   326
 NBasis=   326 NAE=    30 NBE=    28 NFC=     0 NFV=     0
 NROrb=    326 NOA=    30 NOB=    28 NVA=   296 NVB=   298

 **** Warning!!: The largest alpha MO coefficient is  0.11933312D+03


 **** Warning!!: The largest beta MO coefficient is  0.12923950D+03

 Symmetrizing basis deriv contribution to polar:
 IMax=3 JMax=2 DiffMx= 0.00D+00
 G2DrvN: will do    15 centers at a time, making    1 passes doing MaxLOS=3.
 Calling FoFCou, ICntrl=  3107 FMM=F I1Cent=   0 AccDes= 0.00D+00.
 FoFDir/FoFCou used for L=0 through L=3.
 End of G2Drv Frequency-dependent properties file   721 does not exist.
 End of G2Drv Frequency-dependent properties file   722 does not exist.
          IDoAtm=11111111111111
          Differentiating once with respect to nuclear coordinates.
          There are    45 degrees of freedom in the 1st order CPHF.  IDoFFX=5.
     39 vectors produced by pass  0 Test12= 3.83D-10 2.22D-07 XBig12= 4.17D-01 3.21D-01.
 AX will form    39 AO Fock derivatives at one time.
     39 vectors produced by pass  1 Test12= 3.83D-10 2.22D-07 XBig12= 1.15D-01 8.27D-02.
     39 vectors produced by pass  2 Test12= 3.83D-10 2.22D-07 XBig12= 4.36D-03 1.22D-02.
     39 vectors produced by pass  3 Test12= 3.83D-10 2.22D-07 XBig12= 7.88D-05 3.15D-03.
     39 vectors produced by pass  4 Test12= 3.83D-10 2.22D-07 XBig12= 1.32D-06 1.92D-04.
     34 vectors produced by pass  5 Test12= 3.83D-10 2.22D-07 XBig12= 1.50D-08 1.36D-05.
      9 vectors produced by pass  6 Test12= 3.83D-10 2.22D-07 XBig12= 1.59D-10 2.37D-06.
 Inverted reduced A of dimension   238 with in-core refinement.
 End of Minotr Frequency-dependent properties file   721 does not exist.
 End of Minotr Frequency-dependent properties file   722 does not exist.

 **********************************************************************

            Population analysis using the SCF density.

 **********************************************************************

 Orbital symmetries:
 Alpha Orbitals:
       Occupied  (A) (A) (A) (A) (A) (A) (A) (A) (A) (A) (A) (A)
                 (A) (A) (A) (A) (A) (A) (A) (A) (A) (A) (A) (A)
                 (A) (A) (A) (A) (A) (A)
       Virtual   (A) (A) (A) (A) (A) (A) (A) (A) (A) (A) (A) (A)
                 (A) (A) (A) (A) (A) (A) (A) (A) (A) (A) (A) (A)
                 (A) (A) (A) (A) (A) (A) (A) (A) (A) (A) (A) (A)
                 (A) (A) (A) (A) (A) (A) (A) (A) (A) (A) (A) (A)
                 (A) (A) (A) (A) (A) (A) (A) (A) (A) (A) (A) (A)
                 (A) (A) (A) (A) (A) (A) (A) (A) (A) (A) (A) (A)
                 (A) (A) (A) (A) (A) (A) (A) (A) (A) (A) (A) (A)
                 (A) (A) (A) (A) (A) (A) (A) (A) (A) (A) (A) (A)
                 (A) (A) (A) (A) (A) (A) (A) (A) (A) (A) (A) (A)
                 (A) (A) (A) (A) (A) (A) (A) (A) (A) (A) (A) (A)
                 (A) (A) (A) (A) (A) (A) (A) (A) (A) (A) (A) (A)
                 (A) (A) (A) (A) (A) (A) (A) (A) (A) (A) (A) (A)
                 (A) (A) (A) (A) (A) (A) (A) (A) (A) (A) (A) (A)
                 (A) (A) (A) (A) (A) (A) (A) (A) (A) (A) (A) (A)
                 (A) (A) (A) (A) (A) (A) (A) (A) (A) (A) (A) (A)
                 (A) (A) (A) (A) (A) (A) (A) (A) (A) (A) (A) (A)
                 (A) (A) (A) (A) (A) (A) (A) (A) (A) (A) (A) (A)
                 (A) (A) (A) (A) (A) (A) (A) (A) (A) (A) (A) (A)
                 (A) (A) (A) (A) (A) (A) (A) (A) (A) (A) (A) (A)
                 (A) (A) (A) (A) (A) (A) (A) (A) (A) (A) (A) (A)
                 (A) (A) (A) (A) (A) (A) (A) (A) (A) (A) (A) (A)
                 (A) (A) (A) (A) (A) (A) (A) (A) (A) (A) (A) (A)
                 (A) (A) (A) (A) (A) (A) (A) (A) (A) (A) (A) (A)
                 (A) (A) (A) (A) (A) (A) (A) (A) (A) (A) (A) (A)
                 (A) (A) (A) (A) (A) (A) (A) (A)
 Beta  Orbitals:
       Occupied  (A) (A) (A) (A) (A) (A) (A) (A) (A) (A) (A) (A)
                 (A) (A) (A) (A) (A) (A) (A) (A) (A) (A) (A) (A)
                 (A) (A) (A) (A)
       Virtual   (A) (A) (A) (A) (A) (A) (A) (A) (A) (A) (A) (A)
                 (A) (A) (A) (A) (A) (A) (A) (A) (A) (A) (A) (A)
                 (A) (A) (A) (A) (A) (A) (A) (A) (A) (A) (A) (A)
                 (A) (A) (A) (A) (A) (A) (A) (A) (A) (A) (A) (A)
                 (A) (A) (A) (A) (A) (A) (A) (A) (A) (A) (A) (A)
                 (A) (A) (A) (A) (A) (A) (A) (A) (A) (A) (A) (A)
                 (A) (A) (A) (A) (A) (A) (A) (A) (A) (A) (A) (A)
                 (A) (A) (A) (A) (A) (A) (A) (A) (A) (A) (A) (A)
                 (A) (A) (A) (A) (A) (A) (A) (A) (A) (A) (A) (A)
                 (A) (A) (A) (A) (A) (A) (A) (A) (A) (A) (A) (A)
                 (A) (A) (A) (A) (A) (A) (A) (A) (A) (A) (A) (A)
                 (A) (A) (A) (A) (A) (A) (A) (A) (A) (A) (A) (A)
                 (A) (A) (A) (A) (A) (A) (A) (A) (A) (A) (A) (A)
                 (A) (A) (A) (A) (A) (A) (A) (A) (A) (A) (A) (A)
                 (A) (A) (A) (A) (A) (A) (A) (A) (A) (A) (A) (A)
                 (A) (A) (A) (A) (A) (A) (A) (A) (A) (A) (A) (A)
                 (A) (A) (A) (A) (A) (A) (A) (A) (A) (A) (A) (A)
                 (A) (A) (A) (A) (A) (A) (A) (A) (A) (A) (A) (A)
                 (A) (A) (A) (A) (A) (A) (A) (A) (A) (A) (A) (A)
                 (A) (A) (A) (A) (A) (A) (A) (A) (A) (A) (A) (A)
                 (A) (A) (A) (A) (A) (A) (A) (A) (A) (A) (A) (A)
                 (A) (A) (A) (A) (A) (A) (A) (A) (A) (A) (A) (A)
                 (A) (A) (A) (A) (A) (A) (A) (A) (A) (A) (A) (A)
                 (A) (A) (A) (A) (A) (A) (A) (A) (A) (A) (A) (A)
                 (A) (A) (A) (A) (A) (A) (A) (A) (A) (A)
 The electronic state is 3-A.
 Alpha  occ. eigenvalues --  -19.67257 -19.62832 -10.64190 -10.59404 -10.58427
 Alpha  occ. eigenvalues --  -10.58326 -10.58160 -10.58074  -1.21622  -1.04865
 Alpha  occ. eigenvalues --   -0.99793  -0.89115  -0.86765  -0.73938  -0.72258
 Alpha  occ. eigenvalues --   -0.65200  -0.61483  -0.58247  -0.55974  -0.53895
 Alpha  occ. eigenvalues --   -0.53280  -0.48779  -0.46579  -0.46145  -0.43859
 Alpha  occ. eigenvalues --   -0.43109  -0.38943  -0.37205  -0.35613  -0.31854
 Alpha virt. eigenvalues --   -0.01763  -0.00828   0.00057   0.01598   0.02468
 Alpha virt. eigenvalues --    0.04282   0.04522   0.05611   0.06911   0.08074
 Alpha virt. eigenvalues --    0.08277   0.08906   0.09709   0.12244   0.12812
 Alpha virt. eigenvalues --    0.13115   0.13510   0.14067   0.14453   0.14872
 Alpha virt. eigenvalues --    0.16537   0.17810   0.18378   0.19440   0.19884
 Alpha virt. eigenvalues --    0.19989   0.20813   0.21311   0.21843   0.22735
 Alpha virt. eigenvalues --    0.23152   0.23780   0.24991   0.26497   0.27044
 Alpha virt. eigenvalues --    0.28540   0.29430   0.30183   0.31719   0.32072
 Alpha virt. eigenvalues --    0.33561   0.35025   0.36219   0.37360   0.40169
 Alpha virt. eigenvalues --    0.41646   0.46221   0.46945   0.49378   0.51013
 Alpha virt. eigenvalues --    0.51775   0.52027   0.52228   0.53707   0.54520
 Alpha virt. eigenvalues --    0.54874   0.56383   0.59352   0.60962   0.61476
 Alpha virt. eigenvalues --    0.61711   0.62955   0.64002   0.64538   0.65391
 Alpha virt. eigenvalues --    0.66551   0.67643   0.68435   0.69349   0.69452
 Alpha virt. eigenvalues --    0.71396   0.71902   0.72413   0.74310   0.75973
 Alpha virt. eigenvalues --    0.77292   0.79757   0.80684   0.81402   0.83031
 Alpha virt. eigenvalues --    0.86193   0.87025   0.88518   0.94193   0.97019
 Alpha virt. eigenvalues --    0.98701   0.99617   1.02043   1.03970   1.04829
 Alpha virt. eigenvalues --    1.06944   1.07633   1.09279   1.12197   1.13026
 Alpha virt. eigenvalues --    1.14166   1.17288   1.17969   1.19263   1.19448
 Alpha virt. eigenvalues --    1.20183   1.20902   1.25135   1.27004   1.28784
 Alpha virt. eigenvalues --    1.29921   1.31729   1.32009   1.33299   1.33620
 Alpha virt. eigenvalues --    1.35073   1.36329   1.36759   1.38468   1.43952
 Alpha virt. eigenvalues --    1.44810   1.45831   1.46118   1.50824   1.55205
 Alpha virt. eigenvalues --    1.56577   1.58166   1.61772   1.64313   1.66991
 Alpha virt. eigenvalues --    1.68160   1.68307   1.69954   1.71896   1.73478
 Alpha virt. eigenvalues --    1.81860   1.86446   1.88406   1.90245   1.98229
 Alpha virt. eigenvalues --    1.98846   2.01977   2.06582   2.12537   2.29192
 Alpha virt. eigenvalues --    2.37973   2.41060   2.45847   2.48408   2.53883
 Alpha virt. eigenvalues --    2.54519   2.56695   2.59934   2.62977   2.65497
 Alpha virt. eigenvalues --    2.68137   2.69268   2.72025   2.73392   2.73872
 Alpha virt. eigenvalues --    2.74573   2.75662   2.76187   2.76400   2.79562
 Alpha virt. eigenvalues --    2.80635   2.81970   2.82818   2.83877   2.84951
 Alpha virt. eigenvalues --    2.86523   2.89717   2.92751   2.93415   2.98440
 Alpha virt. eigenvalues --    2.99823   3.02517   3.05693   3.06699   3.08430
 Alpha virt. eigenvalues --    3.10113   3.12732   3.13440   3.14361   3.17271
 Alpha virt. eigenvalues --    3.19321   3.20800   3.23251   3.28177   3.29267
 Alpha virt. eigenvalues --    3.29556   3.29832   3.33337   3.33734   3.35578
 Alpha virt. eigenvalues --    3.38234   3.39478   3.40071   3.40591   3.44087
 Alpha virt. eigenvalues --    3.45042   3.47563   3.51206   3.54657   3.56088
 Alpha virt. eigenvalues --    3.59805   3.64874   3.66353   3.67586   3.68532
 Alpha virt. eigenvalues --    3.70805   3.72576   3.74544   3.77911   3.79835
 Alpha virt. eigenvalues --    3.80668   3.83842   3.85407   3.87896   3.90336
 Alpha virt. eigenvalues --    3.92262   3.94931   3.99497   4.00692   4.02169
 Alpha virt. eigenvalues --    4.03236   4.04303   4.08236   4.12500   4.13982
 Alpha virt. eigenvalues --    4.22378   4.22800   4.24285   4.31074   4.34096
 Alpha virt. eigenvalues --    4.34424   4.36673   4.38128   4.39278   4.40190
 Alpha virt. eigenvalues --    4.43201   4.46891   4.53170   4.56922   4.58193
 Alpha virt. eigenvalues --    4.61066   4.65711   4.68638   4.84973   4.89875
 Alpha virt. eigenvalues --    4.92864   4.97157   5.01534   5.03451   5.04939
 Alpha virt. eigenvalues --    5.05646   5.06163   5.06307   5.07192   5.08622
 Alpha virt. eigenvalues --    5.11956   5.14656   5.15891   5.18317   5.25184
 Alpha virt. eigenvalues --    5.28233   5.31863   5.37728   5.40763   5.52762
 Alpha virt. eigenvalues --    5.55494   5.58634   5.60754   5.68052   5.70087
 Alpha virt. eigenvalues --    5.75258   5.77815   6.02634   6.10583   6.31799
 Alpha virt. eigenvalues --    6.66001   6.69337   6.70655   6.80919   6.82631
 Alpha virt. eigenvalues --    6.89423   6.97921   7.09219   7.18786   7.30662
 Alpha virt. eigenvalues --    7.48730   7.70044   7.88899  23.84238  24.40232
 Alpha virt. eigenvalues --   24.50271  24.72270  24.72568  25.17030  49.98057
 Alpha virt. eigenvalues --   50.23631
  Beta  occ. eigenvalues --  -19.66524 -19.60775 -10.64231 -10.59246 -10.58328
  Beta  occ. eigenvalues --  -10.58229 -10.58213 -10.58125  -1.19414  -0.99430
  Beta  occ. eigenvalues --   -0.94650  -0.88882  -0.85685  -0.73546  -0.71571
  Beta  occ. eigenvalues --   -0.64052  -0.60118  -0.57745  -0.54283  -0.53131
  Beta  occ. eigenvalues --   -0.51377  -0.47258  -0.46119  -0.43753  -0.40566
  Beta  occ. eigenvalues --   -0.34972  -0.33408  -0.31138
  Beta virt. eigenvalues --   -0.15498  -0.04591  -0.00487   0.00043   0.01204
  Beta virt. eigenvalues --    0.01610   0.02558   0.04393   0.04608   0.05380
  Beta virt. eigenvalues --    0.06966   0.08021   0.08457   0.08930   0.09706
  Beta virt. eigenvalues --    0.12411   0.12927   0.13324   0.13659   0.14287
  Beta virt. eigenvalues --    0.14474   0.14703   0.16671   0.17963   0.18493
  Beta virt. eigenvalues --    0.19677   0.19816   0.20439   0.20801   0.21623
  Beta virt. eigenvalues --    0.22028   0.22711   0.23249   0.23895   0.25133
  Beta virt. eigenvalues --    0.26684   0.27251   0.28986   0.30065   0.30207
  Beta virt. eigenvalues --    0.32088   0.32482   0.33816   0.35222   0.36187
  Beta virt. eigenvalues --    0.37788   0.40526   0.42684   0.46637   0.47331
  Beta virt. eigenvalues --    0.49718   0.51315   0.51989   0.52366   0.52642
  Beta virt. eigenvalues --    0.53786   0.54811   0.55590   0.56911   0.59738
  Beta virt. eigenvalues --    0.61390   0.61673   0.62143   0.63294   0.64186
  Beta virt. eigenvalues --    0.64704   0.65771   0.66700   0.67977   0.68620
  Beta virt. eigenvalues --    0.69500   0.69632   0.71464   0.72149   0.72654
  Beta virt. eigenvalues --    0.74512   0.76230   0.77551   0.80016   0.80859
  Beta virt. eigenvalues --    0.81653   0.83300   0.86627   0.86961   0.88800
  Beta virt. eigenvalues --    0.94280   0.96963   0.98798   0.99744   1.02399
  Beta virt. eigenvalues --    1.03918   1.05039   1.07062   1.07991   1.09857
  Beta virt. eigenvalues --    1.12493   1.14342   1.16473   1.17797   1.18130
  Beta virt. eigenvalues --    1.19800   1.20262   1.20734   1.22308   1.25616
  Beta virt. eigenvalues --    1.27367   1.29066   1.30380   1.32010   1.32329
  Beta virt. eigenvalues --    1.33934   1.34152   1.35516   1.36883   1.37317
  Beta virt. eigenvalues --    1.38810   1.44355   1.45004   1.46297   1.46782
  Beta virt. eigenvalues --    1.52375   1.55985   1.58565   1.61636   1.63977
  Beta virt. eigenvalues --    1.66301   1.68057   1.68588   1.69017   1.70943
  Beta virt. eigenvalues --    1.72270   1.74748   1.82481   1.87305   1.89237
  Beta virt. eigenvalues --    1.92429   1.98664   1.99299   2.02201   2.07570
  Beta virt. eigenvalues --    2.13805   2.29946   2.38865   2.41504   2.47284
  Beta virt. eigenvalues --    2.48793   2.54066   2.55146   2.57422   2.60700
  Beta virt. eigenvalues --    2.64185   2.65740   2.68161   2.71618   2.72662
  Beta virt. eigenvalues --    2.74002   2.74194   2.75156   2.76050   2.76817
  Beta virt. eigenvalues --    2.76988   2.80527   2.81276   2.82750   2.83690
  Beta virt. eigenvalues --    2.84775   2.86217   2.87773   2.91492   2.93398
  Beta virt. eigenvalues --    2.94001   2.99555   3.00439   3.02949   3.06633
  Beta virt. eigenvalues --    3.07566   3.09122   3.10572   3.14019   3.14440
  Beta virt. eigenvalues --    3.15317   3.18508   3.19813   3.21525   3.23930
  Beta virt. eigenvalues --    3.29039   3.29928   3.30355   3.30536   3.34069
  Beta virt. eigenvalues --    3.34712   3.36096   3.39159   3.40379   3.41092
  Beta virt. eigenvalues --    3.41367   3.44763   3.45749   3.50148   3.51464
  Beta virt. eigenvalues --    3.55431   3.56649   3.60584   3.65580   3.67566
  Beta virt. eigenvalues --    3.68621   3.69462   3.71815   3.73341   3.75026
  Beta virt. eigenvalues --    3.78996   3.80478   3.81602   3.84524   3.85942
  Beta virt. eigenvalues --    3.88616   3.90758   3.92677   3.95738   4.00120
  Beta virt. eigenvalues --    4.01152   4.02762   4.03818   4.04800   4.08660
  Beta virt. eigenvalues --    4.12971   4.14749   4.22999   4.24051   4.24655
  Beta virt. eigenvalues --    4.32925   4.35777   4.36279   4.37717   4.39616
  Beta virt. eigenvalues --    4.40224   4.41136   4.44763   4.48260   4.54092
  Beta virt. eigenvalues --    4.58047   4.58741   4.62898   4.67009   4.69576
  Beta virt. eigenvalues --    4.86561   4.91117   4.94848   4.98939   5.03423
  Beta virt. eigenvalues --    5.05879   5.06388   5.09406   5.09633   5.10578
  Beta virt. eigenvalues --    5.12844   5.15239   5.15719   5.16739   5.19582
  Beta virt. eigenvalues --    5.21011   5.26274   5.29514   5.33848   5.38715
  Beta virt. eigenvalues --    5.42976   5.54377   5.57470   5.60008   5.62208
  Beta virt. eigenvalues --    5.69536   5.71550   5.76511   5.78676   6.04201
  Beta virt. eigenvalues --    6.11300   6.32958   6.66817   6.83416   6.84915
  Beta virt. eigenvalues --    6.85667   6.89443   6.97672   7.04665   7.14776
  Beta virt. eigenvalues --    7.25386   7.33754   7.53327   7.74359   7.91627
  Beta virt. eigenvalues --   23.84380  24.40443  24.50786  24.72470  24.72815
  Beta virt. eigenvalues --   25.17468  49.97201  50.22841
          Condensed to atoms (all electrons):
              1          2          3          4          5          6
     1  O    8.198412   0.215084   0.014117  -0.062597  -0.001285   0.000432
     2  H    0.215084   0.339546   0.033829   0.042896   0.005095  -0.002397
     3  C    0.014117   0.033829   6.397656  -0.265175  -0.058156  -0.218517
     4  C   -0.062597   0.042896  -0.265175   6.421880   0.410787   0.060899
     5  C   -0.001285   0.005095  -0.058156   0.410787   5.220021   0.433946
     6  C    0.000432  -0.002397  -0.218517   0.060899   0.433946   4.944637
     7  C    0.046861  -0.005568  -0.300273  -0.230132   0.210654   0.445474
     8  C    0.048546  -0.079670   0.200620  -0.683701  -0.340668   0.030860
     9  O   -0.069084   0.128575   0.456855  -0.236805  -0.018133  -0.010519
    10  H    0.000022  -0.000068   0.044605   0.323973   0.034769  -0.009944
    11  H   -0.000008   0.000000  -0.007717   0.033559   0.331654   0.028167
    12  H    0.000002  -0.000002   0.005003  -0.011178   0.028117   0.336053
    13  H    0.000034  -0.000018  -0.006945  -0.005296  -0.002725   0.023544
    14  H   -0.001960   0.004610   0.029417  -0.006295   0.002289  -0.008779
              7          8          9         10         11         12
     1  O    0.046861   0.048546  -0.069084   0.000022  -0.000008   0.000002
     2  H   -0.005568  -0.079670   0.128575  -0.000068   0.000000  -0.000002
     3  C   -0.300273   0.200620   0.456855   0.044605  -0.007717   0.005003
     4  C   -0.230132  -0.683701  -0.236805   0.323973   0.033559  -0.011178
     5  C    0.210654  -0.340668  -0.018133   0.034769   0.331654   0.028117
     6  C    0.445474   0.030860  -0.010519  -0.009944   0.028167   0.336053
     7  C    5.827328  -0.064587  -0.015291   0.002631  -0.007249   0.029882
     8  C   -0.064587   6.404108  -0.129377  -0.008128   0.001762  -0.011231
     9  O   -0.015291  -0.129377   8.194518  -0.001158  -0.000173   0.000062
    10  H    0.002631  -0.008128  -0.001158   0.445690  -0.006112  -0.000034
    11  H   -0.007249   0.001762  -0.000173  -0.006112   0.474952  -0.005924
    12  H    0.029882  -0.011231   0.000062  -0.000034  -0.005924   0.469792
    13  H    0.333607   0.037664  -0.000194   0.000037  -0.000064  -0.005893
    14  H    0.027605   0.342493  -0.003059  -0.000047   0.000033  -0.000029
             13         14
     1  O    0.000034  -0.001960
     2  H   -0.000018   0.004610
     3  C   -0.006945   0.029417
     4  C   -0.005296  -0.006295
     5  C   -0.002725   0.002289
     6  C    0.023544  -0.008779
     7  C    0.333607   0.027605
     8  C    0.037664   0.342493
     9  O   -0.000194  -0.003059
    10  H    0.000037  -0.000047
    11  H   -0.000064   0.000033
    12  H   -0.005893  -0.000029
    13  H    0.473859  -0.005989
    14  H   -0.005989   0.429661
 Mulliken atomic charges:
              1
     1  O   -0.388577
     2  H    0.318086
     3  C   -0.325319
     4  C    0.207186
     5  C   -0.256363
     6  C   -0.053856
     7  C   -0.300941
     8  C    0.251310
     9  O   -0.296218
    10  H    0.173764
    11  H    0.157120
    12  H    0.165382
    13  H    0.158378
    14  H    0.190050
 Sum of Mulliken atomic charges =   0.00000
 Mulliken charges with hydrogens summed into heavy atoms:
              1
     1  O   -0.388577
     3  C   -0.325319
     4  C    0.380951
     5  C   -0.099244
     6  C    0.111525
     7  C   -0.142563
     8  C    0.441360
     9  O    0.021868
 Sum of Mulliken charges with hydrogens summed into heavy atoms =   0.00000
          Atomic-Atomic Spin Densities.
              1          2          3          4          5          6
     1  O    1.236472   0.004376  -0.004471  -0.003087   0.001856   0.001725
     2  H    0.004376  -0.075804  -0.004995   0.014326   0.000473   0.000891
     3  C   -0.004471  -0.004995   0.037562  -0.013861   0.040548  -0.019762
     4  C   -0.003087   0.014326  -0.013861   0.447080  -0.039710  -0.007830
     5  C    0.001856   0.000473   0.040548  -0.039710  -0.134069   0.018311
     6  C    0.001725   0.000891  -0.019762  -0.007830   0.018311   0.321216
     7  C   -0.006078  -0.002440  -0.018598  -0.058246  -0.008044   0.024628
     8  C    0.018277  -0.000256  -0.013288  -0.089699   0.015205  -0.030039
     9  O   -0.023762   0.028480  -0.042803  -0.034346  -0.002942   0.000355
    10  H    0.000031   0.000058   0.001533  -0.004804   0.002288  -0.000452
    11  H    0.000000   0.000002   0.000640  -0.000121  -0.000710  -0.001615
    12  H    0.000000   0.000000   0.000177  -0.001128   0.001399  -0.000644
    13  H    0.000016   0.000002  -0.000265   0.000234  -0.000104  -0.000446
    14  H   -0.002588  -0.000275   0.002377   0.001155   0.000410  -0.001145
              7          8          9         10         11         12
     1  O   -0.006078   0.018277  -0.023762   0.000031   0.000000   0.000000
     2  H   -0.002440  -0.000256   0.028480   0.000058   0.000002   0.000000
     3  C   -0.018598  -0.013288  -0.042803   0.001533   0.000640   0.000177
     4  C   -0.058246  -0.089699  -0.034346  -0.004804  -0.000121  -0.001128
     5  C   -0.008044   0.015205  -0.002942   0.002288  -0.000710   0.001399
     6  C    0.024628  -0.030039   0.000355  -0.000452  -0.001615  -0.000644
     7  C   -0.135530   0.086812   0.006923   0.000224   0.000268   0.000916
     8  C    0.086812   0.249695  -0.003327  -0.000339  -0.000039  -0.000385
     9  O    0.006923  -0.003327   0.424332   0.000416  -0.000012   0.000001
    10  H    0.000224  -0.000339   0.000416  -0.011355  -0.000117   0.000006
    11  H    0.000268  -0.000039  -0.000012  -0.000117   0.006674  -0.000080
    12  H    0.000916  -0.000385   0.000001   0.000006  -0.000080  -0.017941
    13  H   -0.002214   0.001115   0.000010   0.000001  -0.000005  -0.000074
    14  H    0.009078  -0.013965   0.000687  -0.000005   0.000001   0.000006
             13         14
     1  O    0.000016  -0.002588
     2  H    0.000002  -0.000275
     3  C   -0.000265   0.002377
     4  C    0.000234   0.001155
     5  C   -0.000104   0.000410
     6  C   -0.000446  -0.001145
     7  C   -0.002214   0.009078
     8  C    0.001115  -0.013965
     9  O    0.000010   0.000687
    10  H    0.000001  -0.000005
    11  H   -0.000005   0.000001
    12  H   -0.000074   0.000006
    13  H    0.006893  -0.000209
    14  H   -0.000209  -0.009052
 Mulliken atomic spin densities:
              1
     1  O    1.222766
     2  H   -0.035161
     3  C   -0.035205
     4  C    0.209963
     5  C   -0.105091
     6  C    0.305195
     7  C   -0.102301
     8  C    0.219768
     9  O    0.354012
    10  H   -0.012513
    11  H    0.004887
    12  H   -0.017748
    13  H    0.004952
    14  H   -0.013524
 Sum of Mulliken atomic spin densities =   2.00000
 APT atomic charges:
              1
     1  O   -0.310243
     2  H    0.338571
     3  C   -0.297696
     4  C   -0.246799
     5  C   -0.631383
     6  C   -0.527297
     7  C   -0.684432
     8  C   -0.322896
     9  O   -0.408283
    10  H    0.550253
    11  H    0.687774
    12  H    0.733946
    13  H    0.624703
    14  H    0.493783
 Sum of APT charges=   0.00000
 APT Atomic charges with hydrogens summed into heavy atoms:
              1
     1  O   -0.310243
     2  H    0.000000
     3  C   -0.297696
     4  C    0.303453
     5  C    0.056391
     6  C    0.206649
     7  C   -0.059729
     8  C    0.170887
     9  O   -0.069712
    10  H    0.000000
    11  H    0.000000
    12  H    0.000000
    13  H    0.000000
    14  H    0.000000
 Sum of APT charges=   0.00000
 Electronic spatial extent (au):  <R**2>=           1005.1113
 Charge=              0.0000 electrons
 Dipole moment (field-independent basis, Debye):
    X=              5.8965    Y=             -0.0601    Z=             -0.8575  Tot=              5.9589
 Quadrupole moment (field-independent basis, Debye-Ang):
   XX=            -52.7841   YY=            -41.6529   ZZ=            -50.7453
   XY=              1.8071   XZ=              5.3026   YZ=             -2.2772
 Traceless Quadrupole moment (field-independent basis, Debye-Ang):
   XX=             -4.3900   YY=              6.7412   ZZ=             -2.3512
   XY=              1.8071   XZ=              5.3026   YZ=             -2.2772
 Octapole moment (field-independent basis, Debye-Ang**2):
  XXX=             39.5282  YYY=             -0.7189  ZZZ=             -2.2166  XYY=              5.5289
  XXY=             -7.1545  XXZ=             -8.7130  XZZ=             -2.5235  YZZ=             -0.9479
  YYZ=              0.2555  XYZ=              2.1771
 Hexadecapole moment (field-independent basis, Debye-Ang**3):
 XXXX=           -913.4005 YYYY=           -292.8884 ZZZZ=            -98.2529 XXXY=             35.1978
 XXXZ=             55.2323 YYYX=              3.0932 YYYZ=             -5.9239 ZZZX=              3.7333
 ZZZY=              2.6913 XXYY=           -199.1441 XXZZ=           -183.5899 YYZZ=            -75.0650
 XXYZ=             -9.4422 YYXZ=              3.7057 ZZXY=             -0.2810
 N-N= 3.334813551777D+02 E-N=-2.323432850852D+03  KE= 5.692640127529D+02
  Exact polarizability:   0.000   0.000   0.000   0.000   0.000   0.000
 Approx polarizability: 189.959  -4.503 108.581  -3.164   1.660  69.748
                          Isotropic Fermi Contact Couplings
        Atom                 a.u.       MegaHertz       Gauss      10(-4) cm-1
     1  O(17)              0.14770     -44.76614     -15.97367     -14.93238
     2  H(1)              -0.02286     -51.08696     -18.22910     -17.04077
     3  C(13)             -0.02276     -12.79308      -4.56489      -4.26731
     4  C(13)              0.02152      12.09508       4.31582       4.03448
     5  C(13)             -0.02274     -12.78036      -4.56035      -4.26307
     6  C(13)              0.03644      20.48411       7.30924       6.83276
     7  C(13)             -0.02293     -12.88769      -4.59865      -4.29887
     8  C(13)              0.02318      13.03095       4.64977       4.34666
     9  O(17)              0.03958     -11.99618      -4.28054      -4.00150
    10  H(1)              -0.00335      -7.48517      -2.67090      -2.49678
    11  H(1)               0.00086       1.91871       0.68464       0.64001
    12  H(1)              -0.00451     -10.08908      -3.60003      -3.36535
    13  H(1)               0.00088       1.96777       0.70215       0.65638
    14  H(1)              -0.00303      -6.78186      -2.41994      -2.26219
 --------------------------------------------------------
       Center         ----  Spin Dipole Couplings  ----
                      3XX-RR        3YY-RR        3ZZ-RR
 --------------------------------------------------------
     1   Atom        2.479931     -0.699876     -1.780054
     2   Atom        0.021193     -0.015421     -0.005773
     3   Atom        0.038290     -0.006655     -0.031636
     4   Atom       -0.094102     -0.096265      0.190367
     5   Atom        0.035296      0.036135     -0.071431
     6   Atom       -0.123478     -0.147087      0.270565
     7   Atom        0.041514      0.033833     -0.075347
     8   Atom       -0.083757     -0.101198      0.184955
     9   Atom       -0.589531     -0.724831      1.314362
    10   Atom       -0.009786      0.016746     -0.006960
    11   Atom        0.001336      0.003092     -0.004428
    12   Atom        0.020842     -0.017556     -0.003286
    13   Atom        0.005248     -0.000616     -0.004632
    14   Atom        0.005168      0.001747     -0.006915
 --------------------------------------------------------
                        XY            XZ            YZ
 --------------------------------------------------------
     1   Atom        1.027835      1.127079      0.876188
     2   Atom       -0.113143     -0.098588      0.125910
     3   Atom        0.002005     -0.009229      0.002684
     4   Atom       -0.011902     -0.049540      0.034533
     5   Atom        0.005322      0.024992     -0.012936
     6   Atom       -0.006904     -0.083054      0.050873
     7   Atom        0.002703      0.024213     -0.011933
     8   Atom       -0.006024     -0.068209      0.026788
     9   Atom       -0.145343     -0.763971      0.440454
    10   Atom        0.000003     -0.001914     -0.002863
    11   Atom        0.001514      0.000540     -0.000217
    12   Atom        0.012302      0.002859      0.004062
    13   Atom       -0.000669      0.001009     -0.001144
    14   Atom       -0.005621     -0.007203     -0.009516
 --------------------------------------------------------


 ---------------------------------------------------------------------------------
              Anisotropic Spin Dipole Couplings in Principal Axis System
 ---------------------------------------------------------------------------------

       Atom             a.u.   MegaHertz   Gauss  10(-4) cm-1        Axes

              Baa    -2.3303   168.617    60.167    56.245 -0.1249 -0.4074  0.9047
     1 O(17)  Bbb    -0.8163    59.066    21.076    19.702 -0.3830  0.8609  0.3349
              Bcc     3.1466  -227.683   -81.243   -75.947  0.9153  0.3046  0.2636
 
              Baa    -0.1390   -74.159   -26.462   -24.737  0.1780  0.7775 -0.6032
     2 H(1)   Bbb    -0.0862   -45.999   -16.414   -15.344  0.7862  0.2563  0.5624
              Bcc     0.2252   120.159    42.876    40.081  0.5918 -0.5743 -0.5657
 
              Baa    -0.0332    -4.449    -1.588    -1.484  0.1304 -0.1097  0.9854
     3 C(13)  Bbb    -0.0064    -0.858    -0.306    -0.286 -0.0212  0.9933  0.1133
              Bcc     0.0395     5.307     1.894     1.770  0.9912  0.0356 -0.1272
 
              Baa    -0.1075   -14.432    -5.150    -4.814  0.7625  0.6449  0.0520
     4 C(13)  Bbb    -0.0955   -12.820    -4.575    -4.276 -0.6249  0.7548 -0.1994
              Bcc     0.2031    27.252     9.724     9.090 -0.1679  0.1196  0.9785
 
              Baa    -0.0786   -10.554    -3.766    -3.520 -0.2180  0.1193  0.9686
     5 C(13)  Bbb     0.0365     4.898     1.748     1.634 -0.4431  0.8722 -0.2071
              Bcc     0.0421     5.656     2.018     1.886  0.8695  0.4744  0.1373
 
              Baa    -0.1538   -20.644    -7.366    -6.886 -0.2087  0.9654 -0.1566
     6 C(13)  Bbb    -0.1395   -18.716    -6.678    -6.243  0.9581  0.2339  0.1650
              Bcc     0.2933    39.360    14.045    13.129 -0.1960  0.1156  0.9738
 
              Baa    -0.0815   -10.931    -3.901    -3.646 -0.1943  0.1055  0.9752
     7 C(13)  Bbb     0.0351     4.713     1.682     1.572 -0.0074  0.9940 -0.1090
              Bcc     0.0463     6.219     2.219     2.074  0.9809  0.0284  0.1924
 
              Baa    -0.1037   -13.917    -4.966    -4.642 -0.0790  0.9907 -0.1106
     8 C(13)  Bbb    -0.1000   -13.425    -4.790    -4.478  0.9696  0.1022  0.2224
              Bcc     0.2037    27.341     9.756     9.120 -0.2317  0.0897  0.9686
 
              Baa    -0.8599    62.222    22.202    20.755  0.9141 -0.1878  0.3593
     9 O(17)  Bbb    -0.8128    58.814    20.986    19.618  0.2422  0.9637 -0.1125
              Bcc     1.6727  -121.036   -43.189   -40.373 -0.3251  0.1899  0.9264
 
              Baa    -0.0108    -5.770    -2.059    -1.925  0.8796  0.0490  0.4731
    10 H(1)   Bbb    -0.0063    -3.347    -1.194    -1.117 -0.4756  0.1086  0.8730
              Bcc     0.0171     9.118     3.253     3.041  0.0086  0.9929 -0.1189
 
              Baa    -0.0045    -2.399    -0.856    -0.800 -0.1048  0.0494  0.9933
    11 H(1)   Bbb     0.0005     0.283     0.101     0.094  0.8593 -0.4982  0.1155
              Bcc     0.0040     2.116     0.755     0.706  0.5006  0.8656  0.0098
 
              Baa    -0.0217   -11.572    -4.129    -3.860 -0.2634  0.9498 -0.1687
    12 H(1)   Bbb    -0.0033    -1.758    -0.627    -0.586 -0.1787  0.1238  0.9761
              Bcc     0.0250    13.330     4.757     4.446  0.9480  0.2873  0.1372
 
              Baa    -0.0050    -2.667    -0.952    -0.890 -0.0796  0.2404  0.9674
    13 H(1)   Bbb    -0.0005    -0.242    -0.086    -0.081  0.1529  0.9620 -0.2264
              Bcc     0.0055     2.909     1.038     0.970  0.9850 -0.1299  0.1133
 
              Baa    -0.0168    -8.969    -3.200    -2.992  0.3829  0.5107  0.7698
    14 H(1)   Bbb     0.0075     3.987     1.423     1.330  0.4245  0.6428 -0.6376
              Bcc     0.0093     4.982     1.778     1.662  0.8205 -0.5709 -0.0293
 

 ---------------------------------------------------------------------------------

 Calling FoFJK, ICntrl=    100147 FMM=F ISym2X=0 I1Cent= 0 IOpClX= 1 NMat=1 NMatS=1 NMatT=0.
 ***** Axes restored to original set *****
 -------------------------------------------------------------------
 Center     Atomic                   Forces (Hartrees/Bohr)
 Number     Number              X              Y              Z
 -------------------------------------------------------------------
      1        8           0.004527118   -0.008113411   -0.010775596
      2        1          -0.025387521    0.029438620    0.025961429
      3        6          -0.010830600   -0.003280184   -0.002772647
      4        6           0.005381131   -0.001042290    0.001473066
      5        6          -0.002640660   -0.001651481    0.000270513
      6        6           0.000317302    0.001157360   -0.001082862
      7        6          -0.000428246   -0.000511772    0.000739365
      8        6           0.001512019    0.005406946    0.000871872
      9        8           0.027970495   -0.020428121   -0.013294005
     10        1           0.000139228   -0.000420397   -0.000476925
     11        1           0.000248741   -0.000470181   -0.000413216
     12        1          -0.000524788    0.000016972    0.000705137
     13        1           0.000011613   -0.000002568   -0.000390702
     14        1          -0.000295831   -0.000099493   -0.000815430
 -------------------------------------------------------------------
 Cartesian Forces:  Max     0.029438620 RMS     0.009734774

 GradGradGradGradGradGradGradGradGradGradGradGradGradGradGradGradGradGrad
 Berny optimization.
 Internal  Forces:  Max     0.032988287 RMS     0.004902265
 Search for a saddle point.
 Step number   1 out of a maximum of   71
 All quantities printed in internal units (Hartrees-Bohrs-Radians)
 Swaping is turned off.
 Second derivative matrix not updated -- analytic derivatives used.
 ITU=  0
     Eigenvalues ---   -0.08154   0.00353   0.00819   0.01386   0.01699
     Eigenvalues ---    0.01715   0.02226   0.02255   0.02521   0.02651
     Eigenvalues ---    0.02817   0.03124   0.04857   0.10435   0.10727
     Eigenvalues ---    0.10963   0.12220   0.12299   0.16933   0.17958
     Eigenvalues ---    0.19214   0.20585   0.23158   0.27579   0.31272
     Eigenvalues ---    0.35804   0.35946   0.36163   0.36351   0.36550
     Eigenvalues ---    0.40253   0.40609   0.44793   0.49536   0.53356
     Eigenvalues ---    0.63410
 Eigenvectors required to have negative eigenvalues:
                          R2        R1        R5        A1        A20
   1                    0.68374  -0.62500  -0.18212   0.18044   0.16816
                          D11       D1        R3        D10       R4
   1                    0.10210   0.08634   0.08465   0.08441   0.07902
 RFO step:  Lambda0=1.209683274D-02 Lambda=-2.00812988D-03.
 Linear search not attempted -- option 19 set.
 Maximum step size (   0.300) exceeded in Quadratic search.
    -- Step size scaled by   0.933
 Iteration  1 RMS(Cart)=  0.08163908 RMS(Int)=  0.02069938
 Iteration  2 RMS(Cart)=  0.01963152 RMS(Int)=  0.00099020
 Iteration  3 RMS(Cart)=  0.00141327 RMS(Int)=  0.00006746
 Iteration  4 RMS(Cart)=  0.00000599 RMS(Int)=  0.00006718
 Iteration  5 RMS(Cart)=  0.00000000 RMS(Int)=  0.00006718
 Variable       Old X    -DE/DX   Delta X   Delta X   Delta X     New X
                                 (Linear)    (Quad)   (Total)
    R1        2.26083  -0.01401   0.00000   0.19328   0.19328   2.45411
    R2        2.16449   0.03299   0.00000  -0.18549  -0.18549   1.97900
    R3        2.67513   0.00368   0.00000  -0.03414  -0.03414   2.64099
    R4        2.67785   0.00443   0.00000  -0.03224  -0.03225   2.64560
    R5        2.44408  -0.00724   0.00000   0.07078   0.07078   2.51486
    R6        2.59935  -0.00249   0.00000   0.01129   0.01130   2.61065
    R7        2.04159   0.00033   0.00000   0.00082   0.00082   2.04240
    R8        2.64108   0.00153   0.00000  -0.01180  -0.01179   2.62928
    R9        2.04163   0.00039   0.00000   0.00126   0.00126   2.04289
   R10        2.64363   0.00009   0.00000  -0.01412  -0.01412   2.62952
   R11        2.04473  -0.00038   0.00000  -0.00132  -0.00132   2.04341
   R12        2.59630  -0.00079   0.00000   0.01421   0.01420   2.61050
   R13        2.04260   0.00002   0.00000   0.00027   0.00027   2.04287
   R14        2.04392   0.00032   0.00000   0.00047   0.00047   2.04440
    A1        2.75304   0.00570   0.00000  -0.05205  -0.05205   2.70099
    A2        2.09096  -0.00064   0.00000   0.01129   0.01118   2.10214
    A3        2.08221   0.00137   0.00000  -0.01430  -0.01426   2.06796
    A4        2.10970  -0.00072   0.00000   0.00286   0.00290   2.11260
    A5        2.08888  -0.00008   0.00000  -0.00302  -0.00311   2.08578
    A6        2.05610   0.00017   0.00000   0.00980   0.00984   2.06594
    A7        2.13815  -0.00009   0.00000  -0.00682  -0.00678   2.13138
    A8        2.09363   0.00025   0.00000   0.00258   0.00250   2.09613
    A9        2.09982  -0.00032   0.00000  -0.00731  -0.00727   2.09255
   A10        2.08961   0.00007   0.00000   0.00472   0.00475   2.09437
   A11        2.10878   0.00088   0.00000  -0.00823  -0.00832   2.10046
   A12        2.08706  -0.00039   0.00000   0.00425   0.00428   2.09135
   A13        2.08734  -0.00049   0.00000   0.00400   0.00404   2.09137
   A14        2.09433   0.00026   0.00000   0.00220   0.00208   2.09642
   A15        2.09090  -0.00004   0.00000   0.00384   0.00386   2.09476
   A16        2.09794  -0.00022   0.00000  -0.00597  -0.00595   2.09199
   A17        2.08856  -0.00067   0.00000  -0.00368  -0.00380   2.08476
   A18        2.06209   0.00001   0.00000   0.01480   0.01485   2.07694
   A19        2.13242   0.00067   0.00000  -0.01102  -0.01097   2.12145
   A20        2.00867  -0.00652   0.00000  -0.07262  -0.07262   1.93606
    D1       -0.61760  -0.00050   0.00000  -0.32032  -0.32032  -0.93793
    D2       -0.05499   0.00015   0.00000   0.02042   0.02050  -0.03448
    D3        3.09715   0.00029   0.00000   0.02430   0.02445   3.12160
    D4        3.06002   0.00051   0.00000   0.01376   0.01379   3.07381
    D5       -0.07103   0.00065   0.00000   0.01765   0.01774  -0.05330
    D6        0.04181  -0.00024   0.00000  -0.03527  -0.03529   0.00652
    D7       -3.08365  -0.00034   0.00000  -0.04221  -0.04233  -3.12598
    D8       -3.07276  -0.00064   0.00000  -0.02825  -0.02814  -3.10091
    D9        0.08496  -0.00074   0.00000  -0.03518  -0.03518   0.04977
   D10        2.38469   0.00105   0.00000  -0.07867  -0.07866   2.30602
   D11       -0.78379   0.00142   0.00000  -0.08528  -0.08529  -0.86908
   D12        0.02983   0.00005   0.00000   0.00847   0.00864   0.03847
   D13       -3.12843   0.00017   0.00000   0.00712   0.00724  -3.12119
   D14       -3.12282  -0.00010   0.00000   0.00451   0.00464  -3.11817
   D15        0.00210   0.00003   0.00000   0.00315   0.00324   0.00535
   D16        0.00851  -0.00014   0.00000  -0.02351  -0.02342  -0.01491
   D17       -3.13029  -0.00033   0.00000  -0.02862  -0.02862   3.12428
   D18       -3.11650  -0.00025   0.00000  -0.02205  -0.02190  -3.13841
   D19        0.02788  -0.00045   0.00000  -0.02716  -0.02710   0.00078
   D20       -0.02182   0.00004   0.00000   0.00850   0.00844  -0.01338
   D21        3.11354   0.00021   0.00000   0.02089   0.02082   3.13436
   D22        3.11698   0.00024   0.00000   0.01361   0.01364   3.13062
   D23       -0.03085   0.00041   0.00000   0.02600   0.02602  -0.00482
   D24       -0.00372   0.00012   0.00000   0.02115   0.02105   0.01734
   D25        3.12108   0.00021   0.00000   0.02862   0.02853  -3.13358
   D26       -3.13905  -0.00006   0.00000   0.00868   0.00866  -3.13039
   D27       -0.01426   0.00004   0.00000   0.01615   0.01613   0.00188
         Item               Value     Threshold  Converged?
 Maximum Force            0.032988     0.000450     NO 
 RMS     Force            0.004902     0.000300     NO 
 Maximum Displacement     0.385970     0.001800     NO 
 RMS     Displacement     0.085964     0.001200     NO 
 Predicted change in Energy= 5.597287D-03
 GradGradGradGradGradGradGradGradGradGradGradGradGradGradGradGradGradGrad

                          Input orientation:                          
 ---------------------------------------------------------------------
 Center     Atomic      Atomic             Coordinates (Angstroms)
 Number     Number       Type             X           Y           Z
 ---------------------------------------------------------------------
      1          8           0       -2.926385    0.354892    0.892541
      2          1           0       -2.356139   -0.189792   -0.139283
      3          6           0       -0.404841   -0.344373   -0.317976
      4          6           0        0.550240   -1.291544    0.061277
      5          6           0        1.848430   -0.888038    0.307072
      6          6           0        2.188622    0.458389    0.221767
      7          6           0        1.230491    1.404795   -0.128262
      8          6           0       -0.063244    1.010241   -0.409127
      9          8           0       -1.629137   -0.765612   -0.625719
     10          1           0        0.245398   -2.325535    0.139032
     11          1           0        2.596614   -1.618170    0.582387
     12          1           0        3.202383    0.771244    0.430749
     13          1           0        1.499007    2.450338   -0.186435
     14          1           0       -0.824637    1.725355   -0.690709
 ---------------------------------------------------------------------
                    Distance matrix (angstroms):
                    1          2          3          4          5
     1  O    0.000000
     2  H    1.298661   0.000000
     3  C    2.883141   1.965551   0.000000
     4  C    3.935565   3.114662   1.397550   0.000000
     5  C    4.968552   4.285462   2.400726   1.381495   0.000000
     6  C    5.159839   4.604926   2.767995   2.402564   1.391357
     7  C    4.407261   3.925143   2.402059   2.787276   2.414218
     8  C    3.212693   2.601973   1.399991   2.428138   2.787634
     9  O    2.289867   1.047244   1.330807   2.344835   3.602576
    10  H    4.220506   3.377403   2.134636   1.080793   2.159710
    11  H    5.873047   5.204885   3.382594   2.136793   1.081050
    12  H    6.160227   5.669718   3.849319   3.380157   2.145158
    13  H    5.013898   4.672758   3.384132   3.868230   3.392699
    14  H    2.966849   2.513436   2.144512   3.399624   3.869196
                    6          7          8          9         10
     6  C    0.000000
     7  C    1.391481   0.000000
     8  C    2.402804   1.381415   0.000000
     9  O    4.097766   3.624307   2.377516   0.000000
    10  H    3.396056   3.867456   3.394575   2.555794   0.000000
    11  H    2.146765   3.392584   3.868654   4.476979   2.495024
    12  H    1.081325   2.145283   3.380360   5.178961   4.291725
    13  H    2.147105   1.081039   2.136375   4.507836   4.948376
    14  H    3.393750   2.154682   1.081848   2.618465   4.271200
                   11         12         13         14
    11  H    0.000000
    12  H    2.469666   0.000000
    13  H    4.283525   2.470175   0.000000
    14  H    4.950241   4.287760   2.485802   0.000000
 Stoichiometry    C6H6O2(3)
 Framework group  C1[X(C6H6O2)]
 Deg. of freedom    36
 Full point group                 C1      NOp   1
 Largest Abelian subgroup         C1      NOp   1
 Largest concise Abelian subgroup C1      NOp   1
                         Standard orientation:                         
 ---------------------------------------------------------------------
 Center     Atomic      Atomic             Coordinates (Angstroms)
 Number     Number       Type             X           Y           Z
 ---------------------------------------------------------------------
      1          8           0       -2.923885    0.470541    0.837468
      2          1           0       -2.359079   -0.085756   -0.191147
      3          6           0       -0.412934   -0.317592   -0.340019
      4          6           0        0.496604   -1.306819    0.043796
      5          6           0        1.805795   -0.959076    0.315135
      6          6           0        2.201559    0.373250    0.250705
      7          6           0        1.288458    1.361523   -0.103951
      8          6           0       -0.015337    1.022919   -0.410178
      9          8           0       -1.647989   -0.685391   -0.672302
     10          1           0        0.148923   -2.328341    0.104812
     11          1           0        2.519143   -1.721930    0.594163
     12          1           0        3.223537    0.642378    0.479606
     13          1           0        1.599990    2.395853   -0.145844
     14          1           0       -0.742385    1.771372   -0.695858
 ---------------------------------------------------------------------
 Rotational constants (GHZ):      4.1041421      1.4321488      1.1860855
 Standard basis: 6-311+G(2df,2p) (5D, 7F)
 There are   326 symmetry adapted basis functions of A   symmetry.
 Integral buffers will be    131072 words long.
 Raffenetti 2 integral format.
 Two-electron integral symmetry is turned on.
   326 basis functions,   482 primitive gaussians,   366 cartesian basis functions
    30 alpha electrons       28 beta electrons
       nuclear repulsion energy       334.0826400455 Hartrees.
 NAtoms=   14 NActive=   14 NUniq=   14 SFac= 1.00D+00 NAtFMM=   50 NAOKFM=F Big=F
 One-electron integrals computed using PRISM.
 NBasis=   326 RedAO= T  NBF=   326
 NBsUse=   326 1.00D-06 NBFU=   326
 Initial guess read from the read-write file.
 B after Tr=     0.000000    0.000000    0.000000
         Rot=    1.000000    0.000000    0.000000    0.000000 Ang=   0.00 deg.
 Initial guess orbital symmetries:
 Alpha Orbitals:
       Occupied  (A) (A) (A) (A) (A) (A) (A) (A) (A) (A) (A) (A)
                 (A) (A) (A) (A) (A) (A) (A) (A) (A) (A) (A) (A)
                 (A) (A) (A) (A) (A) (A)
       Virtual   (A) (A) (A) (A) (A) (A) (A) (A) (A) (A) (A) (A)
                 (A) (A) (A) (A) (A) (A) (A) (A) (A) (A) (A) (A)
                 (A) (A) (A) (A) (A) (A) (A) (A) (A) (A) (A) (A)
                 (A) (A) (A) (A) (A) (A) (A) (A) (A) (A) (A) (A)
                 (A) (A) (A) (A) (A) (A) (A) (A) (A) (A) (A) (A)
                 (A) (A) (A) (A) (A) (A) (A) (A) (A) (A) (A) (A)
                 (A) (A) (A) (A) (A) (A) (A) (A) (A) (A) (A) (A)
                 (A) (A) (A) (A) (A) (A) (A) (A) (A) (A) (A) (A)
                 (A) (A) (A) (A) (A) (A) (A) (A) (A) (A) (A) (A)
                 (A) (A) (A) (A) (A) (A) (A) (A) (A) (A) (A) (A)
                 (A) (A) (A) (A) (A) (A) (A) (A) (A) (A) (A) (A)
                 (A) (A) (A) (A) (A) (A) (A) (A) (A) (A) (A) (A)
                 (A) (A) (A) (A) (A) (A) (A) (A) (A) (A) (A) (A)
                 (A) (A) (A) (A) (A) (A) (A) (A) (A) (A) (A) (A)
                 (A) (A) (A) (A) (A) (A) (A) (A) (A) (A) (A) (A)
                 (A) (A) (A) (A) (A) (A) (A) (A) (A) (A) (A) (A)
                 (A) (A) (A) (A) (A) (A) (A) (A) (A) (A) (A) (A)
                 (A) (A) (A) (A) (A) (A) (A) (A) (A) (A) (A) (A)
                 (A) (A) (A) (A) (A) (A) (A) (A) (A) (A) (A) (A)
                 (A) (A) (A) (A) (A) (A) (A) (A) (A) (A) (A) (A)
                 (A) (A) (A) (A) (A) (A) (A) (A) (A) (A) (A) (A)
                 (A) (A) (A) (A) (A) (A) (A) (A) (A) (A) (A) (A)
                 (A) (A) (A) (A) (A) (A) (A) (A) (A) (A) (A) (A)
                 (A) (A) (A) (A) (A) (A) (A) (A) (A) (A) (A) (A)
                 (A) (A) (A) (A) (A) (A) (A) (A)
 Beta  Orbitals:
       Occupied  (A) (A) (A) (A) (A) (A) (A) (A) (A) (A) (A) (A)
                 (A) (A) (A) (A) (A) (A) (A) (A) (A) (A) (A) (A)
                 (A) (A) (A) (A)
       Virtual   (A) (A) (A) (A) (A) (A) (A) (A) (A) (A) (A) (A)
                 (A) (A) (A) (A) (A) (A) (A) (A) (A) (A) (A) (A)
                 (A) (A) (A) (A) (A) (A) (A) (A) (A) (A) (A) (A)
                 (A) (A) (A) (A) (A) (A) (A) (A) (A) (A) (A) (A)
                 (A) (A) (A) (A) (A) (A) (A) (A) (A) (A) (A) (A)
                 (A) (A) (A) (A) (A) (A) (A) (A) (A) (A) (A) (A)
                 (A) (A) (A) (A) (A) (A) (A) (A) (A) (A) (A) (A)
                 (A) (A) (A) (A) (A) (A) (A) (A) (A) (A) (A) (A)
                 (A) (A) (A) (A) (A) (A) (A) (A) (A) (A) (A) (A)
                 (A) (A) (A) (A) (A) (A) (A) (A) (A) (A) (A) (A)
                 (A) (A) (A) (A) (A) (A) (A) (A) (A) (A) (A) (A)
                 (A) (A) (A) (A) (A) (A) (A) (A) (A) (A) (A) (A)
                 (A) (A) (A) (A) (A) (A) (A) (A) (A) (A) (A) (A)
                 (A) (A) (A) (A) (A) (A) (A) (A) (A) (A) (A) (A)
                 (A) (A) (A) (A) (A) (A) (A) (A) (A) (A) (A) (A)
                 (A) (A) (A) (A) (A) (A) (A) (A) (A) (A) (A) (A)
                 (A) (A) (A) (A) (A) (A) (A) (A) (A) (A) (A) (A)
                 (A) (A) (A) (A) (A) (A) (A) (A) (A) (A) (A) (A)
                 (A) (A) (A) (A) (A) (A) (A) (A) (A) (A) (A) (A)
                 (A) (A) (A) (A) (A) (A) (A) (A) (A) (A) (A) (A)
                 (A) (A) (A) (A) (A) (A) (A) (A) (A) (A) (A) (A)
                 (A) (A) (A) (A) (A) (A) (A) (A) (A) (A) (A) (A)
                 (A) (A) (A) (A) (A) (A) (A) (A) (A) (A) (A) (A)
                 (A) (A) (A) (A) (A) (A) (A) (A) (A) (A) (A) (A)
                 (A) (A) (A) (A) (A) (A) (A) (A) (A) (A)
 Initial guess <Sx>= 0.0000 <Sy>= 0.0000 <Sz>= 1.0000 <S**2>= 2.0326 S= 1.0108
 Harris functional with IExCor= 1009 diagonalized for initial guess.
 ExpMin= 4.38D-02 ExpMax= 8.59D+03 ExpMxC= 1.30D+03 IAcc=2 IRadAn=         0 AccDes= 0.00D+00
 HarFok:  IExCor= 1009 AccDes= 0.00D+00 IRadAn=         0 IDoV= 1
 ScaDFX=  1.000000  1.000000  1.000000  1.000000
 FoFCou: FMM=F IPFlag=           0 FMFlag=      100000 FMFlg1=           0
         NFxFlg=           0 DoJE=T BraDBF=F KetDBF=T FulRan=T
         Omega=  0.000000  0.000000  1.000000  0.000000  0.000000 ICntrl=     500 IOpCl=  0
         NMat0=    1 NMatS0=    1 NMatT0=    0 NMatD0=    1 NMtDS0=    0 NMtDT0=    0
         I1Cent=           4 NGrid=           0.
 Petite list used in FoFCou.
 Requested convergence on RMS density matrix=1.00D-08 within 128 cycles.
 Requested convergence on MAX density matrix=1.00D-06.
 Requested convergence on             energy=1.00D-06.
 No special actions if energy rises.
 Restarting incremental Fock formation.
 SCF Done:  E(UM062X) =  -382.494284704     A.U. after   32 cycles
             Convg  =    0.3297D-08             -V/T =  2.0032
 <Sx>= 0.0000 <Sy>= 0.0000 <Sz>= 1.0000 <S**2>= 2.0203 S= 1.0068
 <L.S>= 0.000000000000E+00
 Annihilation of the first spin contaminant:
 S**2 before annihilation     2.0203,   after     2.0002
 Calling FoFJK, ICntrl=      2127 FMM=F ISym2X=0 I1Cent= 0 IOpClX= 1 NMat=1 NMatS=1 NMatT=0.
 ***** Axes restored to original set *****
 -------------------------------------------------------------------
 Center     Atomic                   Forces (Hartrees/Bohr)
 Number     Number              X              Y              Z
 -------------------------------------------------------------------
      1        8          -0.003642298    0.003002892    0.005844679
      2        1          -0.005037477    0.005808729   -0.000939472
      3        6          -0.000971977   -0.001294853   -0.001150602
      4        6           0.003553110   -0.000866491   -0.000345008
      5        6          -0.001257240   -0.001018510    0.000688359
      6        6           0.001072955    0.001215248   -0.000219784
      7        6          -0.000060942   -0.000013373    0.000111340
      8        6           0.000045197    0.002209293    0.001534008
      9        8           0.006036657   -0.008927488   -0.004635367
     10        1           0.000027500   -0.000070248   -0.000198312
     11        1           0.000099689   -0.000068685    0.000083807
     12        1           0.000055269    0.000012134   -0.000008872
     13        1           0.000134987    0.000091251   -0.000175769
     14        1          -0.000055430   -0.000079899   -0.000589006
 -------------------------------------------------------------------
 Cartesian Forces:  Max     0.008927488 RMS     0.002605014

 GradGradGradGradGradGradGradGradGradGradGradGradGradGradGradGradGradGrad
 Berny optimization.
 Internal  Forces:  Max     0.013160863 RMS     0.002086204
 Search for a saddle point.
 Step number   2 out of a maximum of   71
 All quantities printed in internal units (Hartrees-Bohrs-Radians)
 Swaping is turned off.
 Update second derivatives using D2CorX and points    1    2
 ITU=  0  0
     Eigenvalues ---   -0.08638   0.00118   0.01279   0.01399   0.01709
     Eigenvalues ---    0.01740   0.02230   0.02254   0.02520   0.02673
     Eigenvalues ---    0.02817   0.03129   0.04857   0.10434   0.10727
     Eigenvalues ---    0.10970   0.12219   0.12299   0.17017   0.17976
     Eigenvalues ---    0.19211   0.20594   0.23153   0.27522   0.30989
     Eigenvalues ---    0.35801   0.35946   0.36163   0.36351   0.36549
     Eigenvalues ---    0.40207   0.40600   0.44789   0.49454   0.53346
     Eigenvalues ---    0.63427
 Eigenvectors required to have negative eigenvalues:
                          R1        R2        R5        A1        A20
   1                   -0.66903   0.64623  -0.18703   0.18536   0.16221
                          D1        R3        R4        D11       D10
   1                    0.10291   0.07827   0.07358   0.07240   0.05685
 RFO step:  Lambda0=1.635143067D-04 Lambda=-2.74878506D-03.
 Linear search not attempted -- option 19 set.
 Iteration  1 RMS(Cart)=  0.07094017 RMS(Int)=  0.04470005
 Iteration  2 RMS(Cart)=  0.06086211 RMS(Int)=  0.00956544
 Iteration  3 RMS(Cart)=  0.01173817 RMS(Int)=  0.00024029
 Iteration  4 RMS(Cart)=  0.00030288 RMS(Int)=  0.00002563
 Iteration  5 RMS(Cart)=  0.00000021 RMS(Int)=  0.00002563
 Variable       Old X    -DE/DX   Delta X   Delta X   Delta X     New X
                                 (Linear)    (Quad)   (Total)
    R1        2.45411   0.00751   0.00000   0.08577   0.08577   2.53988
    R2        1.97900   0.01316   0.00000   0.03142   0.03142   2.01042
    R3        2.64099   0.00268   0.00000   0.00929   0.00927   2.65026
    R4        2.64560   0.00225   0.00000   0.01005   0.01004   2.65564
    R5        2.51486   0.00240   0.00000  -0.00016  -0.00016   2.51470
    R6        2.61065  -0.00035   0.00000  -0.00310  -0.00311   2.60754
    R7        2.04240   0.00005   0.00000   0.00033   0.00033   2.04273
    R8        2.62928   0.00131   0.00000   0.00454   0.00455   2.63384
    R9        2.04289   0.00014   0.00000   0.00051   0.00051   2.04340
   R10        2.62952   0.00029   0.00000   0.00204   0.00206   2.63158
   R11        2.04341   0.00005   0.00000  -0.00024  -0.00024   2.04317
   R12        2.61050   0.00054   0.00000  -0.00079  -0.00078   2.60972
   R13        2.04287   0.00013   0.00000   0.00052   0.00052   2.04339
   R14        2.04440   0.00014   0.00000   0.00238   0.00238   2.04677
    A1        2.70099   0.00062   0.00000  -0.01697  -0.01697   2.68402
    A2        2.10214  -0.00120   0.00000  -0.00582  -0.00591   2.09623
    A3        2.06796   0.00213   0.00000   0.00384   0.00386   2.07181
    A4        2.11260  -0.00093   0.00000   0.00231   0.00233   2.11493
    A5        2.08578   0.00031   0.00000   0.00180   0.00173   2.08750
    A6        2.06594  -0.00018   0.00000   0.00051   0.00053   2.06647
    A7        2.13138  -0.00012   0.00000  -0.00221  -0.00219   2.12919
    A8        2.09613   0.00042   0.00000   0.00406   0.00401   2.10014
    A9        2.09255  -0.00021   0.00000  -0.00326  -0.00325   2.08930
   A10        2.09437  -0.00021   0.00000  -0.00067  -0.00066   2.09371
   A11        2.10046  -0.00017   0.00000  -0.00443  -0.00445   2.09602
   A12        2.09135   0.00006   0.00000   0.00216   0.00217   2.09351
   A13        2.09137   0.00011   0.00000   0.00227   0.00228   2.09365
   A14        2.09642   0.00034   0.00000   0.00396   0.00394   2.10036
   A15        2.09476  -0.00025   0.00000  -0.00127  -0.00127   2.09349
   A16        2.09199  -0.00009   0.00000  -0.00273  -0.00273   2.08926
   A17        2.08476   0.00031   0.00000   0.00100   0.00092   2.08568
   A18        2.07694  -0.00027   0.00000   0.00311   0.00310   2.08004
   A19        2.12145  -0.00003   0.00000  -0.00399  -0.00400   2.11745
   A20        1.93606  -0.00047   0.00000  -0.00234  -0.00234   1.93372
    D1       -0.93793  -0.00031   0.00000  -0.46995  -0.46995  -1.40788
    D2       -0.03448   0.00021   0.00000   0.02779   0.02777  -0.00671
    D3        3.12160   0.00006   0.00000   0.02061   0.02057  -3.14102
    D4        3.07381   0.00038   0.00000   0.03925   0.03924   3.11305
    D5       -0.05330   0.00023   0.00000   0.03207   0.03204  -0.02125
    D6        0.00652   0.00005   0.00000  -0.02482  -0.02480  -0.01828
    D7       -3.12598  -0.00026   0.00000  -0.03964  -0.03965   3.11756
    D8       -3.10091  -0.00019   0.00000  -0.03659  -0.03658  -3.13749
    D9        0.04977  -0.00049   0.00000  -0.05142  -0.05143  -0.00166
   D10        2.30602   0.00170   0.00000   0.34150   0.34147   2.64749
   D11       -0.86908   0.00186   0.00000   0.35287   0.35290  -0.51617
   D12        0.03847  -0.00032   0.00000  -0.01246  -0.01250   0.02597
   D13       -3.12119  -0.00011   0.00000  -0.00413  -0.00416  -3.12535
   D14       -3.11817  -0.00016   0.00000  -0.00498  -0.00501  -3.12318
[...]
  Beta virt. eigenvalues --    1.51444   1.55716   1.57282   1.57580   1.58112
  Beta virt. eigenvalues --    1.64131   1.66619   1.68600   1.69938   1.71802
  Beta virt. eigenvalues --    1.73674   1.74282   1.83257   1.86306   1.86823
  Beta virt. eigenvalues --    1.90856   2.00266   2.00722   2.02150   2.05073
  Beta virt. eigenvalues --    2.10374   2.27325   2.38882   2.41108   2.47681
  Beta virt. eigenvalues --    2.50187   2.54144   2.55735   2.59404   2.60101
  Beta virt. eigenvalues --    2.60663   2.67399   2.69266   2.72553   2.73812
  Beta virt. eigenvalues --    2.75200   2.75583   2.76834   2.77856   2.77932
  Beta virt. eigenvalues --    2.78944   2.81763   2.82896   2.83431   2.85035
  Beta virt. eigenvalues --    2.86488   2.87081   2.88784   2.93298   2.93782
  Beta virt. eigenvalues --    2.95465   3.00366   3.01243   3.02803   3.07934
  Beta virt. eigenvalues --    3.08877   3.10313   3.12335   3.14873   3.15643
  Beta virt. eigenvalues --    3.16466   3.19000   3.21463   3.24186   3.25074
  Beta virt. eigenvalues --    3.30207   3.30776   3.31940   3.32597   3.34634
  Beta virt. eigenvalues --    3.35902   3.38468   3.40165   3.40948   3.42027
  Beta virt. eigenvalues --    3.42120   3.44893   3.47153   3.51251   3.51997
  Beta virt. eigenvalues --    3.56071   3.58058   3.61445   3.66423   3.69441
  Beta virt. eigenvalues --    3.69886   3.71083   3.73298   3.75272   3.76794
  Beta virt. eigenvalues --    3.80581   3.81916   3.82981   3.85770   3.86570
  Beta virt. eigenvalues --    3.89545   3.92348   3.93257   3.95795   4.02795
  Beta virt. eigenvalues --    4.03399   4.04027   4.05830   4.07587   4.10736
  Beta virt. eigenvalues --    4.14685   4.17403   4.24479   4.25401   4.27085
  Beta virt. eigenvalues --    4.34907   4.36861   4.38893   4.40393   4.41618
  Beta virt. eigenvalues --    4.42814   4.43704   4.45999   4.49073   4.55482
  Beta virt. eigenvalues --    4.59209   4.60851   4.64815   4.68519   4.70243
  Beta virt. eigenvalues --    4.89285   4.92464   4.96838   5.00196   5.02788
  Beta virt. eigenvalues --    5.03322   5.04250   5.05022   5.06334   5.07114
  Beta virt. eigenvalues --    5.07246   5.08842   5.10410   5.13382   5.16018
  Beta virt. eigenvalues --    5.20809   5.25308   5.27701   5.30283   5.34972
  Beta virt. eigenvalues --    5.36970   5.46722   5.53852   5.58954   5.63601
  Beta virt. eigenvalues --    5.69142   5.71745   5.77106   5.78339   5.96200
  Beta virt. eigenvalues --    6.11023   6.31326   6.64256   6.76860   6.79463
  Beta virt. eigenvalues --    6.80546   6.86684   6.92832   6.98464   7.11362
  Beta virt. eigenvalues --    7.21585   7.31135   7.50336   7.68823   7.81791
  Beta virt. eigenvalues --   23.85347  24.44205  24.51451  24.73535  24.73870
  Beta virt. eigenvalues --   25.19860  49.90398  50.19555
          Condensed to atoms (all electrons):
              1          2          3          4          5          6
     1  O    8.095500   0.127555   0.000982  -0.057497  -0.001594   0.001434
     2  H    0.127555   0.335279   0.014958   0.076851   0.005335  -0.001473
     3  C    0.000982   0.014958   6.411220  -0.219946  -0.048111  -0.265931
     4  C   -0.057497   0.076851  -0.219946   6.625585   0.483240   0.068194
     5  C   -0.001594   0.005335  -0.048111   0.483240   5.186272   0.431424
     6  C    0.001434  -0.001473  -0.265931   0.068194   0.431424   5.013032
     7  C    0.041978  -0.006963  -0.183251  -0.232366   0.171317   0.431174
     8  C    0.051822  -0.104419   0.057957  -0.922467  -0.386075   0.074794
     9  O   -0.043003   0.243136   0.497989  -0.302989  -0.013697  -0.011286
    10  H    0.000025  -0.000183   0.046241   0.320397   0.038489  -0.009924
    11  H   -0.000009   0.000015  -0.006585   0.028880   0.332750   0.028548
    12  H    0.000002  -0.000005   0.005141  -0.011566   0.032030   0.332517
    13  H    0.000026  -0.000051  -0.006596  -0.005392  -0.002484   0.027228
    14  H   -0.002661   0.007195   0.030298  -0.014074   0.003685  -0.011661
              7          8          9         10         11         12
     1  O    0.041978   0.051822  -0.043003   0.000025  -0.000009   0.000002
     2  H   -0.006963  -0.104419   0.243136  -0.000183   0.000015  -0.000005
     3  C   -0.183251   0.057957   0.497989   0.046241  -0.006585   0.005141
     4  C   -0.232366  -0.922467  -0.302989   0.320397   0.028880  -0.011566
     5  C    0.171317  -0.386075  -0.013697   0.038489   0.332750   0.032030
     6  C    0.431174   0.074794  -0.011286  -0.009924   0.028548   0.332517
     7  C    5.611731   0.059148  -0.013064   0.001886  -0.005392   0.032798
     8  C    0.059148   6.718614  -0.106606  -0.009310   0.000672  -0.011669
     9  O   -0.013064  -0.106606   8.053157  -0.001670  -0.000197   0.000080
    10  H    0.001886  -0.009310  -0.001670   0.454568  -0.006346  -0.000043
    11  H   -0.005392   0.000672  -0.000197  -0.006346   0.481460  -0.006215
    12  H    0.032798  -0.011669   0.000080  -0.000043  -0.006215   0.479282
    13  H    0.326502   0.039471  -0.000153   0.000040  -0.000068  -0.006333
    14  H    0.040792   0.336204  -0.004766  -0.000062   0.000039  -0.000042
             13         14
     1  O    0.000026  -0.002661
     2  H   -0.000051   0.007195
     3  C   -0.006596   0.030298
     4  C   -0.005392  -0.014074
     5  C   -0.002484   0.003685
     6  C    0.027228  -0.011661
     7  C    0.326502   0.040792
     8  C    0.039471   0.336204
     9  O   -0.000153  -0.004766
    10  H    0.000040  -0.000062
    11  H   -0.000068   0.000039
    12  H   -0.006333  -0.000042
    13  H    0.481771  -0.006472
    14  H   -0.006472   0.451386
 Mulliken atomic charges:
              1
     1  O   -0.214561
     2  H    0.302771
     3  C   -0.334367
     4  C    0.163151
     5  C   -0.232583
     6  C   -0.108069
     7  C   -0.276290
     8  C    0.201864
     9  O   -0.296932
    10  H    0.165893
    11  H    0.152449
    12  H    0.154023
    13  H    0.152510
    14  H    0.170139
 Sum of Mulliken atomic charges =   0.00000
 Mulliken charges with hydrogens summed into heavy atoms:
              1
     1  O   -0.214561
     3  C   -0.334367
     4  C    0.329044
     5  C   -0.080133
     6  C    0.045954
     7  C   -0.123780
     8  C    0.372004
     9  O    0.005840
 Sum of Mulliken charges with hydrogens summed into heavy atoms =   0.00000
          Atomic-Atomic Spin Densities.
              1          2          3          4          5          6
     1  O    1.570883  -0.011667  -0.014205   0.004809   0.001307   0.002567
     2  H   -0.011667  -0.065142  -0.000997   0.012418   0.001715  -0.000032
     3  C   -0.014205  -0.000997   0.118535   0.014616   0.011998  -0.024839
     4  C    0.004809   0.012418   0.014616   0.307047  -0.004642  -0.004890
     5  C    0.001307   0.001715   0.011998  -0.004642  -0.083682   0.016191
     6  C    0.002567  -0.000032  -0.024839  -0.004890   0.016191   0.173210
     7  C   -0.007152  -0.000392  -0.068636  -0.047909  -0.020006   0.023010
     8  C    0.020592  -0.005718  -0.045789  -0.139759   0.028051  -0.027611
     9  O   -0.025578   0.022612  -0.029910  -0.030675  -0.003522   0.000444
    10  H    0.000024   0.000026   0.001270  -0.003251   0.001489  -0.000513
    11  H   -0.000001   0.000001   0.000272   0.000110  -0.000289  -0.000929
    12  H    0.000001   0.000000   0.000235  -0.000810   0.000538  -0.000452
    13  H    0.000003   0.000004  -0.000478   0.000331  -0.000192  -0.000004
    14  H   -0.002317  -0.000249   0.003183   0.001395   0.000639  -0.001055
              7          8          9         10         11         12
     1  O   -0.007152   0.020592  -0.025578   0.000024  -0.000001   0.000001
     2  H   -0.000392  -0.005718   0.022612   0.000026   0.000001   0.000000
     3  C   -0.068636  -0.045789  -0.029910   0.001270   0.000272   0.000235
     4  C   -0.047909  -0.139759  -0.030675  -0.003251   0.000110  -0.000810
     5  C   -0.020006   0.028051  -0.003522   0.001489  -0.000289   0.000538
     6  C    0.023010  -0.027611   0.000444  -0.000513  -0.000929  -0.000452
     7  C   -0.057870   0.115981   0.007680   0.000390   0.000104   0.000483
     8  C    0.115981   0.177778   0.012129  -0.000328  -0.000038  -0.000071
     9  O    0.007680   0.012129   0.319479   0.000333  -0.000008   0.000000
    10  H    0.000390  -0.000328   0.000333  -0.006230  -0.000070   0.000004
    11  H    0.000104  -0.000038  -0.000008  -0.000070   0.003262  -0.000022
    12  H    0.000483  -0.000071   0.000000   0.000004  -0.000022  -0.010189
    13  H   -0.001850   0.001260   0.000010   0.000000  -0.000004  -0.000018
    14  H    0.008560  -0.013953   0.000287  -0.000004   0.000001   0.000003
             13         14
     1  O    0.000003  -0.002317
     2  H    0.000004  -0.000249
     3  C   -0.000478   0.003183
     4  C    0.000331   0.001395
     5  C   -0.000192   0.000639
     6  C   -0.000004  -0.001055
     7  C   -0.001850   0.008560
     8  C    0.001260  -0.013953
     9  O    0.000010   0.000287
    10  H    0.000000  -0.000004
    11  H   -0.000004   0.000001
    12  H   -0.000018   0.000003
    13  H    0.003618  -0.000195
    14  H   -0.000195  -0.002794
 Mulliken atomic spin densities:
              1
     1  O    1.539266
     2  H   -0.047420
     3  C   -0.034744
     4  C    0.108789
     5  C   -0.050404
     6  C    0.155096
     7  C   -0.047608
     8  C    0.122525
     9  O    0.273281
    10  H   -0.006859
    11  H    0.002389
    12  H   -0.010299
    13  H    0.002485
    14  H   -0.006497
 Sum of Mulliken atomic spin densities =   2.00000
 Electronic spatial extent (au):  <R**2>=            996.2117
 Charge=              0.0000 electrons
 Dipole moment (field-independent basis, Debye):
    X=              3.0914    Y=              0.4586    Z=             -0.3859  Tot=              3.1490
 Quadrupole moment (field-independent basis, Debye-Ang):
   XX=            -47.2793   YY=            -42.5807   ZZ=            -50.7960
   XY=             -0.2943   XZ=              3.5614   YZ=             -2.0929
 Traceless Quadrupole moment (field-independent basis, Debye-Ang):
   XX=             -0.3939   YY=              4.3046   ZZ=             -3.9107
   XY=             -0.2943   XZ=              3.5614   YZ=             -2.0929
 Octapole moment (field-independent basis, Debye-Ang**2):
  XXX=              8.8133  YYY=             -0.0158  ZZZ=             -1.0140  XYY=              2.8815
  XXY=             -1.3365  XXZ=             -2.8850  XZZ=             -5.1090  YZZ=             -0.4788
  YYZ=              0.4952  XYZ=              1.4444
 Hexadecapole moment (field-independent basis, Debye-Ang**3):
 XXXX=           -829.1764 YYYY=           -300.7080 ZZZZ=           -102.7410 XXXY=             12.6661
 XXXZ=             35.2025 YYYX=             -0.9071 YYYZ=             -5.2922 ZZZX=              0.1209
 ZZZY=              3.1917 XXYY=           -193.8598 XXZZ=           -176.9205 YYZZ=            -76.0773
 XXYZ=             -6.5978 YYXZ=              1.5417 ZZXY=             -1.8001
 N-N= 3.334304127926D+02 E-N=-2.323405544879D+03  KE= 5.689553892115D+02
                          Isotropic Fermi Contact Couplings
        Atom                 a.u.       MegaHertz       Gauss      10(-4) cm-1
     1  O(17)              0.16919     -51.28068     -18.29822     -17.10539
     2  H(1)              -0.02228     -49.78412     -17.76421     -16.60619
     3  C(13)             -0.01369      -7.69366      -2.74529      -2.56633
     4  C(13)              0.01153       6.48124       2.31267       2.16191
     5  C(13)             -0.01152      -6.47428      -2.31019      -2.15959
     6  C(13)              0.01766       9.92615       3.54190       3.31101
     7  C(13)             -0.01207      -6.78466      -2.42094      -2.26312
     8  C(13)              0.01341       7.53857       2.68995       2.51460
     9  O(17)              0.02551      -7.73260      -2.75918      -2.57932
    10  H(1)              -0.00174      -3.88738      -1.38711      -1.29669
    11  H(1)               0.00045       1.01335       0.36159       0.33802
    12  H(1)              -0.00221      -4.93974      -1.76262      -1.64772
    13  H(1)               0.00044       0.98463       0.35134       0.32844
    14  H(1)              -0.00140      -3.11939      -1.11307      -1.04052
 --------------------------------------------------------
       Center         ----  Spin Dipole Couplings  ----
                      3XX-RR        3YY-RR        3ZZ-RR
 --------------------------------------------------------
     1   Atom        2.202162      0.304244     -2.506406
     2   Atom       -0.000373     -0.012132      0.012505
     3   Atom        0.038026     -0.006312     -0.031714
     4   Atom       -0.047848     -0.052151      0.099999
     5   Atom        0.018697      0.016548     -0.035245
     6   Atom       -0.056386     -0.073957      0.130343
     7   Atom        0.023460      0.015257     -0.038717
     8   Atom       -0.033991     -0.058024      0.092015
     9   Atom       -0.412054     -0.482736      0.894790
    10   Atom       -0.003608      0.009081     -0.005473
    11   Atom        0.001954      0.001051     -0.003005
    12   Atom        0.011447     -0.009193     -0.002254
    13   Atom        0.004481     -0.000979     -0.003502
    14   Atom        0.005819     -0.001790     -0.004029
 --------------------------------------------------------
                        XY            XZ            YZ
 --------------------------------------------------------
     1   Atom        0.403411      1.006126      1.140311
     2   Atom       -0.118476     -0.105505      0.122495
     3   Atom       -0.001668     -0.015485      0.002211
     4   Atom       -0.007622     -0.017907      0.015756
     5   Atom        0.002029      0.014372     -0.005789
     6   Atom       -0.004005     -0.047216      0.025288
     7   Atom        0.003081      0.012674     -0.007471
     8   Atom       -0.003339     -0.050770      0.018126
     9   Atom       -0.212589     -0.674170      0.550489
    10   Atom       -0.003166     -0.000945     -0.002021
    11   Atom       -0.000047      0.000404     -0.000016
    12   Atom        0.006548      0.001801      0.002274
    13   Atom        0.001250     -0.000055     -0.000846
    14   Atom        0.002282     -0.010288     -0.010037
 --------------------------------------------------------


 ---------------------------------------------------------------------------------
              Anisotropic Spin Dipole Couplings in Principal Axis System
 ---------------------------------------------------------------------------------

       Atom             a.u.   MegaHertz   Gauss  10(-4) cm-1        Axes

              Baa    -3.0404   220.004    78.503    73.385 -0.1573 -0.3016  0.9404
     1 O(17)  Bbb     0.4459   -32.262   -11.512   -10.761 -0.3432  0.9096  0.2344
              Bcc     2.5946  -187.742   -66.991   -62.624  0.9260  0.2859  0.2466
 
              Baa    -0.1316   -70.221   -25.057   -23.423  0.4361  0.8177 -0.3758
     2 H(1)   Bbb    -0.0995   -53.101   -18.948   -17.713  0.7011 -0.0469  0.7115
              Bcc     0.2311   123.322    44.004    41.136 -0.5642  0.5737  0.5937
 
              Baa    -0.0351    -4.712    -1.681    -1.572  0.2053 -0.0631  0.9767
     3 C(13)  Bbb    -0.0063    -0.844    -0.301    -0.281  0.0559  0.9970  0.0526
              Bcc     0.0414     5.556     1.982     1.853  0.9771 -0.0438 -0.2083
 
              Baa    -0.0579    -7.776    -2.775    -2.594  0.5861  0.8101 -0.0144
     4 C(13)  Bbb    -0.0459    -6.166    -2.200    -2.057  0.8011 -0.5767  0.1605
              Bcc     0.1039    13.942     4.975     4.650 -0.1218  0.1056  0.9869
 
              Baa    -0.0395    -5.301    -1.891    -1.768 -0.2419  0.1084  0.9642
     5 C(13)  Bbb     0.0172     2.302     0.821     0.768 -0.0794  0.9882 -0.1310
              Bcc     0.0223     2.999     1.070     1.000  0.9670  0.1083  0.2304
 
              Baa    -0.0773   -10.378    -3.703    -3.462 -0.1663  0.9736 -0.1564
     6 C(13)  Bbb    -0.0673    -9.024    -3.220    -3.010  0.9590  0.1966  0.2040
              Bcc     0.1446    19.402     6.923     6.472 -0.2294  0.1160  0.9664
 
              Baa    -0.0423    -5.675    -2.025    -1.893 -0.1937  0.1365  0.9715
     7 C(13)  Bbb     0.0161     2.160     0.771     0.721 -0.1286  0.9782 -0.1631
              Bcc     0.0262     3.515     1.254     1.173  0.9726  0.1565  0.1719
 
              Baa    -0.0609    -8.171    -2.915    -2.725 -0.2529  0.9474 -0.1963
     8 C(13)  Bbb    -0.0510    -6.842    -2.441    -2.282  0.9098  0.3019  0.2848
              Bcc     0.1119    15.013     5.357     5.008 -0.3290  0.1066  0.9383
 
              Baa    -0.7065    51.124    18.242    17.053  0.7710 -0.4279  0.4717
     9 O(17)  Bbb    -0.6617    47.878    17.084    15.970  0.5191  0.8513 -0.0762
              Bcc     1.3682   -99.002   -35.326   -33.023 -0.3689  0.3036  0.8785
 
              Baa    -0.0065    -3.488    -1.244    -1.163  0.4983  0.2099  0.8412
    10 H(1)   Bbb    -0.0035    -1.862    -0.664    -0.621  0.8393  0.1264 -0.5287
              Bcc     0.0100     5.349     1.909     1.784 -0.2173  0.9695 -0.1132
 
              Baa    -0.0030    -1.621    -0.578    -0.541 -0.0806  0.0029  0.9967
    11 H(1)   Bbb     0.0010     0.559     0.200     0.187  0.0514  0.9987  0.0012
              Bcc     0.0020     1.061     0.379     0.354  0.9954 -0.0513  0.0807
 
              Baa    -0.0114    -6.089    -2.173    -2.031 -0.2571  0.9485 -0.1849
    12 H(1)   Bbb    -0.0023    -1.222    -0.436    -0.408 -0.1928  0.1372  0.9716
              Bcc     0.0137     7.311     2.609     2.439  0.9470  0.2855  0.1476
 
              Baa    -0.0038    -2.013    -0.718    -0.671 -0.0400  0.3061  0.9512
    13 H(1)   Bbb    -0.0010    -0.527    -0.188    -0.176 -0.2149  0.9270 -0.3074
              Bcc     0.0048     2.540     0.906     0.847  0.9758  0.2167 -0.0287
 
              Baa    -0.0151    -8.080    -2.883    -2.695  0.3257  0.5318  0.7817
    14 H(1)   Bbb    -0.0006    -0.308    -0.110    -0.103 -0.6377  0.7340 -0.2337
              Bcc     0.0157     8.388     2.993     2.798  0.6980  0.4223 -0.5782
 

 ---------------------------------------------------------------------------------

 1\1\GINC-COMPUTE-3-045\FTS\UM062X\6-311+G(2df,2p)\C6H6O2(3)\ROOT\20-Au
 g-2017\0\\# m062x/6-311+g(2df,2p) opt=(ts,calcfc,noeigentest)\\[OH]+[O
 ]C1C=CC=CC=1_OC1C=CC=CC=1+[O]\\0,3\O,-2.9702098424,0.5400097203,0.7673
 736775\H,-2.3594004875,-0.1314375165,-0.1783223814\C,-0.4052320646,-0.
 3871703204,-0.2802315084\C,0.5845688173,-1.3219471108,0.0598095756\C,1
 .8763806618,-0.8955597496,0.2857933891\C,2.1915554057,0.4603858473,0.2
 122511283\C,1.2071065922,1.3924080708,-0.1030998959\C,-0.0857404184,0.
 979828439,-0.3584008086\O,-1.6276006884,-0.8232688666,-0.5491997153\H,
 0.3044366021,-2.3638705378,0.1252286386\H,2.6452725736,-1.6147058216,0
 .5322285443\H,3.2037545861,0.7894866179,0.4020247517\H,1.4555021668,2.
 4432837819,-0.1573060984\H,-0.8635909043,1.6847494461,-0.6208352972\\V
 ersion=EM64L-G09RevB.01\State=3-A\HF=-382.4951667\S2=2.021817\S2-1=0.\
 S2A=2.000241\RMSD=6.279e-09\RMSF=4.333e-05\Dipole=1.2155735,0.1800436,
 -0.1576435\Quadrupole=-0.2543664,3.258165,-3.0037986,-0.2702571,2.6188
 845,-1.4448944\PG=C01 [X(C6H6O2)]\\@


 IT IS A PROFOUNDLY ERRONEOUS TRUISM ... THAT WE SHOULD CULTIVATE
 THE HABIT OF THINKING OF WHAT WE ARE DOING.
 THE PRECISE OPPOSITE IS THE CASE.
 CIVILIZATION ADVANCES BY EXTENDING THE NUMBER OF IMPORTANT OPERATIONS
 WHICH WE CAN PERFORM WITHOUT THINKING ABOUT THEM.

                                    -- ALFRED NORTH WHITEHEAD
 Job cpu time:  0 days 18 hours 24 minutes 26.3 seconds.
 File lengths (MBytes):  RWF=   2528 Int=      0 D2E=      0 Chk=     32 Scr=     32
 Normal termination of Gaussian 09 at Sun Aug 20 04:10:05 2017.
