 Entering Gaussian System, Link 0=/shared/apps/gaussian/G09_LINUX_LINDA/g09/g09
 Input=/gss_gpfs_scratch/harms.n/QMscratch/[OH]+[O][O]_[O]+[O]OEst.gjf
 Output=/gss_gpfs_scratch/harms.n/QMscratch/[OH]+[O][O]_[O]+[O]OEst.log
 Initial command:
 /shared/apps/gaussian/G09_LINUX_LINDA/g09/l1.exe /gss_gpfs_scratch/harms.n/comparerTST/Gau-36449.inp -scrdir=/gss_gpfs_scratch/harms.n/comparerTST/
 Entering Link 1 = /shared/apps/gaussian/G09_LINUX_LINDA/g09/l1.exe PID=     36450.
  
 Copyright (c) 1988,1990,1992,1993,1995,1998,2003,2009,2010,
            Gaussian, Inc.  All Rights Reserved.
  
 This is part of the Gaussian(R) 09 program.  It is based on
 the Gaussian(R) 03 system (copyright 2003, Gaussian, Inc.),
 the Gaussian(R) 98 system (copyright 1998, Gaussian, Inc.),
 the Gaussian(R) 94 system (copyright 1995, Gaussian, Inc.),
 the Gaussian 92(TM) system (copyright 1992, Gaussian, Inc.),
 the Gaussian 90(TM) system (copyright 1990, Gaussian, Inc.),
 the Gaussian 88(TM) system (copyright 1988, Gaussian, Inc.),
 the Gaussian 86(TM) system (copyright 1986, Carnegie Mellon
 University), and the Gaussian 82(TM) system (copyright 1983,
 Carnegie Mellon University). Gaussian is a federally registered
 trademark of Gaussian, Inc.
  
 This software contains proprietary and confidential information,
 including trade secrets, belonging to Gaussian, Inc.
  
 This software is provided under written license and may be
 used, copied, transmitted, or stored only in accord with that
 written license.
  
 The following legend is applicable only to US Government
 contracts under FAR:
  
                    RESTRICTED RIGHTS LEGEND
  
 Use, reproduction and disclosure by the US Government is
 subject to restrictions as set forth in subparagraphs (a)
 and (c) of the Commercial Computer Software - Restricted
 Rights clause in FAR 52.227-19.
  
 Gaussian, Inc.
 340 Quinnipiac St., Bldg. 40, Wallingford CT 06492
  
  
 ---------------------------------------------------------------
 Warning -- This program may not be used in any manner that
 competes with the business of Gaussian, Inc. or will provide
 assistance to any competitor of Gaussian, Inc.  The licensee
 of this program is prohibited from giving any competitor of
 Gaussian, Inc. access to this program.  By using this program,
 the user acknowledges that Gaussian, Inc. is engaged in the
 business of creating and licensing software in the field of
 computational chemistry and represents and warrants to the
 licensee that it is not a competitor of Gaussian, Inc. and that
 it will not use this program in any manner prohibited above.
 ---------------------------------------------------------------
  

 Cite this work as:
 Gaussian 09, Revision B.01,
 M. J. Frisch, G. W. Trucks, H. B. Schlegel, G. E. Scuseria, 
 M. A. Robb, J. R. Cheeseman, G. Scalmani, V. Barone, B. Mennucci, 
 G. A. Petersson, H. Nakatsuji, M. Caricato, X. Li, H. P. Hratchian, 
 A. F. Izmaylov, J. Bloino, G. Zheng, J. L. Sonnenberg, M. Hada, 
 M. Ehara, K. Toyota, R. Fukuda, J. Hasegawa, M. Ishida, T. Nakajima, 
 Y. Honda, O. Kitao, H. Nakai, T. Vreven, J. A. Montgomery, Jr., 
 J. E. Peralta, F. Ogliaro, M. Bearpark, J. J. Heyd, E. Brothers, 
 K. N. Kudin, V. N. Staroverov, T. Keith, R. Kobayashi, J. Normand, 
 K. Raghavachari, A. Rendell, J. C. Burant, S. S. Iyengar, J. Tomasi, 
 M. Cossi, N. Rega, J. M. Millam, M. Klene, J. E. Knox, J. B. Cross, 
 V. Bakken, C. Adamo, J. Jaramillo, R. Gomperts, R. E. Stratmann, 
 O. Yazyev, A. J. Austin, R. Cammi, C. Pomelli, J. W. Ochterski, 
 R. L. Martin, K. Morokuma, V. G. Zakrzewski, G. A. Voth, 
 P. Salvador, J. J. Dannenberg, S. Dapprich, A. D. Daniels, 
 O. Farkas, J. B. Foresman, J. V. Ortiz, J. Cioslowski, 
 and D. J. Fox, Gaussian, Inc., Wallingford CT, 2010.
 
 ******************************************
 Gaussian 09:  EM64L-G09RevB.01 12-Aug-2010
                31-Jul-2017 
 ******************************************
 %nprocshared=20
 Will use up to   20 processors via shared memory.
 %mem=5GB
 ----------------------------------------------------------
 # m062x/6-311+g(2df,2p) Opt=(ModRedun,Loose) Int(Grid=SG1)
 ----------------------------------------------------------
 1/7=-1,14=-1,18=120,19=15,26=2,38=1/1,3;
 2/9=110,12=2,17=6,18=5,40=1/2;
 3/5=4,6=6,7=214,11=2,16=1,25=1,30=1,71=1,74=-55,75=1/1,2,3;
 4//1;
 5/5=2,38=5/2;
 6/7=2,8=2,9=2,10=2,28=1/1;
 7//1,2,3,16;
 1/7=-1,14=-1,18=20,19=15/3(2);
 2/9=110/2;
 99//99;
 2/9=110/2;
 3/5=4,6=6,7=214,11=2,16=1,25=1,30=1,71=1,74=-55,75=1/1,2,3;
 4/5=5,16=3/1;
 5/5=2,38=5/2;
 7//1,2,3,16;
 1/7=-1,14=-1,18=20,19=15/3(-5);
 2/9=110/2;
 6/7=2,8=2,9=2,10=2,19=2,28=1/1;
 99/9=1/99;
 --------------------
 [OH]+[O][O]_[O]+[O]O
 --------------------
 Symbolic Z-matrix:
 Charge =  0 Multiplicity = 4
 O                     0.5224    0.1703    0.1191 
 O                     1.7715   -0.1806   -0.0396 
 O                    -1.7577   -0.1936    0.0284 
 H                    -0.5362    0.2039   -0.1079 
 
 The following ModRedundant input section has been read:
 B       3       4 F                                                           
 B       1       3 F                                                           
 B       1       4 F                                                           

 GradGradGradGradGradGradGradGradGradGradGradGradGradGradGradGradGradGrad
 Berny optimization.
 Initialization pass.
                           ----------------------------
                           !    Initial Parameters    !
                           ! (Angstroms and Degrees)  !
 --------------------------                            --------------------------
 ! Name  Definition              Value          Derivative Info.                !
 --------------------------------------------------------------------------------
 ! R1    R(1,2)                  1.3071         estimate D2E/DX2                !
 ! R2    R(1,3)                  2.3107         Frozen                          !
 ! R3    R(1,4)                  1.0832         Frozen                          !
 ! R4    R(3,4)                  1.2918         Frozen                          !
 ! A1    A(2,1,4)              156.4632         estimate D2E/DX2                !
 ! A2    A(1,4,3)              153.1875         estimate D2E/DX2                !
 ! D1    D(2,1,4,3)             94.9684         estimate D2E/DX2                !
 --------------------------------------------------------------------------------
 Trust Radius=3.00D-01 FncErr=1.00D-05 GrdErr=1.00D-04
 Number of steps in this run=     20 maximum allowed number of steps=    100.
 GradGradGradGradGradGradGradGradGradGradGradGradGradGradGradGradGradGrad

                          Input orientation:                          
 ---------------------------------------------------------------------
 Center     Atomic      Atomic             Coordinates (Angstroms)
 Number     Number       Type             X           Y           Z
 ---------------------------------------------------------------------
      1          8           0        0.522400    0.170300    0.119100
      2          8           0        1.771500   -0.180600   -0.039600
      3          8           0       -1.757700   -0.193600    0.028400
      4          1           0       -0.536200    0.203900   -0.107900
 ---------------------------------------------------------------------
                    Distance matrix (angstroms):
                    1          2          3          4
     1  O    0.000000
     2  O    1.307122   0.000000
     3  O    2.310737   3.529879   0.000000
     4  H    1.083186   2.340509   1.291761   0.000000
 Stoichiometry    HO3(4)
 Framework group  C1[X(HO3)]
 Deg. of freedom     6
 Full point group                 C1      NOp   1
 Largest Abelian subgroup         C1      NOp   1
 Largest concise Abelian subgroup C1      NOp   1
                         Standard orientation:                         
 ---------------------------------------------------------------------
 Center     Atomic      Atomic             Coordinates (Angstroms)
 Number     Number       Type             X           Y           Z
 ---------------------------------------------------------------------
      1          8           0       -0.375649    0.237627   -0.024698
      2          8           0       -1.619314   -0.163486    0.006486
      3          8           0        1.909989   -0.101667   -0.009068
      4          1           0        0.679798    0.220214    0.218242
 ---------------------------------------------------------------------
 Rotational constants (GHZ):    315.4170290      4.9035995      4.8337952
 Standard basis: 6-311+G(2df,2p) (5D, 7F)
 There are   111 symmetry adapted basis functions of A   symmetry.
 Integral buffers will be    131072 words long.
 Raffenetti 2 integral format.
 Two-electron integral symmetry is turned on.
   111 basis functions,   167 primitive gaussians,   126 cartesian basis functions
    14 alpha electrons       11 beta electrons
       nuclear repulsion energy        59.1551527729 Hartrees.
 NAtoms=    4 NActive=    4 NUniq=    4 SFac= 1.00D+00 NAtFMM=   50 NAOKFM=F Big=F
 One-electron integrals computed using PRISM.
 NBasis=   111 RedAO= T  NBF=   111
 NBsUse=   111 1.00D-06 NBFU=   111
 Harris functional with IExCor= 1009 diagonalized for initial guess.
 ExpMin= 8.45D-02 ExpMax= 8.59D+03 ExpMxC= 1.30D+03 IAcc=2 IRadAn=         1 AccDes= 0.00D+00
 HarFok:  IExCor= 1009 AccDes= 0.00D+00 IRadAn=         1 IDoV= 1
 ScaDFX=  1.000000  1.000000  1.000000  1.000000
 FoFCou: FMM=F IPFlag=           0 FMFlag=      100000 FMFlg1=           0
         NFxFlg=           0 DoJE=T BraDBF=F KetDBF=T FulRan=T
         Omega=  0.000000  0.000000  1.000000  0.000000  0.000000 ICntrl=     500 IOpCl=  0
         NMat0=    1 NMatS0=    1 NMatT0=    0 NMatD0=    1 NMtDS0=    0 NMtDT0=    0
         I1Cent=           4 NGrid=           0.
 Petite list used in FoFCou.
 Initial guess orbital symmetries:
 Alpha Orbitals:
       Occupied  (A) (A) (A) (A) (A) (A) (A) (A) (A) (A) (A) (A)
                 (A) (A)
       Virtual   (A) (A) (A) (A) (A) (A) (A) (A) (A) (A) (A) (A)
                 (A) (A) (A) (A) (A) (A) (A) (A) (A) (A) (A) (A)
                 (A) (A) (A) (A) (A) (A) (A) (A) (A) (A) (A) (A)
                 (A) (A) (A) (A) (A) (A) (A) (A) (A) (A) (A) (A)
                 (A) (A) (A) (A) (A) (A) (A) (A) (A) (A) (A) (A)
                 (A) (A) (A) (A) (A) (A) (A) (A) (A) (A) (A) (A)
                 (A) (A) (A) (A) (A) (A) (A) (A) (A) (A) (A) (A)
                 (A) (A) (A) (A) (A) (A) (A) (A) (A) (A) (A) (A)
                 (A)
 Beta  Orbitals:
       Occupied  (A) (A) (A) (A) (A) (A) (A) (A) (A) (A) (A)
       Virtual   (A) (A) (A) (A) (A) (A) (A) (A) (A) (A) (A) (A)
                 (A) (A) (A) (A) (A) (A) (A) (A) (A) (A) (A) (A)
                 (A) (A) (A) (A) (A) (A) (A) (A) (A) (A) (A) (A)
                 (A) (A) (A) (A) (A) (A) (A) (A) (A) (A) (A) (A)
                 (A) (A) (A) (A) (A) (A) (A) (A) (A) (A) (A) (A)
                 (A) (A) (A) (A) (A) (A) (A) (A) (A) (A) (A) (A)
                 (A) (A) (A) (A) (A) (A) (A) (A) (A) (A) (A) (A)
                 (A) (A) (A) (A) (A) (A) (A) (A) (A) (A) (A) (A)
                 (A) (A) (A) (A)
 The electronic state of the initial guess is 4-A.
 Initial guess <Sx>= 0.0000 <Sy>= 0.0000 <Sz>= 1.5000 <S**2>= 3.7500 S= 1.5000
 Requested convergence on RMS density matrix=1.00D-08 within 128 cycles.
 Requested convergence on MAX density matrix=1.00D-06.
 Requested convergence on             energy=1.00D-06.
 No special actions if energy rises.
 Keep R1 and R2 ints in memory in canonical form, NReq=66047054.
 SCF Done:  E(UM062X) =  -225.932540449     A.U. after   44 cycles
             Convg  =    0.2380D-08             -V/T =  2.0033
 <Sx>= 0.0000 <Sy>= 0.0000 <Sz>= 1.5000 <S**2>= 3.7755 S= 1.5064
 <L.S>= 0.000000000000E+00
 Annihilation of the first spin contaminant:
 S**2 before annihilation     3.7755,   after     3.7503

 **********************************************************************

            Population analysis using the SCF density.

 **********************************************************************

 Orbital symmetries:
 Alpha Orbitals:
       Occupied  (A) (A) (A) (A) (A) (A) (A) (A) (A) (A) (A) (A)
                 (A) (A)
       Virtual   (A) (A) (A) (A) (A) (A) (A) (A) (A) (A) (A) (A)
                 (A) (A) (A) (A) (A) (A) (A) (A) (A) (A) (A) (A)
                 (A) (A) (A) (A) (A) (A) (A) (A) (A) (A) (A) (A)
                 (A) (A) (A) (A) (A) (A) (A) (A) (A) (A) (A) (A)
                 (A) (A) (A) (A) (A) (A) (A) (A) (A) (A) (A) (A)
                 (A) (A) (A) (A) (A) (A) (A) (A) (A) (A) (A) (A)
                 (A) (A) (A) (A) (A) (A) (A) (A) (A) (A) (A) (A)
                 (A) (A) (A) (A) (A) (A) (A) (A) (A) (A) (A) (A)
                 (A)
 Beta  Orbitals:
       Occupied  (A) (A) (A) (A) (A) (A) (A) (A) (A) (A) (A)
       Virtual   (A) (A) (A) (A) (A) (A) (A) (A) (A) (A) (A) (A)
                 (A) (A) (A) (A) (A) (A) (A) (A) (A) (A) (A) (A)
                 (A) (A) (A) (A) (A) (A) (A) (A) (A) (A) (A) (A)
                 (A) (A) (A) (A) (A) (A) (A) (A) (A) (A) (A) (A)
                 (A) (A) (A) (A) (A) (A) (A) (A) (A) (A) (A) (A)
                 (A) (A) (A) (A) (A) (A) (A) (A) (A) (A) (A) (A)
                 (A) (A) (A) (A) (A) (A) (A) (A) (A) (A) (A) (A)
                 (A) (A) (A) (A) (A) (A) (A) (A) (A) (A) (A) (A)
                 (A) (A) (A) (A)
 The electronic state is 4-A.
 Alpha  occ. eigenvalues --  -19.86305 -19.84796 -19.66908  -1.43709  -1.11945
 Alpha  occ. eigenvalues --   -1.05104  -0.75024  -0.69848  -0.69105  -0.50348
 Alpha  occ. eigenvalues --   -0.49759  -0.46709  -0.44357  -0.41246
 Alpha virt. eigenvalues --    0.02865   0.06812   0.11865   0.12184   0.13607
 Alpha virt. eigenvalues --    0.16313   0.17992   0.18333   0.23989   0.24519
 Alpha virt. eigenvalues --    0.24668   0.33498   0.36777   0.37668   0.57045
 Alpha virt. eigenvalues --    0.74589   0.77878   0.91444   0.93665   0.95491
 Alpha virt. eigenvalues --    1.02588   1.05555   1.06106   1.06947   1.10188
 Alpha virt. eigenvalues --    1.15161   1.20478   1.24508   1.25437   1.30725
 Alpha virt. eigenvalues --    1.43548   1.47981   1.49546   1.51584   1.52721
 Alpha virt. eigenvalues --    1.56626   1.63359   1.73756   1.81621   1.93709
 Alpha virt. eigenvalues --    2.20324   2.21487   2.34477   2.48848   2.65823
 Alpha virt. eigenvalues --    2.91143   3.68868   3.74071   3.97089   4.41802
 Alpha virt. eigenvalues --    4.46670   4.58110   4.62088   4.82178   4.82260
 Alpha virt. eigenvalues --    4.88274   4.89418   4.93014   4.95625   4.96921
 Alpha virt. eigenvalues --    4.97524   4.99216   5.00168   5.02149   5.02788
 Alpha virt. eigenvalues --    5.03097   5.03747   5.06197   5.08301   5.10583
 Alpha virt. eigenvalues --    5.17418   5.25550   5.38116   5.42267   5.48655
 Alpha virt. eigenvalues --    5.92056   6.32794   6.47120   6.47764   6.62108
 Alpha virt. eigenvalues --    6.62609   6.62898   6.64061   6.64553   6.78004
 Alpha virt. eigenvalues --    6.78946   6.86722   6.93612   7.11881   7.20475
 Alpha virt. eigenvalues --    7.30698   7.39039   7.86360   8.00430  49.78819
 Alpha virt. eigenvalues --   49.82309  49.92779
  Beta  occ. eigenvalues --  -19.83834 -19.82773 -19.64794  -1.36694  -1.03201
  Beta  occ. eigenvalues --   -0.94196  -0.69939  -0.57448  -0.56321  -0.39300
  Beta  occ. eigenvalues --   -0.34184
  Beta virt. eigenvalues --   -0.17082  -0.15644  -0.06911   0.05365   0.07105
  Beta virt. eigenvalues --    0.13145   0.13442   0.14963   0.16669   0.18736
  Beta virt. eigenvalues --    0.19366   0.24038   0.24617   0.25259   0.34411
  Beta virt. eigenvalues --    0.36527   0.37353   0.57497   0.75903   0.79773
  Beta virt. eigenvalues --    0.93945   0.96745   0.98618   1.04515   1.08249
  Beta virt. eigenvalues --    1.08850   1.10952   1.12567   1.15966   1.22685
  Beta virt. eigenvalues --    1.26784   1.27548   1.33415   1.46774   1.51753
  Beta virt. eigenvalues --    1.51853   1.55862   1.57027   1.60508   1.66121
  Beta virt. eigenvalues --    1.76118   1.84589   1.95452   2.22125   2.23470
  Beta virt. eigenvalues --    2.35948   2.48688   2.66051   2.88885   3.68429
  Beta virt. eigenvalues --    3.74391   3.96454   4.44700   4.48640   4.60441
  Beta virt. eigenvalues --    4.63666   4.84635   4.84718   4.93966   4.94215
  Beta virt. eigenvalues --    4.96991   4.99422   4.99682   5.00446   5.01306
  Beta virt. eigenvalues --    5.05694   5.05873   5.06847   5.07748   5.08719
  Beta virt. eigenvalues --    5.09571   5.11026   5.14208   5.19656   5.27967
  Beta virt. eigenvalues --    5.40261   5.43911   5.50154   5.93241   6.35122
  Beta virt. eigenvalues --    6.57480   6.58261   6.65211   6.72884   6.73221
  Beta virt. eigenvalues --    6.79261   6.79900   6.83544   6.87043   6.98161
  Beta virt. eigenvalues --    6.98535   7.15626   7.24444   7.33830   7.45302
  Beta virt. eigenvalues --    7.88049   8.01388  49.77679  49.81004  49.91955
          Condensed to atoms (all electrons):
              1          2          3          4
     1  O    7.750116   0.240347   0.038374   0.053160
     2  O    0.240347   7.750224   0.002842  -0.024588
     3  O    0.038374   0.002842   8.191950   0.157982
     4  H    0.053160  -0.024588   0.157982   0.371479
 Mulliken atomic charges:
              1
     1  O   -0.081996
     2  O    0.031176
     3  O   -0.391147
     4  H    0.441967
 Sum of Mulliken atomic charges =   0.00000
 Mulliken charges with hydrogens summed into heavy atoms:
              1
     1  O    0.359971
     2  O    0.031176
     3  O   -0.391147
 Sum of Mulliken charges with hydrogens summed into heavy atoms =   0.00000
          Atomic-Atomic Spin Densities.
              1          2          3          4
     1  O    1.010469  -0.261375  -0.006848   0.046145
     2  O   -0.261375   1.278282   0.008454   0.007536
     3  O   -0.006848   0.008454   1.250290  -0.012344
     4  H    0.046145   0.007536  -0.012344  -0.102176
 Mulliken atomic spin densities:
              1
     1  O    0.788391
     2  O    1.032897
     3  O    1.239551
     4  H   -0.060839
 Sum of Mulliken atomic spin densities =   3.00000
 Electronic spatial extent (au):  <R**2>=            228.3323
 Charge=              0.0000 electrons
 Dipole moment (field-independent basis, Debye):
    X=             -2.9980    Y=              0.4102    Z=              0.4000  Tot=              3.0523
 Quadrupole moment (field-independent basis, Debye-Ang):
   XX=            -21.4455   YY=            -17.2631   ZZ=            -15.7425
   XY=              0.6114   XZ=              0.4247   YZ=              0.0875
 Traceless Quadrupole moment (field-independent basis, Debye-Ang):
   XX=             -3.2952   YY=              0.8873   ZZ=              2.4079
   XY=              0.6114   XZ=              0.4247   YZ=              0.0875
 Octapole moment (field-independent basis, Debye-Ang**2):
  XXX=            -18.8728  YYY=              0.4700  ZZZ=              0.1301  XYY=             -2.7129
  XXY=              0.5060  XXZ=              0.7924  XZZ=             -0.6835  YZZ=              0.0392
  YYZ=              0.0689  XYZ=             -0.1866
 Hexadecapole moment (field-independent basis, Debye-Ang**3):
 XXXX=           -245.1244 YYYY=            -17.3438 ZZZZ=            -11.7762 XXXY=              1.5572
 XXXZ=              2.1632 YYYX=              0.7051 YYYZ=              0.0306 ZZZX=              0.2315
 ZZZY=              0.0272 XXYY=            -43.0300 XXZZ=            -37.3690 YYZZ=             -4.8311
 XXYZ=             -0.1629 YYXZ=              0.1695 ZZXY=              0.0818
 N-N= 5.915515277293D+01 E-N=-9.570912937480D+02  KE= 3.328395753463D+02
                          Isotropic Fermi Contact Couplings
        Atom                 a.u.       MegaHertz       Gauss      10(-4) cm-1
     1  O(17)              0.09888     -19.98023      -7.12944      -6.66469
     2  O(17)              0.17237     -34.82915     -12.42791     -11.61776
     3  O(17)              0.14582     -29.46589     -10.51416      -9.82876
     4  H(1)              -0.02830     -42.16751     -15.04642     -14.06557
 --------------------------------------------------------
       Center         ----  Spin Dipole Couplings  ----
                      3XX-RR        3YY-RR        3ZZ-RR
 --------------------------------------------------------
     1   Atom       -1.704482      0.779061      0.925421
     2   Atom       -2.151375      0.318229      1.833146
     3   Atom       -0.842780     -2.089276      2.932056
     4   Atom        0.274085     -0.155353     -0.118732
 --------------------------------------------------------
                        XY            XZ            YZ
 --------------------------------------------------------
     1   Atom       -1.078350     -0.001351      0.085061
     2   Atom       -1.212462     -0.032080      0.300276
     3   Atom        0.486142      0.981864     -0.480676
     4   Atom       -0.029995      0.000310      0.018314
 --------------------------------------------------------


 ---------------------------------------------------------------------------------
              Anisotropic Spin Dipole Couplings in Principal Axis System
 ---------------------------------------------------------------------------------

       Atom             a.u.   MegaHertz   Gauss  10(-4) cm-1        Axes

              Baa    -2.1076   152.506    54.418    50.870  0.9366  0.3502 -0.0094
     1 O(17)  Bbb     0.9027   -65.318   -23.307   -21.788  0.1051 -0.2553  0.9611
              Bcc     1.2049   -87.188   -31.111   -29.083 -0.3342  0.9012  0.2759
 
              Baa    -2.6487   191.658    68.388    63.930  0.9249  0.3799 -0.0188
     2 O(17)  Bbb     0.7373   -53.353   -19.038   -17.797 -0.3718  0.8925 -0.2554
              Bcc     1.9114  -138.305   -49.351   -46.134 -0.0802  0.2432  0.9666
 
              Baa    -2.3772   172.014    61.379    57.378 -0.3865  0.9094  0.1538
     3 O(17)  Bbb    -0.8187    59.240    21.138    19.760  0.8936  0.4105 -0.1813
              Bcc     3.1959  -231.253   -82.517   -77.138  0.2280 -0.0674  0.9713
 
              Baa    -0.1647   -87.884   -31.359   -29.315  0.0636  0.9270 -0.3696
     4 H(1)   Bbb    -0.1115   -59.468   -21.220   -19.837  0.0279  0.3686  0.9292
              Bcc     0.2762   147.353    52.579    49.152  0.9976 -0.0694 -0.0024
 

 ---------------------------------------------------------------------------------

 Calling FoFJK, ICntrl=      2127 FMM=F ISym2X=0 I1Cent= 0 IOpClX= 1 NMat=1 NMatS=1 NMatT=0.
 ***** Axes restored to original set *****
 -------------------------------------------------------------------
 Center     Atomic                   Forces (Hartrees/Bohr)
 Number     Number              X              Y              Z
 -------------------------------------------------------------------
      1        8           0.195605808   -0.006287586    0.024641094
      2        8          -0.113721770    0.020994662    0.002082380
      3        8           0.051522644    0.020824886   -0.010680499
      4        1          -0.133406682   -0.035531962   -0.016042975
 -------------------------------------------------------------------
 Cartesian Forces:  Max     0.195605808 RMS     0.078954456

 GradGradGradGradGradGradGradGradGradGradGradGradGradGradGradGradGradGrad
 Berny optimization.
 Internal  Forces:  Max     0.114554047 RMS     0.059684688
 Search for a local minimum.
 Step number   1 out of a maximum of   20
 All quantities printed in internal units (Hartrees-Bohrs-Radians)
 Mixed Optimization -- RFO/linear search
 Second derivative matrix not updated -- first step.
 The second derivative matrix:
                          R1        R2        R3        R4        A1
           R1           0.65253
           R2           0.00000   0.04906
           R3           0.00000   0.00000   0.35612
           R4           0.00000   0.00000   0.00000   0.19019
           A1           0.00000   0.00000   0.00000   0.00000   0.16000
           A2           0.00000   0.00000   0.00000   0.00000   0.00000
           D1           0.00000   0.00000   0.00000   0.00000   0.00000
                          A2        D1
           A2           0.25000
           D1           0.00000   0.00230
 ITU=  0
     Eigenvalues ---    0.00230   0.16000   0.652531000.000001000.00000
     Eigenvalues --- 1000.000001000.00000
 RFO step:  Lambda=-2.76813306D-02 EMin= 2.30000000D-03
 Linear search not attempted -- first point.
 Iteration  1 RMS(Cart)=  0.11392478 RMS(Int)=  0.02315772
 Iteration  2 RMS(Cart)=  0.01378586 RMS(Int)=  0.00019438
 Iteration  3 RMS(Cart)=  0.00019460 RMS(Int)=  0.00000004
 Iteration  4 RMS(Cart)=  0.00000003 RMS(Int)=  0.00000000
 Iteration  1 RMS(Cart)=  0.00000000 RMS(Int)=  0.00000000
 Variable       Old X    -DE/DX   Delta X   Delta X   Delta X     New X
                                 (Linear)    (Quad)   (Total)
    R1        2.47010  -0.11455   0.00000  -0.16841  -0.16841   2.30169
    R2        4.36666   0.01112   0.00000   0.00000   0.00000   4.36666
    R3        2.04692   0.07439   0.00000   0.00000   0.00000   2.04692
    R4        2.44107  -0.06712   0.00000   0.00000   0.00000   2.44107
    A1        2.73080  -0.03956   0.00000  -0.21079  -0.21079   2.52001
    A2        2.67363   0.00919   0.00000   0.00000   0.00000   2.67363
    D1        1.65751  -0.00123   0.00000  -0.04104  -0.04104   1.61648
         Item               Value     Threshold  Converged?
 Maximum Force            0.114554     0.002500     NO 
 RMS     Force            0.060600     0.001667     NO 
 Maximum Displacement     0.225087     0.010000     NO 
 RMS     Displacement     0.124200     0.006667     NO 
 Predicted change in Energy=-1.487148D-02
 GradGradGradGradGradGradGradGradGradGradGradGradGradGradGradGradGradGrad

                          Input orientation:                          
 ---------------------------------------------------------------------
 Center     Atomic      Atomic             Coordinates (Angstroms)
 Number     Number       Type             X           Y           Z
 ---------------------------------------------------------------------
      1          8           0        0.550498    0.247440    0.158309
      2          8           0        1.652389   -0.223269   -0.060329
      3          8           0       -1.706595   -0.227451    0.018618
      4          1           0       -0.496292    0.203279   -0.116597
 ---------------------------------------------------------------------
                    Distance matrix (angstroms):
                    1          2          3          4
     1  O    0.000000
     2  O    1.218004   0.000000
     3  O    2.310737   3.359915   0.000000
     4  H    1.083186   2.191332   1.291761   0.000000
 Stoichiometry    HO3(4)
 Framework group  C1[X(HO3)]
 Deg. of freedom     6
 Full point group                 C1      NOp   1
 Largest Abelian subgroup         C1      NOp   1
 Largest concise Abelian subgroup C1      NOp   1
                         Standard orientation:                         
 ---------------------------------------------------------------------
 Center     Atomic      Atomic             Coordinates (Angstroms)
 Number     Number       Type             X           Y           Z
 ---------------------------------------------------------------------
      1          8           0       -0.419109    0.318851   -0.021644
      2          8           0       -1.508701   -0.224916    0.003678
      3          8           0        1.849540   -0.120060   -0.012075
      4          1           0        0.626163    0.209006    0.240332
 ---------------------------------------------------------------------
 Rotational constants (GHZ):    182.0765468      5.3543965      5.2084972
 Standard basis: 6-311+G(2df,2p) (5D, 7F)
 There are   111 symmetry adapted basis functions of A   symmetry.
 Integral buffers will be    131072 words long.
 Raffenetti 2 integral format.
 Two-electron integral symmetry is turned on.
   111 basis functions,   167 primitive gaussians,   126 cartesian basis functions
    14 alpha electrons       11 beta electrons
       nuclear repulsion energy        61.6593807238 Hartrees.
 NAtoms=    4 NActive=    4 NUniq=    4 SFac= 1.00D+00 NAtFMM=   50 NAOKFM=F Big=F
 One-electron integrals computed using PRISM.
 NBasis=   111 RedAO= T  NBF=   111
 NBsUse=   111 1.00D-06 NBFU=   111
 Initial guess read from the read-write file.
 B after Tr=     0.000000    0.000000    0.000000
         Rot=    1.000000    0.000000    0.000000    0.000000 Ang=   0.00 deg.
 Initial guess orbital symmetries:
 Alpha Orbitals:
       Occupied  (A) (A) (A) (A) (A) (A) (A) (A) (A) (A) (A) (A)
                 (A) (A)
       Virtual   (A) (A) (A) (A) (A) (A) (A) (A) (A) (A) (A) (A)
                 (A) (A) (A) (A) (A) (A) (A) (A) (A) (A) (A) (A)
                 (A) (A) (A) (A) (A) (A) (A) (A) (A) (A) (A) (A)
                 (A) (A) (A) (A) (A) (A) (A) (A) (A) (A) (A) (A)
                 (A) (A) (A) (A) (A) (A) (A) (A) (A) (A) (A) (A)
                 (A) (A) (A) (A) (A) (A) (A) (A) (A) (A) (A) (A)
                 (A) (A) (A) (A) (A) (A) (A) (A) (A) (A) (A) (A)
                 (A) (A) (A) (A) (A) (A) (A) (A) (A) (A) (A) (A)
                 (A)
 Beta  Orbitals:
       Occupied  (A) (A) (A) (A) (A) (A) (A) (A) (A) (A) (A)
       Virtual   (A) (A) (A) (A) (A) (A) (A) (A) (A) (A) (A) (A)
                 (A) (A) (A) (A) (A) (A) (A) (A) (A) (A) (A) (A)
                 (A) (A) (A) (A) (A) (A) (A) (A) (A) (A) (A) (A)
                 (A) (A) (A) (A) (A) (A) (A) (A) (A) (A) (A) (A)
                 (A) (A) (A) (A) (A) (A) (A) (A) (A) (A) (A) (A)
                 (A) (A) (A) (A) (A) (A) (A) (A) (A) (A) (A) (A)
                 (A) (A) (A) (A) (A) (A) (A) (A) (A) (A) (A) (A)
                 (A) (A) (A) (A) (A) (A) (A) (A) (A) (A) (A) (A)
                 (A) (A) (A) (A)
 Initial guess <Sx>= 0.0000 <Sy>= 0.0000 <Sz>= 1.5000 <S**2>= 3.7752 S= 1.5063
 Harris functional with IExCor= 1009 diagonalized for initial guess.
 ExpMin= 8.45D-02 ExpMax= 8.59D+03 ExpMxC= 1.30D+03 IAcc=2 IRadAn=         1 AccDes= 0.00D+00
 HarFok:  IExCor= 1009 AccDes= 0.00D+00 IRadAn=         1 IDoV= 1
 ScaDFX=  1.000000  1.000000  1.000000  1.000000
 FoFCou: FMM=F IPFlag=           0 FMFlag=      100000 FMFlg1=           0
         NFxFlg=           0 DoJE=T BraDBF=F KetDBF=T FulRan=T
         Omega=  0.000000  0.000000  1.000000  0.000000  0.000000 ICntrl=     500 IOpCl=  0
         NMat0=    1 NMatS0=    1 NMatT0=    0 NMatD0=    1 NMtDS0=    0 NMtDT0=    0
         I1Cent=           4 NGrid=           0.
 Petite list used in FoFCou.
 Requested convergence on RMS density matrix=1.00D-08 within 128 cycles.
 Requested convergence on MAX density matrix=1.00D-06.
 Requested convergence on             energy=1.00D-06.
 No special actions if energy rises.
 Keep R1 and R2 ints in memory in canonical form, NReq=66047054.
 SCF Done:  E(UM062X) =  -225.954145399     A.U. after   37 cycles
             Convg  =    0.1671D-08             -V/T =  2.0023
 <Sx>= 0.0000 <Sy>= 0.0000 <Sz>= 1.5000 <S**2>= 3.7737 S= 1.5059
 <L.S>= 0.000000000000E+00
 Annihilation of the first spin contaminant:
 S**2 before annihilation     3.7737,   after     3.7502
 Calling FoFJK, ICntrl=      2127 FMM=F ISym2X=0 I1Cent= 0 IOpClX= 1 NMat=1 NMatS=1 NMatT=0.
 ***** Axes restored to original set *****
 -------------------------------------------------------------------
 Center     Atomic                   Forces (Hartrees/Bohr)
 Number     Number              X              Y              Z
 -------------------------------------------------------------------
      1        8           0.108402466    0.025212204    0.036233973
      2        8          -0.029851110   -0.001457189   -0.007815142
      3        8           0.044885847    0.020163321   -0.011007623
      4        1          -0.123437204   -0.043918335   -0.017411209
 -------------------------------------------------------------------
 Cartesian Forces:  Max     0.123437204 RMS     0.053747186

 GradGradGradGradGradGradGradGradGradGradGradGradGradGradGradGradGradGrad
 Berny optimization.
 Using GEDIIS/GDIIS optimizer.
 Internal  Forces:  Max     0.071402295 RMS     0.040871953
 Search for a local minimum.
 Step number   2 out of a maximum of   20
 All quantities printed in internal units (Hartrees-Bohrs-Radians)
 Mixed Optimization -- RFO/linear search
 Update second derivatives using D2CorX and points    1    2
 DE= -2.16D-02 DEPred=-1.49D-02 R= 1.45D+00
 SS=  1.41D+00  RLast= 2.73D-01 DXNew= 5.0454D-01 8.1871D-01
 Trust test= 1.45D+00 RLast= 2.73D-01 DXMaxT set to 5.05D-01
 The second derivative matrix:
                          R1        R2        R3        R4        A1
           R1           0.72974
           R2           0.01203   0.04933
           R3          -0.01828  -0.00040   0.35673
           R4           0.02678   0.00059  -0.00089   0.19150
           A1          -0.15901  -0.00031   0.00048  -0.00070   0.11598
           A2           0.00687   0.00015  -0.00023   0.00034  -0.00018
           D1           0.00456   0.00011  -0.00017   0.00024  -0.00025
                          A2        D1
           A2           0.25009
           D1           0.00006   0.00234
 ITU=  1  0
 Use linear search instead of GDIIS.
     Eigenvalues ---    0.00231   0.07724   0.768521000.000001000.00000
     Eigenvalues --- 1000.000001000.00000
 RFO step:  Lambda=-6.63477718D-03 EMin= 2.30901680D-03
 Quartic linear search produced a step of  0.47647.
 Iteration  1 RMS(Cart)=  0.08862083 RMS(Int)=  0.07116356
 Iteration  2 RMS(Cart)=  0.04740441 RMS(Int)=  0.00376713
 Iteration  3 RMS(Cart)=  0.00402601 RMS(Int)=  0.00003052
 Iteration  4 RMS(Cart)=  0.00001345 RMS(Int)=  0.00000006
 Iteration  5 RMS(Cart)=  0.00000000 RMS(Int)=  0.00000006
 Iteration  1 RMS(Cart)=  0.00000002 RMS(Int)=  0.00000005
 Variable       Old X    -DE/DX   Delta X   Delta X   Delta X     New X
                                 (Linear)    (Quad)   (Total)
    R1        2.30169  -0.02499  -0.08024  -0.00666  -0.08690   2.21479
    R2        4.36666   0.01309   0.00000   0.00000   0.00000   4.36666
    R3        2.04692   0.07140   0.00000   0.00000   0.00000   2.04692
    R4        2.44107  -0.06275   0.00000   0.00000   0.00000   2.44107
    A1        2.52001  -0.04190  -0.10043  -0.21813  -0.31857   2.20144
    A2        2.67363   0.01031   0.00000   0.00000   0.00000   2.67363
    D1        1.61648  -0.00042  -0.01955   0.36733   0.34778   1.96426
         Item               Value     Threshold  Converged?
 Maximum Force            0.041904     0.002500     NO 
 RMS     Force            0.024396     0.001667     NO 
 Maximum Displacement     0.225783     0.010000     NO 
 RMS     Displacement     0.136948     0.006667     NO 
 Predicted change in Energy=-1.110476D-02
 GradGradGradGradGradGradGradGradGradGradGradGradGradGradGradGradGradGrad

                          Input orientation:                          
 ---------------------------------------------------------------------
 Center     Atomic      Atomic             Coordinates (Angstroms)
 Number     Number       Type             X           Y           Z
 ---------------------------------------------------------------------
      1          8           0        0.567683    0.332026    0.223563
      2          8           0        1.532910   -0.250946   -0.095978
      3          8           0       -1.663223   -0.230671    0.009236
      4          1           0       -0.437370    0.149591   -0.136821
 ---------------------------------------------------------------------
                    Distance matrix (angstroms):
                    1          2          3          4
     1  O    0.000000
     2  O    1.172018   0.000000
     3  O    2.310737   3.197928   0.000000
     4  H    1.083186   2.010995   1.291761   0.000000
 Stoichiometry    HO3(4)
 Framework group  C1[X(HO3)]
 Deg. of freedom     6
 Full point group                 C1      NOp   1
 Largest Abelian subgroup         C1      NOp   1
 Largest concise Abelian subgroup C1      NOp   1
                         Standard orientation:                         
 ---------------------------------------------------------------------
 Center     Atomic      Atomic             Coordinates (Angstroms)
 Number     Number       Type             X           Y           Z
 ---------------------------------------------------------------------
      1          8           0       -0.457533    0.403471   -0.014944
      2          8           0       -1.402580   -0.289594   -0.001784
      3          8           0        1.791239   -0.128064   -0.014963
      4          1           0        0.550992    0.113487    0.253528
 ---------------------------------------------------------------------
 Rotational constants (GHZ):    117.7858164      5.8422151      5.5747605
 Standard basis: 6-311+G(2df,2p) (5D, 7F)
 There are   111 symmetry adapted basis functions of A   symmetry.
 Integral buffers will be    131072 words long.
 Raffenetti 2 integral format.
 Two-electron integral symmetry is turned on.
   111 basis functions,   167 primitive gaussians,   126 cartesian basis functions
    14 alpha electrons       11 beta electrons
       nuclear repulsion energy        63.4342067924 Hartrees.
 NAtoms=    4 NActive=    4 NUniq=    4 SFac= 1.00D+00 NAtFMM=   50 NAOKFM=F Big=F
 One-electron integrals computed using PRISM.
 NBasis=   111 RedAO= T  NBF=   111
 NBsUse=   111 1.00D-06 NBFU=   111
 Initial guess read from the read-write file.
 B after Tr=     0.000000    0.000000    0.000000
         Rot=    1.000000    0.000000    0.000000    0.000000 Ang=   0.00 deg.
 Initial guess orbital symmetries:
 Alpha Orbitals:
       Occupied  (A) (A) (A) (A) (A) (A) (A) (A) (A) (A) (A) (A)
                 (A) (A)
       Virtual   (A) (A) (A) (A) (A) (A) (A) (A) (A) (A) (A) (A)
                 (A) (A) (A) (A) (A) (A) (A) (A) (A) (A) (A) (A)
                 (A) (A) (A) (A) (A) (A) (A) (A) (A) (A) (A) (A)
                 (A) (A) (A) (A) (A) (A) (A) (A) (A) (A) (A) (A)
                 (A) (A) (A) (A) (A) (A) (A) (A) (A) (A) (A) (A)
                 (A) (A) (A) (A) (A) (A) (A) (A) (A) (A) (A) (A)
                 (A) (A) (A) (A) (A) (A) (A) (A) (A) (A) (A) (A)
                 (A) (A) (A) (A) (A) (A) (A) (A) (A) (A) (A) (A)
                 (A)
 Beta  Orbitals:
       Occupied  (A) (A) (A) (A) (A) (A) (A) (A) (A) (A) (A)
       Virtual   (A) (A) (A) (A) (A) (A) (A) (A) (A) (A) (A) (A)
                 (A) (A) (A) (A) (A) (A) (A) (A) (A) (A) (A) (A)
                 (A) (A) (A) (A) (A) (A) (A) (A) (A) (A) (A) (A)
                 (A) (A) (A) (A) (A) (A) (A) (A) (A) (A) (A) (A)
                 (A) (A) (A) (A) (A) (A) (A) (A) (A) (A) (A) (A)
                 (A) (A) (A) (A) (A) (A) (A) (A) (A) (A) (A) (A)
                 (A) (A) (A) (A) (A) (A) (A) (A) (A) (A) (A) (A)
                 (A) (A) (A) (A) (A) (A) (A) (A) (A) (A) (A) (A)
                 (A) (A) (A) (A)
 Initial guess <Sx>= 0.0000 <Sy>= 0.0000 <Sz>= 1.5000 <S**2>= 3.7738 S= 1.5059
 Harris functional with IExCor= 1009 diagonalized for initial guess.
 ExpMin= 8.45D-02 ExpMax= 8.59D+03 ExpMxC= 1.30D+03 IAcc=2 IRadAn=         1 AccDes= 0.00D+00
 HarFok:  IExCor= 1009 AccDes= 0.00D+00 IRadAn=         1 IDoV= 1
 ScaDFX=  1.000000  1.000000  1.000000  1.000000
 FoFCou: FMM=F IPFlag=           0 FMFlag=      100000 FMFlg1=           0
         NFxFlg=           0 DoJE=T BraDBF=F KetDBF=T FulRan=T
         Omega=  0.000000  0.000000  1.000000  0.000000  0.000000 ICntrl=     500 IOpCl=  0
         NMat0=    1 NMatS0=    1 NMatT0=    0 NMatD0=    1 NMtDS0=    0 NMtDT0=    0
         I1Cent=           4 NGrid=           0.
 Petite list used in FoFCou.
 Requested convergence on RMS density matrix=1.00D-08 within 128 cycles.
 Requested convergence on MAX density matrix=1.00D-06.
 Requested convergence on             energy=1.00D-06.
 No special actions if energy rises.
 Keep R1 and R2 ints in memory in canonical form, NReq=66046882.
 >>>>>>>>>> Convergence criterion not met.
 SCF Done:  E(UM062X) =  -225.964080859     A.U. after  129 cycles
             Convg  =    0.2326D-04             -V/T =  2.0014
 <Sx>= 0.0000 <Sy>= 0.0000 <Sz>= 1.5000 <S**2>= 3.7746 S= 1.5061
 <L.S>= 0.000000000000E+00
 Annihilation of the first spin contaminant:
 S**2 before annihilation     3.7746,   after     3.7502
 Convergence failure -- run terminated.
 Error termination via Lnk1e in /shared/apps/gaussian/G09_LINUX_LINDA/g09/l502.exe at Mon Jul 31 09:48:29 2017.
 Job cpu time:  0 days  1 hours 40 minutes 59.8 seconds.
 File lengths (MBytes):  RWF=   1216 Int=      0 D2E=      0 Chk=     32 Scr=     32
