 Entering Gaussian System, Link 0=/shared/apps/gaussian/G09_LINUX_LINDA/g09/g09
 Input=/gss_gpfs_scratch/harms.n/QMscratch/[OH]+[O]O_O+[O][O]Est.gjf
 Output=/gss_gpfs_scratch/harms.n/QMscratch/[OH]+[O]O_O+[O][O]Est.log
 Initial command:
 /shared/apps/gaussian/G09_LINUX_LINDA/g09/l1.exe /gss_gpfs_scratch/harms.n/comparerTST/Gau-37441.inp -scrdir=/gss_gpfs_scratch/harms.n/comparerTST/
 Entering Link 1 = /shared/apps/gaussian/G09_LINUX_LINDA/g09/l1.exe PID=     37442.
  
 Copyright (c) 1988,1990,1992,1993,1995,1998,2003,2009,2010,
            Gaussian, Inc.  All Rights Reserved.
  
 This is part of the Gaussian(R) 09 program.  It is based on
 the Gaussian(R) 03 system (copyright 2003, Gaussian, Inc.),
 the Gaussian(R) 98 system (copyright 1998, Gaussian, Inc.),
 the Gaussian(R) 94 system (copyright 1995, Gaussian, Inc.),
 the Gaussian 92(TM) system (copyright 1992, Gaussian, Inc.),
 the Gaussian 90(TM) system (copyright 1990, Gaussian, Inc.),
 the Gaussian 88(TM) system (copyright 1988, Gaussian, Inc.),
 the Gaussian 86(TM) system (copyright 1986, Carnegie Mellon
 University), and the Gaussian 82(TM) system (copyright 1983,
 Carnegie Mellon University). Gaussian is a federally registered
 trademark of Gaussian, Inc.
  
 This software contains proprietary and confidential information,
 including trade secrets, belonging to Gaussian, Inc.
  
 This software is provided under written license and may be
 used, copied, transmitted, or stored only in accord with that
 written license.
  
 The following legend is applicable only to US Government
 contracts under FAR:
  
                    RESTRICTED RIGHTS LEGEND
  
 Use, reproduction and disclosure by the US Government is
 subject to restrictions as set forth in subparagraphs (a)
 and (c) of the Commercial Computer Software - Restricted
 Rights clause in FAR 52.227-19.
  
 Gaussian, Inc.
 340 Quinnipiac St., Bldg. 40, Wallingford CT 06492
  
  
 ---------------------------------------------------------------
 Warning -- This program may not be used in any manner that
 competes with the business of Gaussian, Inc. or will provide
 assistance to any competitor of Gaussian, Inc.  The licensee
 of this program is prohibited from giving any competitor of
 Gaussian, Inc. access to this program.  By using this program,
 the user acknowledges that Gaussian, Inc. is engaged in the
 business of creating and licensing software in the field of
 computational chemistry and represents and warrants to the
 licensee that it is not a competitor of Gaussian, Inc. and that
 it will not use this program in any manner prohibited above.
 ---------------------------------------------------------------
  

 Cite this work as:
 Gaussian 09, Revision B.01,
 M. J. Frisch, G. W. Trucks, H. B. Schlegel, G. E. Scuseria, 
 M. A. Robb, J. R. Cheeseman, G. Scalmani, V. Barone, B. Mennucci, 
 G. A. Petersson, H. Nakatsuji, M. Caricato, X. Li, H. P. Hratchian, 
 A. F. Izmaylov, J. Bloino, G. Zheng, J. L. Sonnenberg, M. Hada, 
 M. Ehara, K. Toyota, R. Fukuda, J. Hasegawa, M. Ishida, T. Nakajima, 
 Y. Honda, O. Kitao, H. Nakai, T. Vreven, J. A. Montgomery, Jr., 
 J. E. Peralta, F. Ogliaro, M. Bearpark, J. J. Heyd, E. Brothers, 
 K. N. Kudin, V. N. Staroverov, T. Keith, R. Kobayashi, J. Normand, 
 K. Raghavachari, A. Rendell, J. C. Burant, S. S. Iyengar, J. Tomasi, 
 M. Cossi, N. Rega, J. M. Millam, M. Klene, J. E. Knox, J. B. Cross, 
 V. Bakken, C. Adamo, J. Jaramillo, R. Gomperts, R. E. Stratmann, 
 O. Yazyev, A. J. Austin, R. Cammi, C. Pomelli, J. W. Ochterski, 
 R. L. Martin, K. Morokuma, V. G. Zakrzewski, G. A. Voth, 
 P. Salvador, J. J. Dannenberg, S. Dapprich, A. D. Daniels, 
 O. Farkas, J. B. Foresman, J. V. Ortiz, J. Cioslowski, 
 and D. J. Fox, Gaussian, Inc., Wallingford CT, 2010.
 
 ******************************************
 Gaussian 09:  EM64L-G09RevB.01 12-Aug-2010
                31-Jul-2017 
 ******************************************
 %nprocshared=20
 Will use up to   20 processors via shared memory.
 %mem=5GB
 ----------------------------------------------------------
 # m062x/6-311+g(2df,2p) Opt=(ModRedun,Loose) Int(Grid=SG1)
 ----------------------------------------------------------
 1/7=-1,14=-1,18=120,19=15,26=2,38=1/1,3;
 2/9=110,12=2,17=6,18=5,40=1/2;
 3/5=4,6=6,7=214,11=2,16=1,25=1,30=1,71=1,74=-55,75=1/1,2,3;
 4//1;
 5/5=2,38=5/2;
 6/7=2,8=2,9=2,10=2,28=1/1;
 7//1,2,3,16;
 1/7=-1,14=-1,18=20,19=15/3(2);
 2/9=110/2;
 99//99;
 2/9=110/2;
 3/5=4,6=6,7=214,11=2,16=1,25=1,30=1,71=1,74=-55,75=1/1,2,3;
 4/5=5,16=3/1;
 5/5=2,38=5/2;
 7//1,2,3,16;
 1/7=-1,14=-1,18=20,19=15/3(-5);
 2/9=110/2;
 6/7=2,8=2,9=2,10=2,19=2,28=1/1;
 99/9=1/99;
 ------------------
 [OH]+[O]O_O+[O][O]
 ------------------
 Symbolic Z-matrix:
 Charge =  0 Multiplicity = 3
 O                     1.0355    0.3745   -0.3278 
 O                     2.0683   -0.1076    0.3307 
 H                     0.2087   -0.1908   -0.1594 
 O                    -1.2289   -0.2838   -0.0059 
 H                    -2.0836    0.2077    0.1623 
 
 The following ModRedundant input section has been read:
 B       1       3 F                                                           
 B       1       4 F                                                           
 B       3       4 F                                                           

 GradGradGradGradGradGradGradGradGradGradGradGradGradGradGradGradGradGrad
 Berny optimization.
 Initialization pass.
                           ----------------------------
                           !    Initial Parameters    !
                           ! (Angstroms and Degrees)  !
 --------------------------                            --------------------------
 ! Name  Definition              Value          Derivative Info.                !
 --------------------------------------------------------------------------------
 ! R1    R(1,2)                  1.3163         estimate D2E/DX2                !
 ! R2    R(1,3)                  1.0156         Frozen                          !
 ! R3    R(1,4)                  2.38           Frozen                          !
 ! R4    R(3,4)                  1.4488         Frozen                          !
 ! R5    R(4,5)                  1.0002         estimate D2E/DX2                !
 ! A1    A(2,1,3)              110.6053         estimate D2E/DX2                !
 ! A2    A(1,3,4)              149.4398         estimate D2E/DX2                !
 ! A3    A(3,4,5)              146.5358         estimate D2E/DX2                !
 ! D1    D(2,1,3,4)            146.9711         estimate D2E/DX2                !
 ! D2    D(1,3,4,5)            -16.8481         estimate D2E/DX2                !
 --------------------------------------------------------------------------------
 Trust Radius=3.00D-01 FncErr=1.00D-05 GrdErr=1.00D-04
 Number of steps in this run=     20 maximum allowed number of steps=    100.
 GradGradGradGradGradGradGradGradGradGradGradGradGradGradGradGradGradGrad

                          Input orientation:                          
 ---------------------------------------------------------------------
 Center     Atomic      Atomic             Coordinates (Angstroms)
 Number     Number       Type             X           Y           Z
 ---------------------------------------------------------------------
      1          8           0        1.035500    0.374500   -0.327800
      2          8           0        2.068300   -0.107600    0.330700
      3          1           0        0.208700   -0.190800   -0.159400
      4          8           0       -1.228900   -0.283800   -0.005900
      5          1           0       -2.083600    0.207700    0.162300
 ---------------------------------------------------------------------
                    Distance matrix (angstroms):
                    1          2          3          4          5
     1  O    0.000000
     2  O    1.316328   0.000000
     3  H    1.015638   1.924898   0.000000
     4  O    2.380018   3.319017   1.448760   0.000000
     5  H    3.161772   4.167259   2.348815   1.000188   0.000000
 Stoichiometry    H2O3(3)
 Framework group  C1[X(H2O3)]
 Deg. of freedom     9
 Full point group                 C1      NOp   1
 Largest Abelian subgroup         C1      NOp   1
 Largest concise Abelian subgroup C1      NOp   1
                         Standard orientation:                         
 ---------------------------------------------------------------------
 Center     Atomic      Atomic             Coordinates (Angstroms)
 Number     Number       Type             X           Y           Z
 ---------------------------------------------------------------------
      1          8           0        0.540692    0.489750   -0.007732
      2          8           0        1.565847   -0.335002    0.031756
      3          1           0       -0.315562   -0.014179   -0.218455
      4          8           0       -1.747534   -0.163028   -0.056578
      5          1           0       -2.556476    0.080415    0.478888
 ---------------------------------------------------------------------
 Rotational constants (GHZ):     79.0222929      5.0735113      4.7974971
 Standard basis: 6-311+G(2df,2p) (5D, 7F)
 There are   120 symmetry adapted basis functions of A   symmetry.
 Integral buffers will be    131072 words long.
 Raffenetti 2 integral format.
 Two-electron integral symmetry is turned on.
   120 basis functions,   178 primitive gaussians,   135 cartesian basis functions
    14 alpha electrons       12 beta electrons
       nuclear repulsion energy        66.2649096682 Hartrees.
 NAtoms=    5 NActive=    5 NUniq=    5 SFac= 1.00D+00 NAtFMM=   50 NAOKFM=F Big=F
 One-electron integrals computed using PRISM.
 NBasis=   120 RedAO= T  NBF=   120
 NBsUse=   120 1.00D-06 NBFU=   120
 Harris functional with IExCor= 1009 diagonalized for initial guess.
 ExpMin= 8.45D-02 ExpMax= 8.59D+03 ExpMxC= 1.30D+03 IAcc=2 IRadAn=         1 AccDes= 0.00D+00
 HarFok:  IExCor= 1009 AccDes= 0.00D+00 IRadAn=         1 IDoV= 1
 ScaDFX=  1.000000  1.000000  1.000000  1.000000
 FoFCou: FMM=F IPFlag=           0 FMFlag=      100000 FMFlg1=           0
         NFxFlg=           0 DoJE=T BraDBF=F KetDBF=T FulRan=T
         Omega=  0.000000  0.000000  1.000000  0.000000  0.000000 ICntrl=     500 IOpCl=  0
         NMat0=    1 NMatS0=    1 NMatT0=    0 NMatD0=    1 NMtDS0=    0 NMtDT0=    0
         I1Cent=           4 NGrid=           0.
 Petite list used in FoFCou.
 Initial guess orbital symmetries:
 Alpha Orbitals:
       Occupied  (A) (A) (A) (A) (A) (A) (A) (A) (A) (A) (A) (A)
                 (A) (A)
       Virtual   (A) (A) (A) (A) (A) (A) (A) (A) (A) (A) (A) (A)
                 (A) (A) (A) (A) (A) (A) (A) (A) (A) (A) (A) (A)
                 (A) (A) (A) (A) (A) (A) (A) (A) (A) (A) (A) (A)
                 (A) (A) (A) (A) (A) (A) (A) (A) (A) (A) (A) (A)
                 (A) (A) (A) (A) (A) (A) (A) (A) (A) (A) (A) (A)
                 (A) (A) (A) (A) (A) (A) (A) (A) (A) (A) (A) (A)
                 (A) (A) (A) (A) (A) (A) (A) (A) (A) (A) (A) (A)
                 (A) (A) (A) (A) (A) (A) (A) (A) (A) (A) (A) (A)
                 (A) (A) (A) (A) (A) (A) (A) (A) (A) (A)
 Beta  Orbitals:
       Occupied  (A) (A) (A) (A) (A) (A) (A) (A) (A) (A) (A) (A)
       Virtual   (A) (A) (A) (A) (A) (A) (A) (A) (A) (A) (A) (A)
                 (A) (A) (A) (A) (A) (A) (A) (A) (A) (A) (A) (A)
                 (A) (A) (A) (A) (A) (A) (A) (A) (A) (A) (A) (A)
                 (A) (A) (A) (A) (A) (A) (A) (A) (A) (A) (A) (A)
                 (A) (A) (A) (A) (A) (A) (A) (A) (A) (A) (A) (A)
                 (A) (A) (A) (A) (A) (A) (A) (A) (A) (A) (A) (A)
                 (A) (A) (A) (A) (A) (A) (A) (A) (A) (A) (A) (A)
                 (A) (A) (A) (A) (A) (A) (A) (A) (A) (A) (A) (A)
                 (A) (A) (A) (A) (A) (A) (A) (A) (A) (A) (A) (A)
 The electronic state of the initial guess is 3-A.
 Initial guess <Sx>= 0.0000 <Sy>= 0.0000 <Sz>= 1.0000 <S**2>= 2.0000 S= 1.0000
 Requested convergence on RMS density matrix=1.00D-08 within 128 cycles.
 Requested convergence on MAX density matrix=1.00D-06.
 Requested convergence on             energy=1.00D-06.
 No special actions if energy rises.
 Keep R1 and R2 ints in memory in canonical form, NReq=86315298.
 SCF Done:  E(UM062X) =  -226.624822279     A.U. after   31 cycles
             Convg  =    0.2516D-08             -V/T =  2.0026
 <Sx>= 0.0000 <Sy>= 0.0000 <Sz>= 1.0000 <S**2>= 2.0115 S= 1.0038
 <L.S>= 0.000000000000E+00
 Annihilation of the first spin contaminant:
 S**2 before annihilation     2.0115,   after     2.0001

 **********************************************************************

            Population analysis using the SCF density.

 **********************************************************************

 Orbital symmetries:
 Alpha Orbitals:
       Occupied  (A) (A) (A) (A) (A) (A) (A) (A) (A) (A) (A) (A)
                 (A) (A)
       Virtual   (A) (A) (A) (A) (A) (A) (A) (A) (A) (A) (A) (A)
                 (A) (A) (A) (A) (A) (A) (A) (A) (A) (A) (A) (A)
                 (A) (A) (A) (A) (A) (A) (A) (A) (A) (A) (A) (A)
                 (A) (A) (A) (A) (A) (A) (A) (A) (A) (A) (A) (A)
                 (A) (A) (A) (A) (A) (A) (A) (A) (A) (A) (A) (A)
                 (A) (A) (A) (A) (A) (A) (A) (A) (A) (A) (A) (A)
                 (A) (A) (A) (A) (A) (A) (A) (A) (A) (A) (A) (A)
                 (A) (A) (A) (A) (A) (A) (A) (A) (A) (A) (A) (A)
                 (A) (A) (A) (A) (A) (A) (A) (A) (A) (A)
 Beta  Orbitals:
       Occupied  (A) (A) (A) (A) (A) (A) (A) (A) (A) (A) (A) (A)
       Virtual   (A) (A) (A) (A) (A) (A) (A) (A) (A) (A) (A) (A)
                 (A) (A) (A) (A) (A) (A) (A) (A) (A) (A) (A) (A)
                 (A) (A) (A) (A) (A) (A) (A) (A) (A) (A) (A) (A)
                 (A) (A) (A) (A) (A) (A) (A) (A) (A) (A) (A) (A)
                 (A) (A) (A) (A) (A) (A) (A) (A) (A) (A) (A) (A)
                 (A) (A) (A) (A) (A) (A) (A) (A) (A) (A) (A) (A)
                 (A) (A) (A) (A) (A) (A) (A) (A) (A) (A) (A) (A)
                 (A) (A) (A) (A) (A) (A) (A) (A) (A) (A) (A) (A)
                 (A) (A) (A) (A) (A) (A) (A) (A) (A) (A) (A) (A)
 The electronic state is 3-A.
 Alpha  occ. eigenvalues --  -19.73869 -19.73175 -19.70559  -1.32364  -1.19040
 Alpha  occ. eigenvalues --   -0.97848  -0.68378  -0.59132  -0.58583  -0.56179
 Alpha  occ. eigenvalues --   -0.54166  -0.48906  -0.37912  -0.37188
 Alpha virt. eigenvalues --    0.02951   0.10570   0.11475   0.13163   0.14586
 Alpha virt. eigenvalues --    0.16285   0.17650   0.20568   0.23060   0.24042
 Alpha virt. eigenvalues --    0.24573   0.28029   0.31125   0.33296   0.36241
 Alpha virt. eigenvalues --    0.44023   0.59076   0.64221   0.69368   0.78541
 Alpha virt. eigenvalues --    0.82682   0.93238   0.98225   1.00037   1.03335
 Alpha virt. eigenvalues --    1.05896   1.07055   1.09907   1.11394   1.13711
 Alpha virt. eigenvalues --    1.27887   1.32280   1.32994   1.38992   1.42933
 Alpha virt. eigenvalues --    1.44704   1.51578   1.54079   1.59369   1.62046
 Alpha virt. eigenvalues --    1.69366   1.76206   1.93761   2.08965   2.12544
 Alpha virt. eigenvalues --    2.20673   2.21779   2.29517   2.46369   2.57856
 Alpha virt. eigenvalues --    2.72555   2.88043   3.56623   3.67174   3.75100
 Alpha virt. eigenvalues --    3.84116   4.03162   4.12123   4.45258   4.60602
 Alpha virt. eigenvalues --    4.66881   4.70888   4.81977   4.93302   4.94679
 Alpha virt. eigenvalues --    4.95344   4.96172   4.97211   4.99274   5.01216
 Alpha virt. eigenvalues --    5.02283   5.03733   5.08029   5.08407   5.13499
 Alpha virt. eigenvalues --    5.17925   5.19644   5.29209   5.30550   5.40402
 Alpha virt. eigenvalues --    5.42704   5.55508   5.66718   6.31882   6.36914
 Alpha virt. eigenvalues --    6.59555   6.61015   6.65536   6.70281   6.74011
 Alpha virt. eigenvalues --    6.78394   6.79676   6.87113   6.92237   6.96234
 Alpha virt. eigenvalues --    6.97183   7.11977   7.23641   7.25208   7.50486
 Alpha virt. eigenvalues --    7.63160   7.80359   7.87491  49.85149  49.92161
 Alpha virt. eigenvalues --   49.95122
  Beta  occ. eigenvalues --  -19.72357 -19.72258 -19.68970  -1.28488  -1.11499
  Beta  occ. eigenvalues --   -0.92380  -0.65400  -0.55748  -0.53204  -0.47872
  Beta  occ. eigenvalues --   -0.45332  -0.33490
  Beta virt. eigenvalues --   -0.16281  -0.05658   0.03276   0.10950   0.11838
  Beta virt. eigenvalues --    0.13734   0.14870   0.16122   0.17896   0.21025
  Beta virt. eigenvalues --    0.23369   0.24542   0.26458   0.27917   0.31566
  Beta virt. eigenvalues --    0.34084   0.36010   0.44740   0.59469   0.64515
  Beta virt. eigenvalues --    0.70060   0.79175   0.85542   0.93640   0.98454
  Beta virt. eigenvalues --    1.00838   1.06945   1.07223   1.09456   1.10523
  Beta virt. eigenvalues --    1.13619   1.15164   1.28970   1.34350   1.35474
  Beta virt. eigenvalues --    1.40924   1.44830   1.47405   1.54049   1.57741
  Beta virt. eigenvalues --    1.60915   1.65100   1.71512   1.77689   1.95143
  Beta virt. eigenvalues --    2.10216   2.13915   2.21371   2.23144   2.29704
  Beta virt. eigenvalues --    2.46897   2.58406   2.73473   2.88738   3.57874
  Beta virt. eigenvalues --    3.68271   3.76277   3.85006   4.03161   4.12552
  Beta virt. eigenvalues --    4.48736   4.61454   4.68283   4.70859   4.83466
  Beta virt. eigenvalues --    4.96612   4.98332   4.99021   5.01001   5.01957
  Beta virt. eigenvalues --    5.03419   5.04786   5.06171   5.08662   5.09812
  Beta virt. eigenvalues --    5.12118   5.15135   5.19083   5.21329   5.31057
  Beta virt. eigenvalues --    5.32347   5.41062   5.45524   5.56715   5.68714
  Beta virt. eigenvalues --    6.34853   6.37768   6.71981   6.72727   6.75452
  Beta virt. eigenvalues --    6.76726   6.81910   6.84015   6.85050   6.90768
  Beta virt. eigenvalues --    6.97443   6.99003   7.00944   7.22346   7.25464
  Beta virt. eigenvalues --    7.30424   7.54132   7.64615   7.82593   7.88034
  Beta virt. eigenvalues --   49.84763  49.91686  49.94378
          Condensed to atoms (all electrons):
              1          2          3          4          5
     1  O    7.757839   0.188465   0.255599   0.017537   0.003662
     2  O    0.188465   8.012992  -0.057627   0.013653  -0.001151
     3  H    0.255599  -0.057627   0.393526  -0.015055   0.004660
     4  O    0.017537   0.013653  -0.015055   8.043810   0.257164
     5  H    0.003662  -0.001151   0.004660   0.257164   0.458021
 Mulliken atomic charges:
              1
     1  O   -0.223102
     2  O   -0.156331
     3  H    0.418897
     4  O   -0.317109
     5  H    0.277645
 Sum of Mulliken atomic charges =   0.00000
 Mulliken charges with hydrogens summed into heavy atoms:
              1
     1  O    0.195796
     2  O   -0.156331
     4  O   -0.039464
 Sum of Mulliken charges with hydrogens summed into heavy atoms =   0.00000
          Atomic-Atomic Spin Densities.
              1          2          3          4          5
     1  O    0.497870  -0.162584   0.011126   0.000050  -0.000430
     2  O   -0.162584   0.931587  -0.004655   0.003953   0.000413
     3  H    0.011126  -0.004655  -0.015050  -0.020247  -0.002285
     4  O    0.000050   0.003953  -0.020247   0.950901   0.004652
     5  H   -0.000430   0.000413  -0.002285   0.004652  -0.025291
 Mulliken atomic spin densities:
              1
     1  O    0.346031
     2  O    0.768713
     3  H   -0.031112
     4  O    0.939308
     5  H   -0.022941
 Sum of Mulliken atomic spin densities =   2.00000
 Electronic spatial extent (au):  <R**2>=            236.6345
 Charge=              0.0000 electrons
 Dipole moment (field-independent basis, Debye):
    X=             -4.0382    Y=              0.0727    Z=              0.5782  Tot=              4.0801
 Quadrupole moment (field-independent basis, Debye-Ang):
   XX=            -12.1646   YY=            -18.6808   ZZ=            -16.6933
   XY=             -0.5554   XZ=             -2.4314   YZ=              0.5026
 Traceless Quadrupole moment (field-independent basis, Debye-Ang):
   XX=              3.6816   YY=             -2.8345   ZZ=             -0.8470
   XY=             -0.5554   XZ=             -2.4314   YZ=              0.5026
 Octapole moment (field-independent basis, Debye-Ang**2):
  XXX=            -29.5626  YYY=              0.2590  ZZZ=              0.4265  XYY=             -0.6224
  XXY=              1.6505  XXZ=              6.2193  XZZ=             -1.2325  YZZ=             -0.0778
  YYZ=              0.0070  XYZ=             -1.1045
 Hexadecapole moment (field-independent basis, Debye-Ang**3):
 XXXX=           -156.5748 YYYY=            -28.0256 ZZZZ=            -14.0898 XXXY=             -2.8945
 XXXZ=            -17.9520 YYYX=             -0.1850 YYYZ=              0.3394 ZZZX=             -1.4954
 ZZZY=              0.3746 XXYY=            -42.4136 XXZZ=            -35.8711 YYZZ=             -6.9436
 XXYZ=              2.1089 YYXZ=              0.0555 ZZXY=             -0.2297
 N-N= 6.626490966820D+01 E-N=-9.891554133138D+02  KE= 3.358767711859D+02
                          Isotropic Fermi Contact Couplings
        Atom                 a.u.       MegaHertz       Gauss      10(-4) cm-1
     1  O(17)              0.06438     -19.51231      -6.96248      -6.50861
     2  O(17)              0.11082     -33.59075     -11.98601     -11.20467
     3  H(1)              -0.01464     -32.71564     -11.67375     -10.91276
     4  O(17)              0.11861     -35.95023     -12.82793     -11.99171
     5  H(1)              -0.01514     -33.84436     -12.07651     -11.28926
 --------------------------------------------------------
       Center         ----  Spin Dipole Couplings  ----
                      3XX-RR        3YY-RR        3ZZ-RR
 --------------------------------------------------------
     1   Atom       -0.627669     -0.724985      1.352655
     2   Atom       -1.382037     -1.569966      2.952003
     3   Atom        0.150725     -0.078683     -0.072042
     4   Atom        0.021460     -0.197123      0.175663
     5   Atom        0.090772     -0.079427     -0.011345
 --------------------------------------------------------
                        XY            XZ            YZ
 --------------------------------------------------------
     1   Atom        0.341129     -0.359971     -0.304491
     2   Atom        0.255475     -0.489057     -0.407656
     3   Atom        0.057536     -0.002277      0.012270
     4   Atom        1.689693      1.865975      1.775927
     5   Atom       -0.028608     -0.090910      0.062672
 --------------------------------------------------------


 ---------------------------------------------------------------------------------
              Anisotropic Spin Dipole Couplings in Principal Axis System
 ---------------------------------------------------------------------------------

       Atom             a.u.   MegaHertz   Gauss  10(-4) cm-1        Axes

              Baa    -1.0209    73.873    26.360    24.642 -0.6568  0.7541 -0.0029
     1 O(17)  Bbb    -0.4547    32.903    11.741    10.975  0.7292  0.6360  0.2524
              Bcc     1.4756  -106.776   -38.100   -35.617 -0.1921 -0.1637  0.9676
 
              Baa    -1.7490   126.553    45.157    42.214 -0.5589  0.8291  0.0137
     2 O(17)  Bbb    -1.2983    93.946    33.522    31.337  0.8212  0.5512  0.1474
              Bcc     3.0473  -220.499   -78.680   -73.551 -0.1146 -0.0937  0.9890
 
              Baa    -0.0982   -52.414   -18.703   -17.483 -0.2070  0.8789 -0.4297
     3 H(1)   Bbb    -0.0661   -35.274   -12.587   -11.766 -0.1013  0.4176  0.9030
              Bcc     0.1643    87.688    31.289    29.250  0.9731  0.2305  0.0026
 
              Baa    -1.7975   130.064    46.410    43.385 -0.1508  0.8014 -0.5787
     4 O(17)  Bbb    -1.7664   127.813    45.607    42.634  0.8011 -0.2440 -0.5466
              Bcc     3.5638  -257.877   -92.017   -86.018  0.5793  0.5460  0.6052
 
              Baa    -0.1199   -63.955   -22.821   -21.333 -0.1423  0.8009 -0.5817
     5 H(1)   Bbb    -0.0379   -20.227    -7.218    -6.747  0.5601  0.5497  0.6198
              Bcc     0.1578    84.182    30.038    28.080  0.8161 -0.2376 -0.5268
 

 ---------------------------------------------------------------------------------

 Calling FoFJK, ICntrl=      2127 FMM=F ISym2X=0 I1Cent= 0 IOpClX= 1 NMat=1 NMatS=1 NMatT=0.
 ***** Axes restored to original set *****
 -------------------------------------------------------------------
 Center     Atomic                   Forces (Hartrees/Bohr)
 Number     Number              X              Y              Z
 -------------------------------------------------------------------
      1        8           0.021224002   -0.003599240    0.004415581
      2        8          -0.023717619    0.003508654   -0.008920763
      3        1           0.020296315    0.009321315    0.002270367
      4        8          -0.043500107   -0.001084108    0.005705271
      5        1           0.025697410   -0.008146621   -0.003470457
 -------------------------------------------------------------------
 Cartesian Forces:  Max     0.043500107 RMS     0.016943162

 GradGradGradGradGradGradGradGradGradGradGradGradGradGradGradGradGradGrad
 Berny optimization.
 Internal  Forces:  Max     0.026555031 RMS     0.014457782
 Search for a local minimum.
 Step number   1 out of a maximum of   20
 All quantities printed in internal units (Hartrees-Bohrs-Radians)
 Mixed Optimization -- RFO/linear search
 Second derivative matrix not updated -- first step.
 The second derivative matrix:
                          R1        R2        R3        R4        R5
           R1           0.62855
           R2           0.00000   0.45041
           R3           0.00000   0.00000   0.04363
           R4           0.00000   0.00000   0.00000   0.12769
           R5           0.00000   0.00000   0.00000   0.00000   0.47655
           A1           0.00000   0.00000   0.00000   0.00000   0.00000
           A2           0.00000   0.00000   0.00000   0.00000   0.00000
           A3           0.00000   0.00000   0.00000   0.00000   0.00000
           D1           0.00000   0.00000   0.00000   0.00000   0.00000
           D2           0.00000   0.00000   0.00000   0.00000   0.00000
                          A1        A2        A3        D1        D2
           A1           0.16000
           A2           0.00000   0.25000
           A3           0.00000   0.00000   0.16000
           D1           0.00000   0.00000   0.00000   0.00822
           D2           0.00000   0.00000   0.00000   0.00000   0.00230
 ITU=  0
     Eigenvalues ---    0.00230   0.00822   0.16000   0.16000   0.47655
     Eigenvalues ---    0.628551000.000001000.000001000.000001000.00000
 RFO step:  Lambda=-5.50909443D-03 EMin= 2.30000000D-03
 Linear search not attempted -- first point.
 Iteration  1 RMS(Cart)=  0.10815660 RMS(Int)=  0.00721372
 Iteration  2 RMS(Cart)=  0.00586339 RMS(Int)=  0.00001496
 Iteration  3 RMS(Cart)=  0.00001233 RMS(Int)=  0.00000000
 Iteration  4 RMS(Cart)=  0.00000000 RMS(Int)=  0.00000000
 Iteration  1 RMS(Cart)=  0.00000000 RMS(Int)=  0.00000000
 Variable       Old X    -DE/DX   Delta X   Delta X   Delta X     New X
                                 (Linear)    (Quad)   (Total)
    R1        2.48750  -0.02445   0.00000  -0.03856  -0.03856   2.44894
    R2        1.91928  -0.00834   0.00000   0.00000   0.00000   1.91928
    R3        4.49758   0.00749   0.00000   0.00000   0.00000   4.49758
    R4        2.73776   0.01120   0.00000   0.00000   0.00000   2.73776
    R5        1.89008  -0.02656   0.00000  -0.05509  -0.05509   1.83499
    A1        1.93043  -0.01889   0.00000  -0.11410  -0.11410   1.81632
    A2        2.60822   0.00757   0.00000   0.00000   0.00000   2.60822
    A3        2.55753  -0.01094   0.00000  -0.06607  -0.06607   2.49146
    D1        2.56513  -0.00155   0.00000  -0.11277  -0.11277   2.45236
    D2       -0.29406  -0.00063   0.00000  -0.08129  -0.08129  -0.37534
         Item               Value     Threshold  Converged?
 Maximum Force            0.026555     0.002500     NO 
 RMS     Force            0.015955     0.001667     NO 
 Maximum Displacement     0.223498     0.010000     NO 
 RMS     Displacement     0.110476     0.006667     NO 
 Predicted change in Energy=-2.868117D-03
 GradGradGradGradGradGradGradGradGradGradGradGradGradGradGradGradGradGrad

                          Input orientation:                          
 ---------------------------------------------------------------------
 Center     Atomic      Atomic             Coordinates (Angstroms)
 Number     Number       Type             X           Y           Z
 ---------------------------------------------------------------------
      1          8           0        1.039271    0.386535   -0.383897
      2          8           0        1.950030   -0.108144    0.394065
      3          1           0        0.222275   -0.189716   -0.205088
      4          8           0       -1.210563   -0.300048   -0.021493
      5          1           0       -2.001012    0.211373    0.216313
 ---------------------------------------------------------------------
                    Distance matrix (angstroms):
                    1          2          3          4          5
     1  O    0.000000
     2  O    1.295922   0.000000
     3  H    1.015638   1.830513   0.000000
     4  O    2.380018   3.193566   1.448760   0.000000
     5  H    3.103909   3.967924   2.298142   0.971037   0.000000
 Stoichiometry    H2O3(3)
 Framework group  C1[X(H2O3)]
 Deg. of freedom     9
 Full point group                 C1      NOp   1
 Largest Abelian subgroup         C1      NOp   1
 Largest concise Abelian subgroup C1      NOp   1
                         Standard orientation:                         
 ---------------------------------------------------------------------
 Center     Atomic      Atomic             Coordinates (Angstroms)
 Number     Number       Type             X           Y           Z
 ---------------------------------------------------------------------
      1          8           0        0.569203    0.537605    0.002741
      2          8           0        1.477203   -0.386699    0.027520
      3          1           0       -0.281846    0.041083   -0.243637
      4          8           0       -1.706526   -0.155515   -0.068873
      5          1           0       -2.437192   -0.004213    0.552536
 ---------------------------------------------------------------------
 Rotational constants (GHZ):     64.4695335      5.4317978      5.0533756
 Standard basis: 6-311+G(2df,2p) (5D, 7F)
 There are   120 symmetry adapted basis functions of A   symmetry.
 Integral buffers will be    131072 words long.
 Raffenetti 2 integral format.
 Two-electron integral symmetry is turned on.
   120 basis functions,   178 primitive gaussians,   135 cartesian basis functions
    14 alpha electrons       12 beta electrons
       nuclear repulsion energy        67.3922903045 Hartrees.
 NAtoms=    5 NActive=    5 NUniq=    5 SFac= 1.00D+00 NAtFMM=   50 NAOKFM=F Big=F
 One-electron integrals computed using PRISM.
 NBasis=   120 RedAO= T  NBF=   120
 NBsUse=   120 1.00D-06 NBFU=   120
 Initial guess read from the read-write file.
 B after Tr=     0.000000    0.000000    0.000000
         Rot=    1.000000    0.000000    0.000000    0.000000 Ang=   0.00 deg.
 Initial guess orbital symmetries:
 Alpha Orbitals:
       Occupied  (A) (A) (A) (A) (A) (A) (A) (A) (A) (A) (A) (A)
                 (A) (A)
       Virtual   (A) (A) (A) (A) (A) (A) (A) (A) (A) (A) (A) (A)
                 (A) (A) (A) (A) (A) (A) (A) (A) (A) (A) (A) (A)
                 (A) (A) (A) (A) (A) (A) (A) (A) (A) (A) (A) (A)
                 (A) (A) (A) (A) (A) (A) (A) (A) (A) (A) (A) (A)
                 (A) (A) (A) (A) (A) (A) (A) (A) (A) (A) (A) (A)
                 (A) (A) (A) (A) (A) (A) (A) (A) (A) (A) (A) (A)
                 (A) (A) (A) (A) (A) (A) (A) (A) (A) (A) (A) (A)
                 (A) (A) (A) (A) (A) (A) (A) (A) (A) (A) (A) (A)
                 (A) (A) (A) (A) (A) (A) (A) (A) (A) (A)
 Beta  Orbitals:
       Occupied  (A) (A) (A) (A) (A) (A) (A) (A) (A) (A) (A) (A)
       Virtual   (A) (A) (A) (A) (A) (A) (A) (A) (A) (A) (A) (A)
                 (A) (A) (A) (A) (A) (A) (A) (A) (A) (A) (A) (A)
                 (A) (A) (A) (A) (A) (A) (A) (A) (A) (A) (A) (A)
                 (A) (A) (A) (A) (A) (A) (A) (A) (A) (A) (A) (A)
                 (A) (A) (A) (A) (A) (A) (A) (A) (A) (A) (A) (A)
                 (A) (A) (A) (A) (A) (A) (A) (A) (A) (A) (A) (A)
                 (A) (A) (A) (A) (A) (A) (A) (A) (A) (A) (A) (A)
                 (A) (A) (A) (A) (A) (A) (A) (A) (A) (A) (A) (A)
                 (A) (A) (A) (A) (A) (A) (A) (A) (A) (A) (A) (A)
 Initial guess <Sx>= 0.0000 <Sy>= 0.0000 <Sz>= 1.0000 <S**2>= 2.0114 S= 1.0038
 Harris functional with IExCor= 1009 diagonalized for initial guess.
 ExpMin= 8.45D-02 ExpMax= 8.59D+03 ExpMxC= 1.30D+03 IAcc=2 IRadAn=         1 AccDes= 0.00D+00
 HarFok:  IExCor= 1009 AccDes= 0.00D+00 IRadAn=         1 IDoV= 1
 ScaDFX=  1.000000  1.000000  1.000000  1.000000
 FoFCou: FMM=F IPFlag=           0 FMFlag=      100000 FMFlg1=           0
         NFxFlg=           0 DoJE=T BraDBF=F KetDBF=T FulRan=T
         Omega=  0.000000  0.000000  1.000000  0.000000  0.000000 ICntrl=     500 IOpCl=  0
         NMat0=    1 NMatS0=    1 NMatT0=    0 NMatD0=    1 NMtDS0=    0 NMtDT0=    0
         I1Cent=           4 NGrid=           0.
 Petite list used in FoFCou.
 Requested convergence on RMS density matrix=1.00D-08 within 128 cycles.
 Requested convergence on MAX density matrix=1.00D-06.
 Requested convergence on             energy=1.00D-06.
 No special actions if energy rises.
 Keep R1 and R2 ints in memory in canonical form, NReq=86315119.
 SCF Done:  E(UM062X) =  -226.627871966     A.U. after   21 cycles
             Convg  =    0.9273D-08             -V/T =  2.0022
 <Sx>= 0.0000 <Sy>= 0.0000 <Sz>= 1.0000 <S**2>= 2.0125 S= 1.0042
 <L.S>= 0.000000000000E+00
 Annihilation of the first spin contaminant:
 S**2 before annihilation     2.0125,   after     2.0001
 Calling FoFJK, ICntrl=      2127 FMM=F ISym2X=0 I1Cent= 0 IOpClX= 1 NMat=1 NMatS=1 NMatT=0.
 ***** Axes restored to original set *****
 -------------------------------------------------------------------
 Center     Atomic                   Forces (Hartrees/Bohr)
 Number     Number              X              Y              Z
 -------------------------------------------------------------------
      1        8           0.009515344   -0.008332238    0.005511089
      2        8          -0.000524124    0.003150948   -0.002882003
      3        1           0.002650715    0.015413792   -0.004227254
      4        8          -0.017164269   -0.015253584    0.001329310
      5        1           0.005522334    0.005021083    0.000268857
 -------------------------------------------------------------------
 Cartesian Forces:  Max     0.017164269 RMS     0.008391110

 GradGradGradGradGradGradGradGradGradGradGradGradGradGradGradGradGradGrad
 Berny optimization.
 Using GEDIIS/GDIIS optimizer.
 Internal  Forces:  Max     0.013304553 RMS     0.006351110
 Search for a local minimum.
 Step number   2 out of a maximum of   20
 All quantities printed in internal units (Hartrees-Bohrs-Radians)
 Mixed Optimization -- RFO/linear search
 Update second derivatives using D2CorX and points    1    2
 DE= -3.05D-03 DEPred=-2.87D-03 R= 1.06D+00
 SS=  1.41D+00  RLast= 2.03D-01 DXNew= 5.0454D-01 6.0916D-01
 Trust test= 1.06D+00 RLast= 2.03D-01 DXMaxT set to 5.05D-01
 The second derivative matrix:
                          R1        R2        R3        R4        R5
           R1           0.60359
           R2           0.02147   0.45576
           R3          -0.00070  -0.00018   0.04364
           R4          -0.02386  -0.00594   0.00019   0.13430
           R5          -0.01933   0.02517  -0.00083  -0.02798   0.46464
           A1           0.02180   0.02628  -0.00086  -0.02921   0.03304
           A2           0.00366   0.00091  -0.00003  -0.00101   0.00430
           A3          -0.05818  -0.00241   0.00008   0.00268  -0.06388
           D1           0.00044   0.00117  -0.00004  -0.00130   0.00090
           D2           0.00269   0.00088  -0.00003  -0.00098   0.00323
                          A1        A2        A3        D1        D2
           A1           0.22611
           A2           0.00448   0.25016
           A3          -0.04838  -0.00041   0.13993
           D1           0.00254   0.00020  -0.00238   0.00831
           D2           0.00369   0.00015  -0.00077   0.00016   0.00244
 ITU=  1  0
 Use linear search instead of GDIIS.
     Eigenvalues ---    0.00235   0.00825   0.10724   0.23034   0.48352
     Eigenvalues ---    0.613321000.000001000.000001000.000001000.00000
 RFO step:  Lambda=-1.60485592D-03 EMin= 2.34670804D-03
 Quartic linear search produced a step of  0.05621.
 Iteration  1 RMS(Cart)=  0.04911537 RMS(Int)=  0.00264499
 Iteration  2 RMS(Cart)=  0.00229390 RMS(Int)=  0.00000257
 Iteration  3 RMS(Cart)=  0.00000255 RMS(Int)=  0.00000001
 Iteration  4 RMS(Cart)=  0.00000000 RMS(Int)=  0.00000001
 Iteration  1 RMS(Cart)=  0.00000000 RMS(Int)=  0.00000000
 Variable       Old X    -DE/DX   Delta X   Delta X   Delta X     New X
                                 (Linear)    (Quad)   (Total)
    R1        2.44894  -0.00333  -0.00217  -0.01484  -0.01701   2.43193
    R2        1.91928  -0.00309   0.00000   0.00000   0.00000   1.91928
    R3        4.49758   0.00732   0.00000   0.00000   0.00000   4.49758
    R4        2.73776   0.00535   0.00000   0.00000   0.00000   2.73776
    R5        1.83499  -0.00179  -0.00310  -0.01715  -0.02025   1.81475
    A1        1.81632   0.00697  -0.00641   0.01898   0.01256   1.82888
    A2        2.60822   0.00846   0.00000   0.00000   0.00000   2.60822
    A3        2.49146  -0.01330  -0.00371  -0.10216  -0.10588   2.38559
    D1        2.45236  -0.00040  -0.00634  -0.04933  -0.05567   2.39669
    D2       -0.37534   0.00023  -0.00457   0.08108   0.07651  -0.29883
         Item               Value     Threshold  Converged?
 Maximum Force            0.013305     0.002500     NO 
 RMS     Force            0.005856     0.001667     NO 
 Maximum Displacement     0.104220     0.010000     NO 
 RMS     Displacement     0.049287     0.006667     NO 
 Predicted change in Energy=-8.352095D-04
 GradGradGradGradGradGradGradGradGradGradGradGradGradGradGradGradGradGrad

                          Input orientation:                          
 ---------------------------------------------------------------------
 Center     Atomic      Atomic             Coordinates (Angstroms)
 Number     Number       Type             X           Y           Z
 ---------------------------------------------------------------------
      1          8           0        1.021999    0.392566   -0.370241
      2          8           0        1.930899   -0.096539    0.398421
      3          1           0        0.211130   -0.201050   -0.223156
      4          8           0       -1.218167   -0.334684   -0.027820
      5          1           0       -1.945862    0.239706    0.222696
 ---------------------------------------------------------------------
                    Distance matrix (angstroms):
                    1          2          3          4          5
     1  O    0.000000
     2  O    1.286921   0.000000
     3  H    1.015638   1.831635   0.000000
     4  O    2.380018   3.186693   1.448760   0.000000
     5  H    3.030369   3.895281   2.246256   0.960324   0.000000
 Stoichiometry    H2O3(3)
 Framework group  C1[X(H2O3)]
 Deg. of freedom     9
 Full point group                 C1      NOp   1
 Largest Abelian subgroup         C1      NOp   1
 Largest concise Abelian subgroup C1      NOp   1
                         Standard orientation:                         
 ---------------------------------------------------------------------
 Center     Atomic      Atomic             Coordinates (Angstroms)
 Number     Number       Type             X           Y           Z
 ---------------------------------------------------------------------
      1          8           0        0.568101    0.533638   -0.001878
      2          8           0        1.469907   -0.383863    0.031361
      3          1           0       -0.286004    0.048393   -0.259876
      4          8           0       -1.707274   -0.160759   -0.072383
      5          1           0       -2.359862    0.039481    0.603083
 ---------------------------------------------------------------------
 Rotational constants (GHZ):     64.4573795      5.4675627      5.0920205
 Standard basis: 6-311+G(2df,2p) (5D, 7F)
 There are   120 symmetry adapted basis functions of A   symmetry.
 Integral buffers will be    131072 words long.
 Raffenetti 2 integral format.
 Two-electron integral symmetry is turned on.
   120 basis functions,   178 primitive gaussians,   135 cartesian basis functions
    14 alpha electrons       12 beta electrons
       nuclear repulsion energy        67.7034842570 Hartrees.
 NAtoms=    5 NActive=    5 NUniq=    5 SFac= 1.00D+00 NAtFMM=   50 NAOKFM=F Big=F
 One-electron integrals computed using PRISM.
 NBasis=   120 RedAO= T  NBF=   120
 NBsUse=   120 1.00D-06 NBFU=   120
 Initial guess read from the read-write file.
 B after Tr=     0.000000    0.000000    0.000000
         Rot=    1.000000    0.000000    0.000000    0.000000 Ang=   0.00 deg.
 Initial guess orbital symmetries:
 Alpha Orbitals:
       Occupied  (A) (A) (A) (A) (A) (A) (A) (A) (A) (A) (A) (A)
                 (A) (A)
       Virtual   (A) (A) (A) (A) (A) (A) (A) (A) (A) (A) (A) (A)
                 (A) (A) (A) (A) (A) (A) (A) (A) (A) (A) (A) (A)
                 (A) (A) (A) (A) (A) (A) (A) (A) (A) (A) (A) (A)
                 (A) (A) (A) (A) (A) (A) (A) (A) (A) (A) (A) (A)
                 (A) (A) (A) (A) (A) (A) (A) (A) (A) (A) (A) (A)
                 (A) (A) (A) (A) (A) (A) (A) (A) (A) (A) (A) (A)
                 (A) (A) (A) (A) (A) (A) (A) (A) (A) (A) (A) (A)
                 (A) (A) (A) (A) (A) (A) (A) (A) (A) (A) (A) (A)
                 (A) (A) (A) (A) (A) (A) (A) (A) (A) (A)
 Beta  Orbitals:
       Occupied  (A) (A) (A) (A) (A) (A) (A) (A) (A) (A) (A) (A)
       Virtual   (A) (A) (A) (A) (A) (A) (A) (A) (A) (A) (A) (A)
                 (A) (A) (A) (A) (A) (A) (A) (A) (A) (A) (A) (A)
                 (A) (A) (A) (A) (A) (A) (A) (A) (A) (A) (A) (A)
                 (A) (A) (A) (A) (A) (A) (A) (A) (A) (A) (A) (A)
                 (A) (A) (A) (A) (A) (A) (A) (A) (A) (A) (A) (A)
                 (A) (A) (A) (A) (A) (A) (A) (A) (A) (A) (A) (A)
                 (A) (A) (A) (A) (A) (A) (A) (A) (A) (A) (A) (A)
                 (A) (A) (A) (A) (A) (A) (A) (A) (A) (A) (A) (A)
                 (A) (A) (A) (A) (A) (A) (A) (A) (A) (A) (A) (A)
 Initial guess <Sx>= 0.0000 <Sy>= 0.0000 <Sz>= 1.0000 <S**2>= 2.0125 S= 1.0042
 Harris functional with IExCor= 1009 diagonalized for initial guess.
 ExpMin= 8.45D-02 ExpMax= 8.59D+03 ExpMxC= 1.30D+03 IAcc=2 IRadAn=         1 AccDes= 0.00D+00
 HarFok:  IExCor= 1009 AccDes= 0.00D+00 IRadAn=         1 IDoV= 1
 ScaDFX=  1.000000  1.000000  1.000000  1.000000
 FoFCou: FMM=F IPFlag=           0 FMFlag=      100000 FMFlg1=           0
         NFxFlg=           0 DoJE=T BraDBF=F KetDBF=T FulRan=T
         Omega=  0.000000  0.000000  1.000000  0.000000  0.000000 ICntrl=     500 IOpCl=  0
         NMat0=    1 NMatS0=    1 NMatT0=    0 NMatD0=    1 NMtDS0=    0 NMtDT0=    0
         I1Cent=           4 NGrid=           0.
 Petite list used in FoFCou.
 Requested convergence on RMS density matrix=1.00D-08 within 128 cycles.
 Requested convergence on MAX density matrix=1.00D-06.
 Requested convergence on             energy=1.00D-06.
 No special actions if energy rises.
 Keep R1 and R2 ints in memory in canonical form, NReq=86315119.
 SCF Done:  E(UM062X) =  -226.629389367     A.U. after   21 cycles
             Convg  =    0.3165D-08             -V/T =  2.0022
 <Sx>= 0.0000 <Sy>= 0.0000 <Sz>= 1.0000 <S**2>= 2.0138 S= 1.0046
 <L.S>= 0.000000000000E+00
 Annihilation of the first spin contaminant:
 S**2 before annihilation     2.0138,   after     2.0001
 Calling FoFJK, ICntrl=      2127 FMM=F ISym2X=0 I1Cent= 0 IOpClX= 1 NMat=1 NMatS=1 NMatT=0.
 ***** Axes restored to original set *****
 -------------------------------------------------------------------
 Center     Atomic                   Forces (Hartrees/Bohr)
 Number     Number              X              Y              Z
 -------------------------------------------------------------------
      1        8           0.012510775   -0.003216318    0.002177322
      2        8           0.000708054    0.001883472   -0.001270803
      3        1          -0.007714749    0.011370829   -0.001433071
      4        8          -0.003928870   -0.020982239   -0.002464008
      5        1          -0.001575210    0.010944255    0.002990559
 -------------------------------------------------------------------
 Cartesian Forces:  Max     0.020982239 RMS     0.008004576

 GradGradGradGradGradGradGradGradGradGradGradGradGradGradGradGradGradGrad
 Berny optimization.
 Using GEDIIS/GDIIS optimizer.
 Internal  Forces:  Max     0.013903059 RMS     0.006535361
 Search for a local minimum.
 Step number   3 out of a maximum of   20
 All quantities printed in internal units (Hartrees-Bohrs-Radians)
 Mixed Optimization -- RFO/linear search
 Update second derivatives using D2CorX and points    1    2    3
 DE= -1.52D-03 DEPred=-8.35D-04 R= 1.82D+00
 SS=  1.41D+00  RLast= 1.45D-01 DXNew= 8.4853D-01 4.3495D-01
 Trust test= 1.82D+00 RLast= 1.45D-01 DXMaxT set to 5.05D-01
 The second derivative matrix:
                          R1        R2        R3        R4        R5
           R1           0.63838
           R2           0.11468   0.64868
           R3          -0.00334  -0.00565   0.04379
           R4          -0.11599  -0.19700   0.00561   0.32352
           R5           0.14337   0.37271  -0.01068  -0.37207   1.08790
           A1           0.02851   0.01502  -0.00055  -0.01820   0.01748
           A2           0.00142  -0.00314   0.00009   0.00300  -0.00317
           A3          -0.10247  -0.03159   0.00092   0.03203  -0.13010
           D1          -0.00243  -0.00340   0.00009   0.00323  -0.00767
           D2           0.00119  -0.00281   0.00008   0.00268  -0.00333
                          A1        A2        A3        D1        D2
           A1           0.20020
           A2           0.00494   0.25023
           A3           0.00334  -0.00051   0.03876
           D1           0.00359   0.00028  -0.00364   0.00837
           D2           0.00320   0.00023   0.00106   0.00027   0.00249
 ITU=  1  1  0
 Use linear search instead of GDIIS.
     Eigenvalues ---    0.00225   0.00462   0.01450   0.19900   0.60398
     Eigenvalues ---    1.151761000.000001000.000001000.000001000.00000
 RFO step:  Lambda=-5.06916257D-03 EMin= 2.24933612D-03
 Quartic linear search produced a step of  2.00000.
 Iteration  1 RMS(Cart)=  0.12947338 RMS(Int)=  0.12787625
 Iteration  2 RMS(Cart)=  0.10909650 RMS(Int)=  0.05004541
 Iteration  3 RMS(Cart)=  0.07452748 RMS(Int)=  0.00561753
 Iteration  4 RMS(Cart)=  0.00412168 RMS(Int)=  0.00000358
 Iteration  5 RMS(Cart)=  0.00000380 RMS(Int)=  0.00000003
 Iteration  6 RMS(Cart)=  0.00000000 RMS(Int)=  0.00000003
 Iteration  1 RMS(Cart)=  0.00000001 RMS(Int)=  0.00000002
 Variable       Old X    -DE/DX   Delta X   Delta X   Delta X     New X
                                 (Linear)    (Quad)   (Total)
    R1        2.43193  -0.00100  -0.03402  -0.04919  -0.08321   2.34872
    R2        1.91928   0.00290   0.00000   0.00000   0.00000   1.91928
    R3        4.49758   0.00715   0.00000   0.00000   0.00000   4.49758
    R4        2.73776  -0.00056   0.00000   0.00000   0.00000   2.73776
    R5        1.81475   0.00851  -0.04049  -0.01140  -0.05189   1.76286
    A1        1.82888   0.00560   0.02512   0.03190   0.05702   1.88591
    A2        2.60822   0.00830   0.00000   0.00000   0.00000   2.60822
    A3        2.38559  -0.01390  -0.21175  -0.36563  -0.57738   1.80820
    D1        2.39669  -0.00058  -0.11135   0.01745  -0.09389   2.30280
    D2       -0.29883   0.00008   0.15302  -0.47984  -0.32682  -0.62565
         Item               Value     Threshold  Converged?
 Maximum Force            0.013903     0.002500     NO 
 RMS     Force            0.006528     0.001667     NO 
 Maximum Displacement     0.716328     0.010000     NO 
 RMS     Displacement     0.301683     0.006667     NO 
 Predicted change in Energy=-6.032178D-03
 GradGradGradGradGradGradGradGradGradGradGradGradGradGradGradGradGradGrad

                          Input orientation:                          
 ---------------------------------------------------------------------
 Center     Atomic      Atomic             Coordinates (Angstroms)
 Number     Number       Type             X           Y           Z
 ---------------------------------------------------------------------
      1          8           0        0.942239    0.359529   -0.364471
      2          8           0        1.785405    0.006964    0.477873
      3          1           0        0.137172   -0.253837   -0.279792
      4          8           0       -1.298019   -0.421244   -0.174412
      5          1           0       -1.566797    0.308587    0.340701
 ---------------------------------------------------------------------
                    Distance matrix (angstroms):
                    1          2          3          4          5
     1  O    0.000000
     2  O    1.242890   0.000000
     3  H    1.015638   1.832688   0.000000
     4  O    2.380018   3.180620   1.448760   0.000000
     5  H    2.606746   3.368538   1.898643   0.932865   0.000000
 Stoichiometry    H2O3(3)
 Framework group  C1[X(H2O3)]
 Deg. of freedom     9
 Full point group                 C1      NOp   1
 Largest Abelian subgroup         C1      NOp   1
 Largest concise Abelian subgroup C1      NOp   1
                         Standard orientation:                         
 ---------------------------------------------------------------------
 Center     Atomic      Atomic             Coordinates (Angstroms)
 Number     Number       Type             X           Y           Z
 ---------------------------------------------------------------------
      1          8           0        0.560264    0.507407    0.021936
      2          8           0        1.437865   -0.372503    0.003183
      3          1           0       -0.311776    0.088873   -0.287737
      4          8           0       -1.731564   -0.124029   -0.093373
      5          1           0       -1.820740   -0.175867    0.833772
 ---------------------------------------------------------------------
 Rotational constants (GHZ):     67.1722977      5.5955532      5.2617189
 Standard basis: 6-311+G(2df,2p) (5D, 7F)
 There are   120 symmetry adapted basis functions of A   symmetry.
 Integral buffers will be    131072 words long.
 Raffenetti 2 integral format.
 Two-electron integral symmetry is turned on.
   120 basis functions,   178 primitive gaussians,   135 cartesian basis functions
    14 alpha electrons       12 beta electrons
       nuclear repulsion energy        69.2246139469 Hartrees.
 NAtoms=    5 NActive=    5 NUniq=    5 SFac= 1.00D+00 NAtFMM=   50 NAOKFM=F Big=F
 One-electron integrals computed using PRISM.
 NBasis=   120 RedAO= T  NBF=   120
 NBsUse=   120 1.00D-06 NBFU=   120
 Initial guess read from the read-write file.
 B after Tr=     0.000000    0.000000    0.000000
         Rot=    1.000000    0.000000    0.000000    0.000000 Ang=   0.00 deg.
 Initial guess orbital symmetries:
 Alpha Orbitals:
       Occupied  (A) (A) (A) (A) (A) (A) (A) (A) (A) (A) (A) (A)
                 (A) (A)
       Virtual   (A) (A) (A) (A) (A) (A) (A) (A) (A) (A) (A) (A)
                 (A) (A) (A) (A) (A) (A) (A) (A) (A) (A) (A) (A)
                 (A) (A) (A) (A) (A) (A) (A) (A) (A) (A) (A) (A)
                 (A) (A) (A) (A) (A) (A) (A) (A) (A) (A) (A) (A)
                 (A) (A) (A) (A) (A) (A) (A) (A) (A) (A) (A) (A)
                 (A) (A) (A) (A) (A) (A) (A) (A) (A) (A) (A) (A)
                 (A) (A) (A) (A) (A) (A) (A) (A) (A) (A) (A) (A)
                 (A) (A) (A) (A) (A) (A) (A) (A) (A) (A) (A) (A)
                 (A) (A) (A) (A) (A) (A) (A) (A) (A) (A)
 Beta  Orbitals:
       Occupied  (A) (A) (A) (A) (A) (A) (A) (A) (A) (A) (A) (A)
       Virtual   (A) (A) (A) (A) (A) (A) (A) (A) (A) (A) (A) (A)
                 (A) (A) (A) (A) (A) (A) (A) (A) (A) (A) (A) (A)
                 (A) (A) (A) (A) (A) (A) (A) (A) (A) (A) (A) (A)
                 (A) (A) (A) (A) (A) (A) (A) (A) (A) (A) (A) (A)
                 (A) (A) (A) (A) (A) (A) (A) (A) (A) (A) (A) (A)
                 (A) (A) (A) (A) (A) (A) (A) (A) (A) (A) (A) (A)
                 (A) (A) (A) (A) (A) (A) (A) (A) (A) (A) (A) (A)
                 (A) (A) (A) (A) (A) (A) (A) (A) (A) (A) (A) (A)
                 (A) (A) (A) (A) (A) (A) (A) (A) (A) (A) (A) (A)
 Initial guess <Sx>= 0.0000 <Sy>= 0.0000 <Sz>= 1.0000 <S**2>= 2.0139 S= 1.0046
 Harris functional with IExCor= 1009 diagonalized for initial guess.
 ExpMin= 8.45D-02 ExpMax= 8.59D+03 ExpMxC= 1.30D+03 IAcc=2 IRadAn=         1 AccDes= 0.00D+00
 HarFok:  IExCor= 1009 AccDes= 0.00D+00 IRadAn=         1 IDoV= 1
 ScaDFX=  1.000000  1.000000  1.000000  1.000000
 FoFCou: FMM=F IPFlag=           0 FMFlag=      100000 FMFlg1=           0
         NFxFlg=           0 DoJE=T BraDBF=F KetDBF=T FulRan=T
         Omega=  0.000000  0.000000  1.000000  0.000000  0.000000 ICntrl=     500 IOpCl=  0
         NMat0=    1 NMatS0=    1 NMatT0=    0 NMatD0=    1 NMtDS0=    0 NMtDT0=    0
         I1Cent=           4 NGrid=           0.
 Petite list used in FoFCou.
 Requested convergence on RMS density matrix=1.00D-08 within 128 cycles.
 Requested convergence on MAX density matrix=1.00D-06.
 Requested convergence on             energy=1.00D-06.
 No special actions if energy rises.
 Keep R1 and R2 ints in memory in canonical form, NReq=86315119.
 SCF Done:  E(UM062X) =  -226.633665937     A.U. after   24 cycles
             Convg  =    0.1815D-08             -V/T =  2.0018
 <Sx>= 0.0000 <Sy>= 0.0000 <Sz>= 1.0000 <S**2>= 2.0190 S= 1.0063
 <L.S>= 0.000000000000E+00
 Annihilation of the first spin contaminant:
 S**2 before annihilation     2.0190,   after     2.0002
 Calling FoFJK, ICntrl=      2127 FMM=F ISym2X=0 I1Cent= 0 IOpClX= 1 NMat=1 NMatS=1 NMatT=0.
 ***** Axes restored to original set *****
 -------------------------------------------------------------------
 Center     Atomic                   Forces (Hartrees/Bohr)
 Number     Number              X              Y              Z
 -------------------------------------------------------------------
      1        8           0.025913204    0.020976392   -0.011904019
      2        8           0.011609853   -0.002903176    0.010775192
      3        1          -0.056921933   -0.015839261    0.001384875
      4        8           0.031220432   -0.033334175   -0.022185454
      5        1          -0.011821556    0.031100220    0.021929407
 -------------------------------------------------------------------
 Cartesian Forces:  Max     0.056921933 RMS     0.024727024

 GradGradGradGradGradGradGradGradGradGradGradGradGradGradGradGradGradGrad
 Berny optimization.
 Using GEDIIS/GDIIS optimizer.
 Internal  Forces:  Max     0.039820520 RMS     0.019512852
 Search for a local minimum.
 Step number   4 out of a maximum of   20
 All quantities printed in internal units (Hartrees-Bohrs-Radians)
 Mixed Optimization -- RFO/linear search
 Update second derivatives using D2CorX and points    3    4
 DE= -4.28D-03 DEPred=-6.03D-03 R= 7.09D-01
 SS=  1.41D+00  RLast= 6.80D-01 DXNew= 8.4853D-01 2.0388D+00
 Trust test= 7.09D-01 RLast= 6.80D-01 DXMaxT set to 8.49D-01
 The second derivative matrix:
                          R1        R2        R3        R4        R5
           R1           0.66375
           R2           0.15890   0.70678
           R3          -0.00098  -0.00102   0.04400
           R4          -0.15632  -0.24901   0.00137   0.36999
           R5           0.18989   0.47439  -0.00688  -0.46588   1.15091
           A1           0.02576   0.02081  -0.00108  -0.02404   0.00097
           A2           0.00089  -0.00291   0.00001   0.00274  -0.00537
           A3          -0.08062  -0.00877   0.00336   0.01201  -0.07348
           D1          -0.00355  -0.00090  -0.00013   0.00072  -0.01454
           D2           0.00086  -0.00600   0.00011   0.00572  -0.00111
                          A1        A2        A3        D1        D2
           A1           0.19460
           A2           0.00436   0.25017
           A3           0.00948  -0.00004   0.04530
           D1           0.00123   0.00003  -0.00102   0.00738
           D2           0.00469   0.00040  -0.00132   0.00089   0.00214
 ITU=  1  1  1  0
 Use linear search instead of GDIIS.
     Eigenvalues ---    0.00183   0.00709   0.03206   0.19430   0.60456
     Eigenvalues ---    1.224231000.000001000.000001000.000001000.00000
 RFO step:  Lambda=-1.87092838D-03 EMin= 1.83458030D-03
 Quartic linear search produced a step of -0.14884.
 Iteration  1 RMS(Cart)=  0.08473029 RMS(Int)=  0.03545126
 Iteration  2 RMS(Cart)=  0.03026224 RMS(Int)=  0.00132445
 Iteration  3 RMS(Cart)=  0.00134896 RMS(Int)=  0.00000143
 Iteration  4 RMS(Cart)=  0.00000195 RMS(Int)=  0.00000001
 Iteration  5 RMS(Cart)=  0.00000000 RMS(Int)=  0.00000001
 Iteration  1 RMS(Cart)=  0.00000000 RMS(Int)=  0.00000001
 Variable       Old X    -DE/DX   Delta X   Delta X   Delta X     New X
                                 (Linear)    (Quad)   (Total)
    R1        2.34872   0.01601   0.01238   0.00569   0.01808   2.36680
    R2        1.91928   0.03245   0.00000   0.00000   0.00000   1.91928
    R3        4.49758   0.00874   0.00000   0.00000   0.00000   4.49758
    R4        2.73776  -0.02750   0.00000   0.00000   0.00000   2.73776
    R5        1.76286   0.03982   0.00772   0.02476   0.03248   1.79534
    A1        1.88591   0.00382  -0.00849   0.03232   0.02384   1.90974
    A2        2.60822   0.00796   0.00000   0.00000   0.00000   2.60822
    A3        1.80820   0.00066   0.08594  -0.04709   0.03885   1.84705
    D1        2.30280  -0.00130   0.01397  -0.10080  -0.08682   2.21597
    D2       -0.62565  -0.00015   0.04864  -0.35376  -0.30512  -0.93077
         Item               Value     Threshold  Converged?
 Maximum Force            0.039821     0.002500     NO 
 RMS     Force            0.016295     0.001667     NO 
 Maximum Displacement     0.166353     0.010000     NO 
 RMS     Displacement     0.111423     0.006667     NO 
 Predicted change in Energy=-8.854766D-04
 GradGradGradGradGradGradGradGradGradGradGradGradGradGradGradGradGradGrad

                          Input orientation:                          
 ---------------------------------------------------------------------
 Center     Atomic      Atomic             Coordinates (Angstroms)
 Number     Number       Type             X           Y           Z
 ---------------------------------------------------------------------
      1          8           0        0.977103    0.287812   -0.421992
      2          8           0        1.759740    0.069616    0.531167
      3          1           0        0.138404   -0.273011   -0.305452
      4          8           0       -1.306088   -0.356889   -0.232554
      5          1           0       -1.569159    0.272473    0.428731
 ---------------------------------------------------------------------
                    Distance matrix (angstroms):
                    1          2          3          4          5
     1  O    0.000000
     2  O    1.252456   0.000000
     3  H    1.015638   1.856356   0.000000
     4  O    2.380018   3.188178   1.448760   0.000000
     5  H    2.684663   3.336647   1.937098   0.950053   0.000000
 Stoichiometry    H2O3(3)
 Framework group  C1[X(H2O3)]
 Deg. of freedom     9
 Full point group                 C1      NOp   1
 Largest Abelian subgroup         C1      NOp   1
 Largest concise Abelian subgroup C1      NOp   1
                         Standard orientation:                         
 ---------------------------------------------------------------------
 Center     Atomic      Atomic             Coordinates (Angstroms)
 Number     Number       Type             X           Y           Z
 ---------------------------------------------------------------------
      1          8           0        0.564167    0.510711    0.071625
      2          8           0        1.437569   -0.380727   -0.033988
      3          1           0       -0.320161    0.160978   -0.284987
      4          8           0       -1.735784   -0.079155   -0.091980
      5          1           0       -1.807457   -0.567606    0.719734
 ---------------------------------------------------------------------
 Rotational constants (GHZ):     65.2438188      5.5869705      5.2297655
 Standard basis: 6-311+G(2df,2p) (5D, 7F)
 There are   120 symmetry adapted basis functions of A   symmetry.
 Integral buffers will be    131072 words long.
 Raffenetti 2 integral format.
 Two-electron integral symmetry is turned on.
   120 basis functions,   178 primitive gaussians,   135 cartesian basis functions
    14 alpha electrons       12 beta electrons
       nuclear repulsion energy        68.8390538904 Hartrees.
 NAtoms=    5 NActive=    5 NUniq=    5 SFac= 1.00D+00 NAtFMM=   50 NAOKFM=F Big=F
 One-electron integrals computed using PRISM.
 NBasis=   120 RedAO= T  NBF=   120
 NBsUse=   120 1.00D-06 NBFU=   120
 Initial guess read from the read-write file.
 B after Tr=     0.000000    0.000000    0.000000
         Rot=    1.000000    0.000000    0.000000    0.000000 Ang=   0.00 deg.
 Initial guess orbital symmetries:
 Alpha Orbitals:
       Occupied  (A) (A) (A) (A) (A) (A) (A) (A) (A) (A) (A) (A)
                 (A) (A)
       Virtual   (A) (A) (A) (A) (A) (A) (A) (A) (A) (A) (A) (A)
                 (A) (A) (A) (A) (A) (A) (A) (A) (A) (A) (A) (A)
                 (A) (A) (A) (A) (A) (A) (A) (A) (A) (A) (A) (A)
                 (A) (A) (A) (A) (A) (A) (A) (A) (A) (A) (A) (A)
                 (A) (A) (A) (A) (A) (A) (A) (A) (A) (A) (A) (A)
                 (A) (A) (A) (A) (A) (A) (A) (A) (A) (A) (A) (A)
                 (A) (A) (A) (A) (A) (A) (A) (A) (A) (A) (A) (A)
                 (A) (A) (A) (A) (A) (A) (A) (A) (A) (A) (A) (A)
                 (A) (A) (A) (A) (A) (A) (A) (A) (A) (A)
 Beta  Orbitals:
       Occupied  (A) (A) (A) (A) (A) (A) (A) (A) (A) (A) (A) (A)
       Virtual   (A) (A) (A) (A) (A) (A) (A) (A) (A) (A) (A) (A)
                 (A) (A) (A) (A) (A) (A) (A) (A) (A) (A) (A) (A)
                 (A) (A) (A) (A) (A) (A) (A) (A) (A) (A) (A) (A)
                 (A) (A) (A) (A) (A) (A) (A) (A) (A) (A) (A) (A)
                 (A) (A) (A) (A) (A) (A) (A) (A) (A) (A) (A) (A)
                 (A) (A) (A) (A) (A) (A) (A) (A) (A) (A) (A) (A)
                 (A) (A) (A) (A) (A) (A) (A) (A) (A) (A) (A) (A)
                 (A) (A) (A) (A) (A) (A) (A) (A) (A) (A) (A) (A)
                 (A) (A) (A) (A) (A) (A) (A) (A) (A) (A) (A) (A)
 Initial guess <Sx>= 0.0000 <Sy>= 0.0000 <Sz>= 1.0000 <S**2>= 2.0191 S= 1.0064
 Harris functional with IExCor= 1009 diagonalized for initial guess.
 ExpMin= 8.45D-02 ExpMax= 8.59D+03 ExpMxC= 1.30D+03 IAcc=2 IRadAn=         1 AccDes= 0.00D+00
 HarFok:  IExCor= 1009 AccDes= 0.00D+00 IRadAn=         1 IDoV= 1
 ScaDFX=  1.000000  1.000000  1.000000  1.000000
 FoFCou: FMM=F IPFlag=           0 FMFlag=      100000 FMFlg1=           0
         NFxFlg=           0 DoJE=T BraDBF=F KetDBF=T FulRan=T
         Omega=  0.000000  0.000000  1.000000  0.000000  0.000000 ICntrl=     500 IOpCl=  0
         NMat0=    1 NMatS0=    1 NMatT0=    0 NMatD0=    1 NMtDS0=    0 NMtDT0=    0
         I1Cent=           4 NGrid=           0.
 Petite list used in FoFCou.
 Requested convergence on RMS density matrix=1.00D-08 within 128 cycles.
 Requested convergence on MAX density matrix=1.00D-06.
 Requested convergence on             energy=1.00D-06.
 No special actions if energy rises.
 Keep R1 and R2 ints in memory in canonical form, NReq=86315119.
 SCF Done:  E(UM062X) =  -226.634717389     A.U. after   21 cycles
             Convg  =    0.6871D-08             -V/T =  2.0021
 <Sx>= 0.0000 <Sy>= 0.0000 <Sz>= 1.0000 <S**2>= 2.0187 S= 1.0062
 <L.S>= 0.000000000000E+00
 Annihilation of the first spin contaminant:
 S**2 before annihilation     2.0187,   after     2.0002
 Calling FoFJK, ICntrl=      2127 FMM=F ISym2X=0 I1Cent= 0 IOpClX= 1 NMat=1 NMatS=1 NMatT=0.
 ***** Axes restored to original set *****
 -------------------------------------------------------------------
 Center     Atomic                   Forces (Hartrees/Bohr)
 Number     Number              X              Y              Z
 -------------------------------------------------------------------
      1        8           0.030667793    0.015723142   -0.008812515
      2        8           0.002919313   -0.000438233    0.005432131
      3        1          -0.050665547   -0.011583469    0.003061790
      4        8           0.021878983   -0.017123824   -0.013171945
      5        1          -0.004800541    0.013422384    0.013490539
 -------------------------------------------------------------------
 Cartesian Forces:  Max     0.050665547 RMS     0.018876402

 GradGradGradGradGradGradGradGradGradGradGradGradGradGradGradGradGradGrad
 Berny optimization.
 Using GEDIIS/GDIIS optimizer.
 Internal  Forces:  Max     0.028820940 RMS     0.014123786
 Search for a local minimum.
 Step number   5 out of a maximum of   20
 All quantities printed in internal units (Hartrees-Bohrs-Radians)
 Mixed Optimization -- RFO/linear search
 Update second derivatives using D2CorX and points    4    5
 DE= -1.05D-03 DEPred=-8.85D-04 R= 1.19D+00
 SS=  1.41D+00  RLast= 3.23D-01 DXNew= 1.4270D+00 9.6792D-01
 Trust test= 1.19D+00 RLast= 3.23D-01 DXMaxT set to 9.68D-01
 The second derivative matrix:
                          R1        R2        R3        R4        R5
           R1           0.63679
           R2           0.03138   0.50763
           R3           0.00750   0.00327   0.04451
           R4          -0.02502  -0.05201  -0.00234   0.17562
           R5           0.07320   0.13495   0.01098  -0.12061   0.75760
           A1           0.05080   0.00023   0.00336  -0.00007   0.03622
           A2           0.00351  -0.00061   0.00008   0.00057   0.00066
           A3          -0.05006   0.01265   0.00466  -0.00758  -0.00596
           D1           0.01201   0.01573   0.00002  -0.01527   0.02283
           D2           0.00719   0.00149   0.00011  -0.00154   0.01449
                          A1        A2        A3        D1        D2
           A1           0.21917
           A2           0.00540   0.25017
           A3           0.02347   0.00006   0.04819
           D1           0.00637  -0.00006  -0.00130   0.00643
           D2           0.00654   0.00034  -0.00165   0.00041   0.00190
 ITU=  1  1  1  1  0
 Use linear search instead of GDIIS.
     Eigenvalues ---    0.00133   0.00548   0.03970   0.21673   0.60750
     Eigenvalues ---    0.799341000.000001000.000001000.000001000.00000
 RFO step:  Lambda=-1.49316697D-03 EMin= 1.33008511D-03
 Skip linear search -- no minimum in search direction.
 Iteration  1 RMS(Cart)=  0.12693271 RMS(Int)=  0.05079184
 Iteration  2 RMS(Cart)=  0.06520849 RMS(Int)=  0.00426642
 Iteration  3 RMS(Cart)=  0.00394066 RMS(Int)=  0.00000977
 Iteration  4 RMS(Cart)=  0.00001576 RMS(Int)=  0.00000000
 Iteration  5 RMS(Cart)=  0.00000000 RMS(Int)=  0.00000000
 Iteration  1 RMS(Cart)=  0.00000000 RMS(Int)=  0.00000001
 Variable       Old X    -DE/DX   Delta X   Delta X   Delta X     New X
                                 (Linear)    (Quad)   (Total)
    R1        2.36680   0.00609   0.00000   0.01179   0.01179   2.37859
    R2        1.91928   0.02882   0.00000   0.00000   0.00000   1.91928
    R3        4.49758   0.00802   0.00000   0.00000   0.00000   4.49758
    R4        2.73776  -0.02463   0.00000   0.00000   0.00000   2.73776
    R5        1.79534   0.01966   0.00000   0.03911   0.03911   1.83445
    A1        1.90974  -0.00186   0.00000   0.00205   0.00205   1.91179
    A2        2.60822   0.00784   0.00000   0.00000   0.00000   2.60822
    A3        1.84705  -0.00129   0.00000  -0.02698  -0.02698   1.82007
    D1        2.21597  -0.00168   0.00000  -0.33687  -0.33687   1.87910
    D2       -0.93077  -0.00023   0.00000  -0.23701  -0.23701  -1.16778
         Item               Value     Threshold  Converged?
 Maximum Force            0.019662     0.002500     NO 
 RMS     Force            0.007853     0.001667     NO 
 Maximum Displacement     0.231288     0.010000     NO 
 RMS     Displacement     0.186328     0.006667     NO 
 Predicted change in Energy=-8.750374D-04
 GradGradGradGradGradGradGradGradGradGradGradGradGradGradGradGradGradGrad

                          Input orientation:                          
 ---------------------------------------------------------------------
 Center     Atomic      Atomic             Coordinates (Angstroms)
 Number     Number       Type             X           Y           Z
 ---------------------------------------------------------------------
      1          8           0        1.021613    0.176318   -0.487466
      2          8           0        1.637348    0.173025    0.610336
      3          1           0        0.133894   -0.305369   -0.380441
      4          8           0       -1.311060   -0.252650   -0.289710
      5          1           0       -1.481795    0.208676    0.547180
 ---------------------------------------------------------------------
                    Distance matrix (angstroms):
                    1          2          3          4          5
     1  O    0.000000
     2  O    1.258694   0.000000
     3  H    1.015638   1.863028   0.000000
     4  O    2.380018   3.111976   1.448760   0.000000
     5  H    2.708984   3.119986   1.932660   0.970750   0.000000
 Stoichiometry    H2O3(3)
 Framework group  C1[X(H2O3)]
 Deg. of freedom     9
 Full point group                 C1      NOp   1
 Largest Abelian subgroup         C1      NOp   1
 Largest concise Abelian subgroup C1      NOp   1
                         Standard orientation:                         
 ---------------------------------------------------------------------
 Center     Atomic      Atomic             Coordinates (Angstroms)
 Number     Number       Type             X           Y           Z
 ---------------------------------------------------------------------
      1          8           0        0.587034    0.550190    0.070855
      2          8           0        1.376083   -0.424522   -0.037072
      3          1           0       -0.325609    0.290067   -0.291001
      4          8           0       -1.713152   -0.049186   -0.049056
      5          1           0       -1.674109   -0.901924    0.413188
 ---------------------------------------------------------------------
 Rotational constants (GHZ):     55.9809024      5.8768921      5.3600200
 Standard basis: 6-311+G(2df,2p) (5D, 7F)
 There are   120 symmetry adapted basis functions of A   symmetry.
 Integral buffers will be    131072 words long.
 Raffenetti 2 integral format.
 Two-electron integral symmetry is turned on.
   120 basis functions,   178 primitive gaussians,   135 cartesian basis functions
    14 alpha electrons       12 beta electrons
       nuclear repulsion energy        68.9365611582 Hartrees.
 NAtoms=    5 NActive=    5 NUniq=    5 SFac= 1.00D+00 NAtFMM=   50 NAOKFM=F Big=F
 One-electron integrals computed using PRISM.
 NBasis=   120 RedAO= T  NBF=   120
 NBsUse=   120 1.00D-06 NBFU=   120
 Initial guess read from the read-write file.
 B after Tr=     0.000000    0.000000    0.000000
         Rot=    1.000000    0.000000    0.000000    0.000000 Ang=   0.00 deg.
 Initial guess orbital symmetries:
 Alpha Orbitals:
       Occupied  (A) (A) (A) (A) (A) (A) (A) (A) (A) (A) (A) (A)
                 (A) (A)
       Virtual   (A) (A) (A) (A) (A) (A) (A) (A) (A) (A) (A) (A)
                 (A) (A) (A) (A) (A) (A) (A) (A) (A) (A) (A) (A)
                 (A) (A) (A) (A) (A) (A) (A) (A) (A) (A) (A) (A)
                 (A) (A) (A) (A) (A) (A) (A) (A) (A) (A) (A) (A)
                 (A) (A) (A) (A) (A) (A) (A) (A) (A) (A) (A) (A)
                 (A) (A) (A) (A) (A) (A) (A) (A) (A) (A) (A) (A)
                 (A) (A) (A) (A) (A) (A) (A) (A) (A) (A) (A) (A)
                 (A) (A) (A) (A) (A) (A) (A) (A) (A) (A) (A) (A)
                 (A) (A) (A) (A) (A) (A) (A) (A) (A) (A)
 Beta  Orbitals:
       Occupied  (A) (A) (A) (A) (A) (A) (A) (A) (A) (A) (A) (A)
       Virtual   (A) (A) (A) (A) (A) (A) (A) (A) (A) (A) (A) (A)
                 (A) (A) (A) (A) (A) (A) (A) (A) (A) (A) (A) (A)
                 (A) (A) (A) (A) (A) (A) (A) (A) (A) (A) (A) (A)
                 (A) (A) (A) (A) (A) (A) (A) (A) (A) (A) (A) (A)
                 (A) (A) (A) (A) (A) (A) (A) (A) (A) (A) (A) (A)
                 (A) (A) (A) (A) (A) (A) (A) (A) (A) (A) (A) (A)
                 (A) (A) (A) (A) (A) (A) (A) (A) (A) (A) (A) (A)
                 (A) (A) (A) (A) (A) (A) (A) (A) (A) (A) (A) (A)
                 (A) (A) (A) (A) (A) (A) (A) (A) (A) (A) (A) (A)
 Initial guess <Sx>= 0.0000 <Sy>= 0.0000 <Sz>= 1.0000 <S**2>= 2.0187 S= 1.0062
 Harris functional with IExCor= 1009 diagonalized for initial guess.
 ExpMin= 8.45D-02 ExpMax= 8.59D+03 ExpMxC= 1.30D+03 IAcc=2 IRadAn=         1 AccDes= 0.00D+00
 HarFok:  IExCor= 1009 AccDes= 0.00D+00 IRadAn=         1 IDoV= 1
 ScaDFX=  1.000000  1.000000  1.000000  1.000000
 FoFCou: FMM=F IPFlag=           0 FMFlag=      100000 FMFlg1=           0
         NFxFlg=           0 DoJE=T BraDBF=F KetDBF=T FulRan=T
         Omega=  0.000000  0.000000  1.000000  0.000000  0.000000 ICntrl=     500 IOpCl=  0
         NMat0=    1 NMatS0=    1 NMatT0=    0 NMatD0=    1 NMtDS0=    0 NMtDT0=    0
         I1Cent=           4 NGrid=           0.
 Petite list used in FoFCou.
 Requested convergence on RMS density matrix=1.00D-08 within 128 cycles.
 Requested convergence on MAX density matrix=1.00D-06.
 Requested convergence on             energy=1.00D-06.
 No special actions if energy rises.
 Keep R1 and R2 ints in memory in canonical form, NReq=86315119.
 SCF Done:  E(UM062X) =  -226.635115115     A.U. after   21 cycles
             Convg  =    0.9270D-08             -V/T =  2.0023
 <Sx>= 0.0000 <Sy>= 0.0000 <Sz>= 1.0000 <S**2>= 2.0182 S= 1.0061
 <L.S>= 0.000000000000E+00
 Annihilation of the first spin contaminant:
 S**2 before annihilation     2.0182,   after     2.0002
 Calling FoFJK, ICntrl=      2127 FMM=F ISym2X=0 I1Cent= 0 IOpClX= 1 NMat=1 NMatS=1 NMatT=0.
 ***** Axes restored to original set *****
 -------------------------------------------------------------------
 Center     Atomic                   Forces (Hartrees/Bohr)
 Number     Number              X              Y              Z
 -------------------------------------------------------------------
      1        8           0.031501039    0.011168116   -0.004704391
      2        8           0.000472261   -0.000133412    0.001952829
      3        1          -0.046827256   -0.006371357    0.002828316
      4        8           0.013958855   -0.004430048    0.001575360
      5        1           0.000895101   -0.000233298   -0.001652114
 -------------------------------------------------------------------
 Cartesian Forces:  Max     0.046827256 RMS     0.015503022

 GradGradGradGradGradGradGradGradGradGradGradGradGradGradGradGradGradGrad
 Berny optimization.
 Using GEDIIS/GDIIS optimizer.
 Internal  Forces:  Max     0.026445469 RMS     0.011407606
 Search for a local minimum.
 Step number   6 out of a maximum of   20
 All quantities printed in internal units (Hartrees-Bohrs-Radians)
 Mixed Optimization -- RFO/linear search
 Update second derivatives using D2CorX and points    5    6
 DE= -3.98D-04 DEPred=-8.75D-04 R= 4.55D-01
 Trust test= 4.55D-01 RLast= 4.15D-01 DXMaxT set to 9.68D-01
 The second derivative matrix:
                          R1        R2        R3        R4        R5
           R1           0.61749
           R2           0.03913   0.51100
           R3           0.00732   0.00429   0.04464
           R4          -0.03462  -0.05535  -0.00348   0.17883
           R5           0.03125   0.17162   0.01349  -0.16352   0.72722
           A1           0.05864  -0.00105   0.00371   0.00177   0.05898
           A2           0.00659   0.00121   0.00055  -0.00129   0.01670
           A3          -0.04440   0.01203   0.00496  -0.00660   0.01138
           D1           0.01426   0.01337  -0.00017  -0.01253   0.02326
           D2           0.00368  -0.00014  -0.00036   0.00009  -0.00245
                          A1        A2        A3        D1        D2
           A1           0.21652
           A2           0.00502   0.25112
           A3           0.02165  -0.00007   0.04695
           D1           0.00504  -0.00111  -0.00233   0.00650
           D2           0.00709  -0.00053  -0.00140   0.00150   0.00269
 ITU=  0  1  1  1  1  0
 Use linear search instead of GDIIS.
     Eigenvalues ---    0.00182   0.00582   0.03974   0.20686   0.61660
     Eigenvalues ---    0.746531000.000001000.000001000.000001000.00000
 RFO step:  Lambda=-5.60170923D-04 EMin= 1.82031828D-03
 Quartic linear search produced a step of -0.26848.
 Iteration  1 RMS(Cart)=  0.05052163 RMS(Int)=  0.09350960
 Iteration  2 RMS(Cart)=  0.05699722 RMS(Int)=  0.03067280
 Iteration  3 RMS(Cart)=  0.02841220 RMS(Int)=  0.00108542
 Iteration  4 RMS(Cart)=  0.00102461 RMS(Int)=  0.00000084
 Iteration  5 RMS(Cart)=  0.00000115 RMS(Int)=  0.00000003
 Iteration  6 RMS(Cart)=  0.00000000 RMS(Int)=  0.00000003
 Iteration  1 RMS(Cart)=  0.00000001 RMS(Int)=  0.00000002
 Variable       Old X    -DE/DX   Delta X   Delta X   Delta X     New X
                                 (Linear)    (Quad)   (Total)
    R1        2.37859   0.00195  -0.00316   0.00686   0.00370   2.38228
    R2        1.91928   0.02645   0.00000   0.00000   0.00000   1.91928
    R3        4.49758   0.00739   0.00000   0.00000   0.00000   4.49758
    R4        2.73776  -0.02221   0.00000   0.00000   0.00000   2.73776
    R5        1.83445  -0.00171  -0.01050   0.01308   0.00258   1.83703
    A1        1.91179  -0.00134  -0.00055  -0.02256  -0.02311   1.88868
    A2        2.60822   0.00660   0.00000   0.00000   0.00000   2.60822
    A3        1.82007  -0.00110   0.00724  -0.00408   0.00317   1.82324
    D1        1.87910  -0.00029   0.09044  -0.14388  -0.05344   1.82567
    D2       -1.16778   0.00091   0.06363   0.43029   0.49392  -0.67386
         Item               Value     Threshold  Converged?
 Maximum Force            0.001948     0.002500     YES
 RMS     Force            0.001233     0.001667     YES
 Maximum Displacement     0.203230     0.010000     NO 
 RMS     Displacement     0.126218     0.006667     NO 
 Predicted change in Energy=-2.227657D-04
 GradGradGradGradGradGradGradGradGradGradGradGradGradGradGradGradGradGrad

                          Input orientation:                          
 ---------------------------------------------------------------------
 Center     Atomic      Atomic             Coordinates (Angstroms)
 Number     Number       Type             X           Y           Z
 ---------------------------------------------------------------------
      1          8           0        0.990058    0.264180   -0.462506
      2          8           0        1.639117    0.095820    0.605023
      3          1           0        0.140885   -0.290358   -0.408533
      4          8           0       -1.293366   -0.360195   -0.216303
      5          1           0       -1.476693    0.290552    0.482218
 ---------------------------------------------------------------------
[...]
      5        1           0.000025809   -0.000349221    0.000350523
 -------------------------------------------------------------------
 Cartesian Forces:  Max     0.048235204 RMS     0.017146404

 GradGradGradGradGradGradGradGradGradGradGradGradGradGradGradGradGradGrad
 Berny optimization.
 Using GEDIIS/GDIIS optimizer.
 Internal  Forces:  Max     0.028905299 RMS     0.012449330
 Search for a local minimum.
 Step number  20 out of a maximum of   20
 All quantities printed in internal units (Hartrees-Bohrs-Radians)
 Mixed Optimization -- En-DIIS/RFO-DIIS
 Swaping is turned off.
 Update second derivatives using D2CorX and points   13   17   18   19   20
 DE=  1.63D-04 DEPred=-6.06D-05 R=-2.69D+00
 Trust test=-2.69D+00 RLast= 4.86D-01 DXMaxT set to 5.00D-02
 The second derivative matrix:
                          R1        R2        R3        R4        R5
           R1           0.50592
           R2           0.09910   0.50735
           R3           0.01755   0.01209   0.04708
           R4          -0.07468  -0.04932  -0.00938   0.17302
           R5           0.04146   0.02866   0.00509  -0.01722   0.45847
           A1           0.09589   0.04351   0.01245  -0.03658   0.07014
           A2          -0.00638   0.01026   0.00186  -0.01133  -0.00902
           A3           0.01488  -0.00580   0.00478   0.01864   0.04370
           D1          -0.01268  -0.00024  -0.00008  -0.00104  -0.01036
           D2           0.00283  -0.00359  -0.00074   0.00324  -0.00293
                          A1        A2        A3        D1        D2
           A1           0.23808
           A2           0.01141   0.25533
           A3           0.00958  -0.01331   0.09095
           D1          -0.01144   0.00196  -0.01311   0.00455
           D2          -0.00622  -0.00083  -0.00521   0.00230   0.00232
 ITU= -1 -1  0 -1  0 -1  0 -1  0  0 -1
     Eigenvalues ---    0.00056   0.00331   0.08750   0.19611   0.43732
     Eigenvalues ---    0.575481000.000001000.000001000.000001000.00000
 En-DIIS/RFO-DIIS IScMMF=        0 using points:    20   19   18
 RFO step:  Lambda=-6.29987360D-05.
 DidBck=F Rises=F RFO-DIIS coefs:    0.29365    1.31510   -0.60875
 Iteration  1 RMS(Cart)=  0.04407129 RMS(Int)=  0.05142400
 Iteration  2 RMS(Cart)=  0.04720584 RMS(Int)=  0.00283403
 Iteration  3 RMS(Cart)=  0.00239433 RMS(Int)=  0.00000499
 Iteration  4 RMS(Cart)=  0.00000662 RMS(Int)=  0.00000071
 Iteration  5 RMS(Cart)=  0.00000000 RMS(Int)=  0.00000071
 Iteration  1 RMS(Cart)=  0.00000034 RMS(Int)=  0.00000078
 Variable       Old X    -DE/DX   Delta X   Delta X   Delta X     New X
                                  (DIIS)     (GDIIS)  (Total)
    R1        2.37667  -0.00227   0.00291  -0.00059   0.00232   2.37898
    R2        1.91928   0.02891   0.00000   0.00000   0.00000   1.91928
    R3        4.49758   0.00780   0.00000   0.00000   0.00000   4.49758
    R4        2.73776  -0.02445   0.00000   0.00000   0.00000   2.73776
    R5        1.83047  -0.00021   0.00086   0.00081   0.00167   1.83214
    A1        1.90790   0.00053  -0.00312   0.00415   0.00103   1.90893
    A2        2.60822   0.00705   0.00000   0.00001   0.00000   2.60822
    A3        1.82716   0.00033   0.00652   0.00709   0.01360   1.84076
    D1        1.41284  -0.00011   0.07020   0.13982   0.21002   1.62286
    D2        0.41329  -0.00049  -0.27410  -0.08672  -0.36082   0.05247
         Item               Value     Threshold  Converged?
 Maximum Force            0.002266     0.002500     YES
 RMS     Force            0.000911     0.001667     YES
 Maximum Displacement     0.120613     0.010000     NO 
 RMS     Displacement     0.063668     0.006667     NO 
 Predicted change in Energy=-8.504363D-05
 Optimization stopped.
    -- Number of steps exceeded,  NStep=  20
    -- Flag reset to prevent archiving.
                           ----------------------------
                           ! Non-Optimized Parameters !
                           ! (Angstroms and Degrees)  !
 --------------------------                            --------------------------
 ! Name  Definition              Value          Derivative Info.                !
 --------------------------------------------------------------------------------
 ! R1    R(1,2)                  1.2589         -DE/DX =   -0.0023              !
 ! R2    R(1,3)                  1.0156         -DE/DX =    0.0289              !
 ! R3    R(1,4)                  2.38           -DE/DX =    0.0078              !
 ! R4    R(3,4)                  1.4488         -DE/DX =   -0.0245              !
 ! R5    R(4,5)                  0.9695         -DE/DX =   -0.0002              !
 ! A1    A(2,1,3)              109.3736         -DE/DX =    0.0005              !
 ! A2    A(1,3,4)              149.4402         -DE/DX =    0.007               !
 ! A3    A(3,4,5)              105.468          -DE/DX =    0.0003              !
 ! D1    D(2,1,3,4)             92.9831         -DE/DX =   -0.0001              !
 ! D2    D(1,3,4,5)              3.0064         -DE/DX =   -0.0005              !
 --------------------------------------------------------------------------------
 GradGradGradGradGradGradGradGradGradGradGradGradGradGradGradGradGradGrad

                          Input orientation:                          
 ---------------------------------------------------------------------
 Center     Atomic      Atomic             Coordinates (Angstroms)
 Number     Number       Type             X           Y           Z
 ---------------------------------------------------------------------
      1          8           0        0.976858    0.341902   -0.412097
      2          8           0        1.653798   -0.020121    0.584118
      3          1           0        0.131360   -0.218301   -0.465245
      4          8           0       -1.223291   -0.477570   -0.021843
      5          1           0       -1.538726    0.374090    0.314967
 ---------------------------------------------------------------------
                    Distance matrix (angstroms):
                    1          2          3          4          5
     1  O    0.000000
     2  O    1.257678   0.000000
     3  H    1.015638   1.859639   0.000000
     4  O    2.380019   2.975582   1.448759   0.000000
     5  H    2.618744   3.228011   1.936193   0.968641   0.000000
 Stoichiometry    H2O3(3)
 Framework group  C1[X(H2O3)]
 Deg. of freedom     9
 Full point group                 C1      NOp   1
 Largest Abelian subgroup         C1      NOp   1
 Largest concise Abelian subgroup C1      NOp   1
                         Standard orientation:                         
 ---------------------------------------------------------------------
 Center     Atomic      Atomic             Coordinates (Angstroms)
 Number     Number       Type             X           Y           Z
 ---------------------------------------------------------------------
      1          8           0        0.609223    0.581445    0.020804
      2          8           0        1.305525   -0.465807    0.007298
      3          1           0       -0.321150    0.370779   -0.327831
      4          8           0       -1.651777   -0.152718   -0.094837
      5          1           0       -1.782621   -0.074141    0.861704
 ---------------------------------------------------------------------
 Rotational constants (GHZ):     48.7352563      6.2348951      5.6478724

 **********************************************************************

            Population analysis using the SCF density.

 **********************************************************************

 Orbital symmetries:
 Alpha Orbitals:
       Occupied  (A) (A) (A) (A) (A) (A) (A) (A) (A) (A) (A) (A)
                 (A) (A)
       Virtual   (A) (A) (A) (A) (A) (A) (A) (A) (A) (A) (A) (A)
                 (A) (A) (A) (A) (A) (A) (A) (A) (A) (A) (A) (A)
                 (A) (A) (A) (A) (A) (A) (A) (A) (A) (A) (A) (A)
                 (A) (A) (A) (A) (A) (A) (A) (A) (A) (A) (A) (A)
                 (A) (A) (A) (A) (A) (A) (A) (A) (A) (A) (A) (A)
                 (A) (A) (A) (A) (A) (A) (A) (A) (A) (A) (A) (A)
                 (A) (A) (A) (A) (A) (A) (A) (A) (A) (A) (A) (A)
                 (A) (A) (A) (A) (A) (A) (A) (A) (A) (A) (A) (A)
                 (A) (A) (A) (A) (A) (A) (A) (A) (A) (A)
 Beta  Orbitals:
       Occupied  (A) (A) (A) (A) (A) (A) (A) (A) (A) (A) (A) (A)
       Virtual   (A) (A) (A) (A) (A) (A) (A) (A) (A) (A) (A) (A)
                 (A) (A) (A) (A) (A) (A) (A) (A) (A) (A) (A) (A)
                 (A) (A) (A) (A) (A) (A) (A) (A) (A) (A) (A) (A)
                 (A) (A) (A) (A) (A) (A) (A) (A) (A) (A) (A) (A)
                 (A) (A) (A) (A) (A) (A) (A) (A) (A) (A) (A) (A)
                 (A) (A) (A) (A) (A) (A) (A) (A) (A) (A) (A) (A)
                 (A) (A) (A) (A) (A) (A) (A) (A) (A) (A) (A) (A)
                 (A) (A) (A) (A) (A) (A) (A) (A) (A) (A) (A) (A)
                 (A) (A) (A) (A) (A) (A) (A) (A) (A) (A) (A) (A)
 The electronic state is 3-A.
 Alpha  occ. eigenvalues --  -19.79875 -19.76503 -19.67802  -1.42330  -1.14178
 Alpha  occ. eigenvalues --   -1.02034  -0.72160  -0.66036  -0.63480  -0.56625
 Alpha  occ. eigenvalues --   -0.49674  -0.43402  -0.42490  -0.41142
 Alpha virt. eigenvalues --    0.05358   0.09431   0.10940   0.12735   0.16845
 Alpha virt. eigenvalues --    0.17354   0.17882   0.19243   0.21276   0.23733
 Alpha virt. eigenvalues --    0.24449   0.25827   0.29189   0.29795   0.36761
 Alpha virt. eigenvalues --    0.49912   0.55476   0.67719   0.70218   0.76398
 Alpha virt. eigenvalues --    0.83369   0.89458   0.94247   0.95781   0.99530
 Alpha virt. eigenvalues --    1.03020   1.04817   1.07155   1.08139   1.10105
 Alpha virt. eigenvalues --    1.27464   1.30682   1.35014   1.37526   1.41671
 Alpha virt. eigenvalues --    1.44120   1.49523   1.55706   1.58723   1.77204
 Alpha virt. eigenvalues --    1.78407   1.83282   1.97752   2.12656   2.20076
 Alpha virt. eigenvalues --    2.22635   2.24042   2.36491   2.40612   2.52979
 Alpha virt. eigenvalues --    2.63890   2.82649   3.59470   3.62498   3.75885
 Alpha virt. eigenvalues --    3.77680   4.01173   4.11179   4.42395   4.56327
 Alpha virt. eigenvalues --    4.57244   4.71002   4.78902   4.91557   4.92756
 Alpha virt. eigenvalues --    4.93012   4.98081   4.99457   5.01612   5.02263
 Alpha virt. eigenvalues --    5.02297   5.03544   5.08313   5.09575   5.16267
 Alpha virt. eigenvalues --    5.19441   5.22080   5.24393   5.38081   5.51033
 Alpha virt. eigenvalues --    5.52859   5.62203   5.64354   6.48974   6.49940
 Alpha virt. eigenvalues --    6.61043   6.65370   6.71121   6.73452   6.78342
 Alpha virt. eigenvalues --    6.83615   6.84863   6.93194   6.93466   6.97236
 Alpha virt. eigenvalues --    7.03662   7.17561   7.20853   7.26678   7.41648
 Alpha virt. eigenvalues --    7.55909   7.83294   7.89468  49.92254  49.93866
 Alpha virt. eigenvalues --   49.98556
  Beta  occ. eigenvalues --  -19.78490 -19.74552 -19.66623  -1.37384  -1.09253
  Beta  occ. eigenvalues --   -0.95235  -0.66817  -0.59024  -0.54775  -0.53562
  Beta  occ. eigenvalues --   -0.40561  -0.35873
  Beta virt. eigenvalues --   -0.16348  -0.09001   0.05870   0.09934   0.11413
  Beta virt. eigenvalues --    0.13258   0.16858   0.18022   0.18231   0.19717
  Beta virt. eigenvalues --    0.21700   0.24453   0.24965   0.27562   0.29599
  Beta virt. eigenvalues --    0.31679   0.36636   0.50775   0.56444   0.67925
  Beta virt. eigenvalues --    0.71151   0.77050   0.84051   0.90468   0.94754
  Beta virt. eigenvalues --    0.97115   1.02250   1.03916   1.08306   1.08995
  Beta virt. eigenvalues --    1.10344   1.11913   1.29581   1.33470   1.36087
  Beta virt. eigenvalues --    1.39215   1.43662   1.46454   1.51500   1.57999
  Beta virt. eigenvalues --    1.61891   1.79546   1.80402   1.84604   1.99613
  Beta virt. eigenvalues --    2.13935   2.21263   2.23644   2.24858   2.36938
  Beta virt. eigenvalues --    2.41610   2.53427   2.64632   2.80819   3.60444
  Beta virt. eigenvalues --    3.62692   3.75718   3.77882   4.00494   4.11149
  Beta virt. eigenvalues --    4.45799   4.57864   4.58759   4.72369   4.79348
  Beta virt. eigenvalues --    4.95029   4.95739   4.98175   5.01121   5.02713
  Beta virt. eigenvalues --    5.04435   5.05731   5.06208   5.07560   5.10787
  Beta virt. eigenvalues --    5.12546   5.20024   5.20923   5.24090   5.26510
  Beta virt. eigenvalues --    5.40806   5.51887   5.56252   5.63437   5.66189
  Beta virt. eigenvalues --    6.51458   6.52648   6.71156   6.74104   6.77715
  Beta virt. eigenvalues --    6.81122   6.84000   6.87674   6.91376   6.97948
  Beta virt. eigenvalues --    6.98638   7.05812   7.07556   7.21137   7.24776
  Beta virt. eigenvalues --    7.29149   7.50829   7.57441   7.83702   7.91529
  Beta virt. eigenvalues --   49.91487  49.93067  49.97804
          Condensed to atoms (all electrons):
              1          2          3          4          5
     1  O    7.613666   0.253834   0.228023  -0.014042   0.014864
     2  O    0.253834   7.874151  -0.058248   0.012620  -0.005180
     3  H    0.228023  -0.058248   0.394293   0.079379  -0.008885
     4  O   -0.014042   0.012620   0.079379   8.112055   0.250296
     5  H    0.014864  -0.005180  -0.008885   0.250296   0.500511
 Mulliken atomic charges:
              1
     1  O   -0.096345
     2  O   -0.077176
     3  H    0.365437
     4  O   -0.440309
     5  H    0.248394
 Sum of Mulliken atomic charges =   0.00000
 Mulliken charges with hydrogens summed into heavy atoms:
              1
     1  O    0.269092
     2  O   -0.077176
     4  O   -0.191915
 Sum of Mulliken charges with hydrogens summed into heavy atoms =   0.00000
          Atomic-Atomic Spin Densities.
              1          2          3          4          5
     1  O    0.731555  -0.232738   0.035322  -0.013511  -0.000237
     2  O   -0.232738   1.080586   0.004875   0.013760   0.000920
     3  H    0.035322   0.004875  -0.074289  -0.024447  -0.002245
     4  O   -0.013511   0.013760  -0.024447   0.701496   0.011793
     5  H   -0.000237   0.000920  -0.002245   0.011793  -0.026331
 Mulliken atomic spin densities:
              1
     1  O    0.520391
     2  O    0.867402
     3  H   -0.060784
     4  O    0.689091
     5  H   -0.016100
 Sum of Mulliken atomic spin densities =   2.00000
 Electronic spatial extent (au):  <R**2>=            208.4585
 Charge=              0.0000 electrons
 Dipole moment (field-independent basis, Debye):
    X=             -0.2989    Y=              0.6405    Z=              1.1306  Tot=              1.3333
 Quadrupole moment (field-independent basis, Debye-Ang):
   XX=            -19.0102   YY=            -18.2889   ZZ=            -15.3743
   XY=             -0.1084   XZ=             -3.1143   YZ=             -0.3945
 Traceless Quadrupole moment (field-independent basis, Debye-Ang):
   XX=             -1.4524   YY=             -0.7311   ZZ=              2.1835
   XY=             -0.1084   XZ=             -3.1143   YZ=             -0.3945
 Octapole moment (field-independent basis, Debye-Ang**2):
  XXX=              0.7454  YYY=              0.6351  ZZZ=              1.6919  XYY=              0.9838
  XXY=             -0.3347  XXZ=              5.8529  XZZ=             -1.7346  YZZ=              0.0188
  YYZ=              0.1380  XYZ=              0.1813
 Hexadecapole moment (field-independent basis, Debye-Ang**3):
 XXXX=           -184.4077 YYYY=            -33.4161 ZZZZ=            -13.9286 XXXY=              2.8043
 XXXZ=            -12.4331 YYYX=             -1.1258 YYYZ=             -0.2944 ZZZX=             -3.7286
 ZZZY=             -0.2714 XXYY=            -36.9924 XXZZ=            -28.1530 YYZZ=             -8.1410
 XXYZ=             -0.2050 YYXZ=             -0.3624 ZZXY=              0.0948
 N-N= 6.947871506380D+01 E-N=-9.973329231665D+02  KE= 3.357646769755D+02
                          Isotropic Fermi Contact Couplings
        Atom                 a.u.       MegaHertz       Gauss      10(-4) cm-1
     1  O(17)              0.05551     -16.82567      -6.00382      -5.61244
     2  O(17)              0.12948     -39.24418     -14.00330     -13.09045
     3  H(1)              -0.03024     -67.58788     -24.11703     -22.54489
     4  O(17)              0.08159     -24.72988      -8.82424      -8.24900
     5  H(1)              -0.01134     -25.34779      -9.04472      -8.45511
 --------------------------------------------------------
       Center         ----  Spin Dipole Couplings  ----
                      3XX-RR        3YY-RR        3ZZ-RR
 --------------------------------------------------------
     1   Atom       -0.044494     -0.962275      1.006770
     2   Atom       -0.841039     -1.654901      2.495940
     3   Atom        0.218617     -0.123651     -0.094966
     4   Atom        1.854651     -0.541862     -1.312789
     5   Atom       -0.028173     -0.087461      0.115634
 --------------------------------------------------------
                        XY            XZ            YZ
 --------------------------------------------------------
     1   Atom        0.914793     -0.404950     -0.257305
     2   Atom        0.694150     -0.576126     -0.434743
     3   Atom        0.071000      0.056551     -0.001574
     4   Atom        1.614925      0.365079      0.187112
     5   Atom        0.024827     -0.030123      0.019564
 --------------------------------------------------------


 ---------------------------------------------------------------------------------
              Anisotropic Spin Dipole Couplings in Principal Axis System
 ---------------------------------------------------------------------------------

       Atom             a.u.   MegaHertz   Gauss  10(-4) cm-1        Axes

              Baa    -1.5268   110.481    39.422    36.853 -0.5247  0.8513  0.0026
     1 O(17)  Bbb     0.2255   -16.316    -5.822    -5.442  0.7262  0.4459  0.5233
              Bcc     1.3014   -94.165   -33.601   -31.410 -0.4443 -0.2764  0.8522
 
              Baa    -2.0546   148.666    53.048    49.590 -0.4887  0.8722  0.0215
     2 O(17)  Bbb    -0.6082    44.008    15.703    14.680  0.8525  0.4722  0.2243
              Bcc     2.6627  -192.674   -68.751   -64.269 -0.1855 -0.1279  0.9743
 
              Baa    -0.1419   -75.701   -27.012   -25.251 -0.2302  0.9230  0.3084
     3 H(1)   Bbb    -0.0999   -53.314   -19.024   -17.784 -0.0915 -0.3360  0.9374
              Bcc     0.2418   129.015    46.036    43.035  0.9688  0.1875  0.1618
 
              Baa    -1.3576    98.235    35.053    32.768  0.2505 -0.6586  0.7095
     4 O(17)  Bbb    -1.3516    97.798    34.897    32.622 -0.3842  0.6051  0.6973
              Bcc     2.7092  -196.033   -69.949   -65.389  0.8886  0.4473  0.1015
 
              Baa    -0.1004   -53.566   -19.114   -17.868 -0.3720  0.9183 -0.1350
     5 H(1)   Bbb    -0.0223   -11.892    -4.243    -3.967  0.9097  0.3896  0.1434
              Bcc     0.1227    65.458    23.357    21.835 -0.1843  0.0695  0.9804
 

 ---------------------------------------------------------------------------------



 IF I AM NOT FOR MYSELF, WHO WILL BE?
 BUT IF I AM ONLY FOR MYSELF, WHAT AM I?
 THOUGH A SEEKER SINCE MY BIRTH,
 HERE IS ALL I'VE LEARNED ON EARTH,
 THIS IS THE GIST OF WHAT I KNOW:
 GIVE ADVICE AND BUY A FOE.

 PRESSED FOR RULES AND VERITIES,
 ALL I RECOLLECT ARE THESE:
 FEED A COLD TO STARVE A FEVER,
 ARGUE WITH NO TRUE-BELIEVER.
 THINK-TOO-LONG IS NEVER-ACT,
 SCRATCH A MYTH AND FIND A FACT.

 STITCH IN TIME SAVES TWENTY STITCHES,
 GIVE THE RICH TO PLEASE THEM, RICHES.
 GIVE TO LOVE YOU HEARTH AND HALL,
 BUT DO NOT GIVE ADVICE AT ALL.

                                  -- HILLEL
 Error termination request processed by link 9999.
 Error termination via Lnk1e in /shared/apps/gaussian/G09_LINUX_LINDA/g09/l9999.exe at Mon Jul 31 10:04:47 2017.
 Job cpu time:  0 days  4 hours 15 minutes  7.3 seconds.
 File lengths (MBytes):  RWF=   1216 Int=      0 D2E=      0 Chk=     32 Scr=     32
