 Entering Gaussian System, Link 0=/shared/apps/gaussian/G09_LINUX_LINDA/g09/g09
 Input=/gss_gpfs_scratch/harms.n/QMscratch/[OH]+[O]OC=O_O=COO+[O].gjf
 Output=/gss_gpfs_scratch/harms.n/QMscratch/[OH]+[O]OC=O_O=COO+[O].log
 Initial command:
 /shared/apps/gaussian/G09_LINUX_LINDA/g09/l1.exe /gss_gpfs_scratch/harms.n/comparerTST/Gau-48323.inp -scrdir=/gss_gpfs_scratch/harms.n/comparerTST/
 Entering Link 1 = /shared/apps/gaussian/G09_LINUX_LINDA/g09/l1.exe PID=     48324.
  
 Copyright (c) 1988,1990,1992,1993,1995,1998,2003,2009,2010,
            Gaussian, Inc.  All Rights Reserved.
  
 This is part of the Gaussian(R) 09 program.  It is based on
 the Gaussian(R) 03 system (copyright 2003, Gaussian, Inc.),
 the Gaussian(R) 98 system (copyright 1998, Gaussian, Inc.),
 the Gaussian(R) 94 system (copyright 1995, Gaussian, Inc.),
 the Gaussian 92(TM) system (copyright 1992, Gaussian, Inc.),
 the Gaussian 90(TM) system (copyright 1990, Gaussian, Inc.),
 the Gaussian 88(TM) system (copyright 1988, Gaussian, Inc.),
 the Gaussian 86(TM) system (copyright 1986, Carnegie Mellon
 University), and the Gaussian 82(TM) system (copyright 1983,
 Carnegie Mellon University). Gaussian is a federally registered
 trademark of Gaussian, Inc.
  
 This software contains proprietary and confidential information,
 including trade secrets, belonging to Gaussian, Inc.
  
 This software is provided under written license and may be
 used, copied, transmitted, or stored only in accord with that
 written license.
  
 The following legend is applicable only to US Government
 contracts under FAR:
  
                    RESTRICTED RIGHTS LEGEND
  
 Use, reproduction and disclosure by the US Government is
 subject to restrictions as set forth in subparagraphs (a)
 and (c) of the Commercial Computer Software - Restricted
 Rights clause in FAR 52.227-19.
  
 Gaussian, Inc.
 340 Quinnipiac St., Bldg. 40, Wallingford CT 06492
  
  
 ---------------------------------------------------------------
 Warning -- This program may not be used in any manner that
 competes with the business of Gaussian, Inc. or will provide
 assistance to any competitor of Gaussian, Inc.  The licensee
 of this program is prohibited from giving any competitor of
 Gaussian, Inc. access to this program.  By using this program,
 the user acknowledges that Gaussian, Inc. is engaged in the
 business of creating and licensing software in the field of
 computational chemistry and represents and warrants to the
 licensee that it is not a competitor of Gaussian, Inc. and that
 it will not use this program in any manner prohibited above.
 ---------------------------------------------------------------
  

 Cite this work as:
 Gaussian 09, Revision B.01,
 M. J. Frisch, G. W. Trucks, H. B. Schlegel, G. E. Scuseria, 
 M. A. Robb, J. R. Cheeseman, G. Scalmani, V. Barone, B. Mennucci, 
 G. A. Petersson, H. Nakatsuji, M. Caricato, X. Li, H. P. Hratchian, 
 A. F. Izmaylov, J. Bloino, G. Zheng, J. L. Sonnenberg, M. Hada, 
 M. Ehara, K. Toyota, R. Fukuda, J. Hasegawa, M. Ishida, T. Nakajima, 
 Y. Honda, O. Kitao, H. Nakai, T. Vreven, J. A. Montgomery, Jr., 
 J. E. Peralta, F. Ogliaro, M. Bearpark, J. J. Heyd, E. Brothers, 
 K. N. Kudin, V. N. Staroverov, T. Keith, R. Kobayashi, J. Normand, 
 K. Raghavachari, A. Rendell, J. C. Burant, S. S. Iyengar, J. Tomasi, 
 M. Cossi, N. Rega, J. M. Millam, M. Klene, J. E. Knox, J. B. Cross, 
 V. Bakken, C. Adamo, J. Jaramillo, R. Gomperts, R. E. Stratmann, 
 O. Yazyev, A. J. Austin, R. Cammi, C. Pomelli, J. W. Ochterski, 
 R. L. Martin, K. Morokuma, V. G. Zakrzewski, G. A. Voth, 
 P. Salvador, J. J. Dannenberg, S. Dapprich, A. D. Daniels, 
 O. Farkas, J. B. Foresman, J. V. Ortiz, J. Cioslowski, 
 and D. J. Fox, Gaussian, Inc., Wallingford CT, 2010.
 
 ******************************************
 Gaussian 09:  EM64L-G09RevB.01 12-Aug-2010
                 1-Aug-2017 
 ******************************************
 %nprocshared=20
 Will use up to   20 processors via shared memory.
 %mem=5GB
 %chk=/gss_gpfs_scratch/harms.n/QMscratch/[OH]+[O]OC=O_O=COO+[O]
 --------------------------------------------------------
 # m062x/6-311+g(2df,2p) opt=(ts,calcfc,noeigentest) freq
 --------------------------------------------------------
 1/5=1,10=4,11=1,14=-1,18=20,26=3,38=1/1,3;
 2/9=110,12=2,17=6,18=5,40=1/2;
 3/5=4,6=6,7=214,11=2,16=1,25=1,30=1,71=2,74=-55/1,2,3;
 4//1;
 5/5=2,38=5/2;
 8/6=4,10=90,11=11/1;
 11/6=1,8=1,9=11,15=111,16=1/1,2,10;
 10/6=1,7=6,13=1/2;
 6/7=2,8=2,9=2,10=2,28=1/1;
 7/10=1,18=20,25=1/1,2,3,16;
 1/5=1,10=4,11=1,14=-1,18=20/3(2);
 2/9=110/2;
 99//99;
 2/9=110/2;
 3/5=4,6=6,7=214,11=2,16=1,25=1,30=1,71=1,74=-55/1,2,3;
 4/5=5,16=3/1;
 5/5=2,38=5/2;
 7//1,2,3,16;
 1/5=1,11=1,14=-1,18=20/3(-5);
 2/9=110/2;
 6/7=2,8=2,9=2,10=2,19=2,28=1/1;
 99/9=1/99;
 ----------------------
 [OH]+[O]OC=O_O=COO+[O]
 ----------------------
 Symbolic Z-matrix:
 Charge =  0 Multiplicity = 3
 O                    -1.84872  -0.65214  -0.3126 
 H                    -1.18891   0.15471   0.28071 
 C                     1.20237  -0.24952  -0.21126 
 O                     0.58014   0.96073  -0.32347 
 O                     0.7732   -1.17428   0.38856 
 H                     2.12424  -0.20001  -0.79885 
 O                    -0.52331   1.0585    0.47072 
 

 GradGradGradGradGradGradGradGradGradGradGradGradGradGradGradGradGradGrad
 Berny optimization.
 Initialization pass.
                           ----------------------------
                           !    Initial Parameters    !
                           ! (Angstroms and Degrees)  !
 --------------------------                            --------------------------
 ! Name  Definition              Value          Derivative Info.                !
 --------------------------------------------------------------------------------
 ! R1    R(1,2)                  1.1993         calculate D2E/DX2 analytically  !
 ! R2    R(2,7)                  1.1384         calculate D2E/DX2 analytically  !
 ! R3    R(3,4)                  1.3655         calculate D2E/DX2 analytically  !
 ! R4    R(3,5)                  1.1829         calculate D2E/DX2 analytically  !
 ! R5    R(3,6)                  1.0943         calculate D2E/DX2 analytically  !
 ! R6    R(4,7)                  1.363          calculate D2E/DX2 analytically  !
 ! A1    A(1,2,7)              159.775          calculate D2E/DX2 analytically  !
 ! A2    A(4,3,5)              124.6993         calculate D2E/DX2 analytically  !
 ! A3    A(4,3,6)              107.4368         calculate D2E/DX2 analytically  !
 ! A4    A(5,3,6)              127.8286         calculate D2E/DX2 analytically  !
 ! A5    A(3,4,7)              112.6188         calculate D2E/DX2 analytically  !
 ! A6    A(2,7,4)              108.6101         calculate D2E/DX2 analytically  !
 ! D1    D(1,2,7,4)            -54.4311         calculate D2E/DX2 analytically  !
 ! D2    D(5,3,4,7)              7.7108         calculate D2E/DX2 analytically  !
 ! D3    D(6,3,4,7)           -174.3102         calculate D2E/DX2 analytically  !
 ! D4    D(4,3,5,6)            177.5587         calculate D2E/DX2 analytically  !
 ! D5    D(3,4,7,2)            -51.3608         calculate D2E/DX2 analytically  !
 --------------------------------------------------------------------------------
 Trust Radius=3.00D-01 FncErr=1.00D-07 GrdErr=1.00D-06
 Number of steps in this run=     27 maximum allowed number of steps=    100.
 Search for a saddle point of order  1.
 GradGradGradGradGradGradGradGradGradGradGradGradGradGradGradGradGradGrad

                          Input orientation:                          
 ---------------------------------------------------------------------
 Center     Atomic      Atomic             Coordinates (Angstroms)
 Number     Number       Type             X           Y           Z
 ---------------------------------------------------------------------
      1          8           0       -1.848720   -0.652142   -0.312595
      2          1           0       -1.188914    0.154707    0.280706
      3          6           0        1.202369   -0.249524   -0.211260
      4          8           0        0.580138    0.960727   -0.323473
      5          8           0        0.773196   -1.174277    0.388562
      6          1           0        2.124235   -0.200014   -0.798853
      7          8           0       -0.523306    1.058498    0.470719
 ---------------------------------------------------------------------
                    Distance matrix (angstroms):
                    1          2          3          4          5
     1  O    0.000000
     2  H    1.199315   0.000000
     3  C    3.079207   2.474605   0.000000
     4  O    2.915616   2.035742   1.365456   0.000000
     5  O    2.763818   2.372279   1.182854   2.258873   0.000000
     6  H    4.028056   3.502603   1.094328   1.989357   2.045593
     7  O    2.301433   1.138410   2.270236   1.363044   2.583206
                    6          7
     6  H    0.000000
     7  O    3.194548   0.000000
 Stoichiometry    CH2O4(3)
 Framework group  C1[X(CH2O4)]
 Deg. of freedom    15
 Full point group                 C1      NOp   1
 Largest Abelian subgroup         C1      NOp   1
 Largest concise Abelian subgroup C1      NOp   1
                         Standard orientation:                         
 ---------------------------------------------------------------------
 Center     Atomic      Atomic             Coordinates (Angstroms)
 Number     Number       Type             X           Y           Z
 ---------------------------------------------------------------------
      1          8           0       -1.848720   -0.652141   -0.312595
      2          1           0       -1.188914    0.154708    0.280706
      3          6           0        1.202369   -0.249525   -0.211260
      4          8           0        0.580139    0.960727   -0.323473
      5          8           0        0.773195   -1.174277    0.388562
      6          1           0        2.124235   -0.200015   -0.798853
      7          8           0       -0.523305    1.058498    0.470719
 ---------------------------------------------------------------------
 Rotational constants (GHZ):      6.9470462      4.6897739      3.1644714
 Standard basis: 6-311+G(2df,2p) (5D, 7F)
 There are   188 symmetry adapted basis functions of A   symmetry.
 Integral buffers will be    131072 words long.
 Raffenetti 2 integral format.
 Two-electron integral symmetry is turned on.
   188 basis functions,   282 primitive gaussians,   213 cartesian basis functions
    21 alpha electrons       19 beta electrons
       nuclear repulsion energy       173.0714715903 Hartrees.
 NAtoms=    7 NActive=    7 NUniq=    7 SFac= 1.00D+00 NAtFMM=   50 NAOKFM=F Big=F
 One-electron integrals computed using PRISM.
 NBasis=   188 RedAO= T  NBF=   188
 NBsUse=   188 1.00D-06 NBFU=   188
 Harris functional with IExCor= 1009 diagonalized for initial guess.
 ExpMin= 4.38D-02 ExpMax= 8.59D+03 ExpMxC= 1.30D+03 IAcc=2 IRadAn=         0 AccDes= 0.00D+00
 HarFok:  IExCor= 1009 AccDes= 0.00D+00 IRadAn=         0 IDoV= 1
 ScaDFX=  1.000000  1.000000  1.000000  1.000000
 FoFCou: FMM=F IPFlag=           0 FMFlag=      100000 FMFlg1=           0
         NFxFlg=           0 DoJE=T BraDBF=F KetDBF=T FulRan=T
         Omega=  0.000000  0.000000  1.000000  0.000000  0.000000 ICntrl=     500 IOpCl=  0
         NMat0=    1 NMatS0=    1 NMatT0=    0 NMatD0=    1 NMtDS0=    0 NMtDT0=    0
         I1Cent=           4 NGrid=           0.
 Petite list used in FoFCou.
 Initial guess orbital symmetries:
 Alpha Orbitals:
       Occupied  (A) (A) (A) (A) (A) (A) (A) (A) (A) (A) (A) (A)
                 (A) (A) (A) (A) (A) (A) (A) (A) (A)
       Virtual   (A) (A) (A) (A) (A) (A) (A) (A) (A) (A) (A) (A)
                 (A) (A) (A) (A) (A) (A) (A) (A) (A) (A) (A) (A)
                 (A) (A) (A) (A) (A) (A) (A) (A) (A) (A) (A) (A)
                 (A) (A) (A) (A) (A) (A) (A) (A) (A) (A) (A) (A)
                 (A) (A) (A) (A) (A) (A) (A) (A) (A) (A) (A) (A)
                 (A) (A) (A) (A) (A) (A) (A) (A) (A) (A) (A) (A)
                 (A) (A) (A) (A) (A) (A) (A) (A) (A) (A) (A) (A)
                 (A) (A) (A) (A) (A) (A) (A) (A) (A) (A) (A) (A)
                 (A) (A) (A) (A) (A) (A) (A) (A) (A) (A) (A) (A)
                 (A) (A) (A) (A) (A) (A) (A) (A) (A) (A) (A) (A)
                 (A) (A) (A) (A) (A) (A) (A) (A) (A) (A) (A) (A)
                 (A) (A) (A) (A) (A) (A) (A) (A) (A) (A) (A) (A)
                 (A) (A) (A) (A) (A) (A) (A) (A) (A) (A) (A) (A)
                 (A) (A) (A) (A) (A) (A) (A) (A) (A) (A) (A)
 Beta  Orbitals:
       Occupied  (A) (A) (A) (A) (A) (A) (A) (A) (A) (A) (A) (A)
                 (A) (A) (A) (A) (A) (A) (A)
       Virtual   (A) (A) (A) (A) (A) (A) (A) (A) (A) (A) (A) (A)
                 (A) (A) (A) (A) (A) (A) (A) (A) (A) (A) (A) (A)
                 (A) (A) (A) (A) (A) (A) (A) (A) (A) (A) (A) (A)
                 (A) (A) (A) (A) (A) (A) (A) (A) (A) (A) (A) (A)
                 (A) (A) (A) (A) (A) (A) (A) (A) (A) (A) (A) (A)
                 (A) (A) (A) (A) (A) (A) (A) (A) (A) (A) (A) (A)
                 (A) (A) (A) (A) (A) (A) (A) (A) (A) (A) (A) (A)
                 (A) (A) (A) (A) (A) (A) (A) (A) (A) (A) (A) (A)
                 (A) (A) (A) (A) (A) (A) (A) (A) (A) (A) (A) (A)
                 (A) (A) (A) (A) (A) (A) (A) (A) (A) (A) (A) (A)
                 (A) (A) (A) (A) (A) (A) (A) (A) (A) (A) (A) (A)
                 (A) (A) (A) (A) (A) (A) (A) (A) (A) (A) (A) (A)
                 (A) (A) (A) (A) (A) (A) (A) (A) (A) (A) (A) (A)
                 (A) (A) (A) (A) (A) (A) (A) (A) (A) (A) (A) (A)
                 (A)
 The electronic state of the initial guess is 3-A.
 Initial guess <Sx>= 0.0000 <Sy>= 0.0000 <Sz>= 1.0000 <S**2>= 2.0000 S= 1.0000
 Requested convergence on RMS density matrix=1.00D-08 within 128 cycles.
 Requested convergence on MAX density matrix=1.00D-06.
 Requested convergence on             energy=1.00D-06.
 No special actions if energy rises.
 Keep R1 and R2 ints in memory in canonical form, NReq=524572936.
 SCF Done:  E(UM062X) =  -339.927046396     A.U. after   29 cycles
             Convg  =    0.3995D-08             -V/T =  2.0026
 <Sx>= 0.0000 <Sy>= 0.0000 <Sz>= 1.0000 <S**2>= 2.0184 S= 1.0061
 <L.S>= 0.000000000000E+00
 Annihilation of the first spin contaminant:
 S**2 before annihilation     2.0184,   after     2.0001
 Range of M.O.s used for correlation:     1   188
 NBasis=   188 NAE=    21 NBE=    19 NFC=     0 NFV=     0
 NROrb=    188 NOA=    21 NOB=    19 NVA=   167 NVB=   169

 **** Warning!!: The largest alpha MO coefficient is  0.12686851D+02


 **** Warning!!: The largest beta MO coefficient is  0.15567651D+02

 Symmetrizing basis deriv contribution to polar:
 IMax=3 JMax=2 DiffMx= 0.00D+00
 G2DrvN: will do     8 centers at a time, making    1 passes doing MaxLOS=3.
 Calling FoFCou, ICntrl=  3107 FMM=F I1Cent=   0 AccDes= 0.00D+00.
 FoFDir/FoFCou used for L=0 through L=3.
 End of G2Drv Frequency-dependent properties file   721 does not exist.
 End of G2Drv Frequency-dependent properties file   722 does not exist.
          IDoAtm=1111111
          Differentiating once with respect to nuclear coordinates.
          Keep R1 and R2 ints in memory in canonical form, NReq=521395447.
          There are    24 degrees of freedom in the 1st order CPHF.  IDoFFX=5.
     18 vectors produced by pass  0 Test12= 2.80D-10 4.17D-07 XBig12= 2.98D-01 2.36D-01.
 AX will form    18 AO Fock derivatives at one time.
     18 vectors produced by pass  1 Test12= 2.80D-10 4.17D-07 XBig12= 9.81D-02 9.02D-02.
     18 vectors produced by pass  2 Test12= 2.80D-10 4.17D-07 XBig12= 3.53D-03 1.44D-02.
     18 vectors produced by pass  3 Test12= 2.80D-10 4.17D-07 XBig12= 1.34D-04 2.50D-03.
     18 vectors produced by pass  4 Test12= 2.80D-10 4.17D-07 XBig12= 3.34D-06 4.07D-04.
     18 vectors produced by pass  5 Test12= 2.80D-10 4.17D-07 XBig12= 5.05D-08 3.39D-05.
     10 vectors produced by pass  6 Test12= 2.80D-10 4.17D-07 XBig12= 9.01D-10 5.46D-06.
      1 vectors produced by pass  7 Test12= 2.80D-10 4.17D-07 XBig12= 1.21D-11 4.74D-07.
 Inverted reduced A of dimension   119 with in-core refinement.
 End of Minotr Frequency-dependent properties file   721 does not exist.
 End of Minotr Frequency-dependent properties file   722 does not exist.

 **********************************************************************

            Population analysis using the SCF density.

 **********************************************************************

 Orbital symmetries:
 Alpha Orbitals:
       Occupied  (A) (A) (A) (A) (A) (A) (A) (A) (A) (A) (A) (A)
                 (A) (A) (A) (A) (A) (A) (A) (A) (A)
       Virtual   (A) (A) (A) (A) (A) (A) (A) (A) (A) (A) (A) (A)
                 (A) (A) (A) (A) (A) (A) (A) (A) (A) (A) (A) (A)
                 (A) (A) (A) (A) (A) (A) (A) (A) (A) (A) (A) (A)
                 (A) (A) (A) (A) (A) (A) (A) (A) (A) (A) (A) (A)
                 (A) (A) (A) (A) (A) (A) (A) (A) (A) (A) (A) (A)
                 (A) (A) (A) (A) (A) (A) (A) (A) (A) (A) (A) (A)
                 (A) (A) (A) (A) (A) (A) (A) (A) (A) (A) (A) (A)
                 (A) (A) (A) (A) (A) (A) (A) (A) (A) (A) (A) (A)
                 (A) (A) (A) (A) (A) (A) (A) (A) (A) (A) (A) (A)
                 (A) (A) (A) (A) (A) (A) (A) (A) (A) (A) (A) (A)
                 (A) (A) (A) (A) (A) (A) (A) (A) (A) (A) (A) (A)
                 (A) (A) (A) (A) (A) (A) (A) (A) (A) (A) (A) (A)
                 (A) (A) (A) (A) (A) (A) (A) (A) (A) (A) (A) (A)
                 (A) (A) (A) (A) (A) (A) (A) (A) (A) (A) (A)
 Beta  Orbitals:
       Occupied  (A) (A) (A) (A) (A) (A) (A) (A) (A) (A) (A) (A)
                 (A) (A) (A) (A) (A) (A) (A)
       Virtual   (A) (A) (A) (A) (A) (A) (A) (A) (A) (A) (A) (A)
                 (A) (A) (A) (A) (A) (A) (A) (A) (A) (A) (A) (A)
                 (A) (A) (A) (A) (A) (A) (A) (A) (A) (A) (A) (A)
                 (A) (A) (A) (A) (A) (A) (A) (A) (A) (A) (A) (A)
                 (A) (A) (A) (A) (A) (A) (A) (A) (A) (A) (A) (A)
                 (A) (A) (A) (A) (A) (A) (A) (A) (A) (A) (A) (A)
                 (A) (A) (A) (A) (A) (A) (A) (A) (A) (A) (A) (A)
                 (A) (A) (A) (A) (A) (A) (A) (A) (A) (A) (A) (A)
                 (A) (A) (A) (A) (A) (A) (A) (A) (A) (A) (A) (A)
                 (A) (A) (A) (A) (A) (A) (A) (A) (A) (A) (A) (A)
                 (A) (A) (A) (A) (A) (A) (A) (A) (A) (A) (A) (A)
                 (A) (A) (A) (A) (A) (A) (A) (A) (A) (A) (A) (A)
                 (A) (A) (A) (A) (A) (A) (A) (A) (A) (A) (A) (A)
                 (A) (A) (A) (A) (A) (A) (A) (A) (A) (A) (A) (A)
                 (A)
 The electronic state is 3-A.
 Alpha  occ. eigenvalues --  -19.77452 -19.75598 -19.74140 -19.67318 -10.71435
 Alpha  occ. eigenvalues --   -1.37101  -1.23228  -1.16230  -1.07237  -0.77807
 Alpha  occ. eigenvalues --   -0.69002  -0.65105  -0.62140  -0.57278  -0.55564
 Alpha  occ. eigenvalues --   -0.53847  -0.50335  -0.48062  -0.45509  -0.41466
 Alpha  occ. eigenvalues --   -0.40989
 Alpha virt. eigenvalues --   -0.00153   0.01337   0.03623   0.04532   0.05663
 Alpha virt. eigenvalues --    0.06985   0.13939   0.15453   0.15840   0.17557
 Alpha virt. eigenvalues --    0.17926   0.19184   0.22393   0.22954   0.24251
 Alpha virt. eigenvalues --    0.24914   0.25565   0.25961   0.27712   0.29258
 Alpha virt. eigenvalues --    0.30976   0.32352   0.34490   0.35162   0.37679
 Alpha virt. eigenvalues --    0.46011   0.52912   0.54692   0.56534   0.59421
 Alpha virt. eigenvalues --    0.63800   0.68762   0.71411   0.77675   0.81226
 Alpha virt. eigenvalues --    0.81906   0.89017   0.93986   0.98667   1.00079
 Alpha virt. eigenvalues --    1.01957   1.02977   1.03905   1.06151   1.07660
 Alpha virt. eigenvalues --    1.07961   1.09133   1.11013   1.16165   1.19373
 Alpha virt. eigenvalues --    1.21666   1.26607   1.33902   1.37294   1.40787
 Alpha virt. eigenvalues --    1.44419   1.45928   1.47920   1.51773   1.53025
 Alpha virt. eigenvalues --    1.58643   1.60420   1.63947   1.69059   1.74599
 Alpha virt. eigenvalues --    1.83768   1.90655   1.96099   2.00191   2.04076
 Alpha virt. eigenvalues --    2.07754   2.12559   2.25959   2.32711   2.37468
 Alpha virt. eigenvalues --    2.48116   2.50777   2.55169   2.62424   2.67358
 Alpha virt. eigenvalues --    2.70226   2.75774   2.93589   2.97984   3.01721
 Alpha virt. eigenvalues --    3.13319   3.18199   3.21578   3.31673   3.37712
 Alpha virt. eigenvalues --    3.44073   3.52484   3.54078   3.65606   3.70304
 Alpha virt. eigenvalues --    3.74570   3.79535   3.88605   4.08670   4.10326
 Alpha virt. eigenvalues --    4.31475   4.51406   4.58955   4.73450   4.79761
 Alpha virt. eigenvalues --    4.84241   4.89977   4.94548   4.95080   4.95703
 Alpha virt. eigenvalues --    4.96073   4.97304   4.97979   5.00125   5.02204
 Alpha virt. eigenvalues --    5.03382   5.04739   5.06872   5.08863   5.10114
 Alpha virt. eigenvalues --    5.13289   5.16382   5.19161   5.23837   5.30392
 Alpha virt. eigenvalues --    5.31923   5.37880   5.39121   5.42441   5.47771
 Alpha virt. eigenvalues --    5.49948   5.65943   5.82635   5.88200   6.11702
 Alpha virt. eigenvalues --    6.22631   6.35965   6.52150   6.58987   6.60251
 Alpha virt. eigenvalues --    6.66641   6.69042   6.73213   6.79202   6.80663
 Alpha virt. eigenvalues --    6.85225   6.86519   6.95580   6.98802   7.02430
 Alpha virt. eigenvalues --    7.07318   7.11949   7.14702   7.21688   7.27732
 Alpha virt. eigenvalues --    7.39416   7.44224   7.59726   7.62342   7.76410
 Alpha virt. eigenvalues --    7.84930   7.90796  24.72797  49.85274  49.94937
 Alpha virt. eigenvalues --   50.01130  50.24447
  Beta  occ. eigenvalues --  -19.77268 -19.74665 -19.71369 -19.67215 -10.71451
  Beta  occ. eigenvalues --   -1.35606  -1.22702  -1.07378  -1.00401  -0.76297
  Beta  occ. eigenvalues --   -0.67318  -0.62670  -0.60583  -0.54466  -0.50965
  Beta  occ. eigenvalues --   -0.46927  -0.41970  -0.40825  -0.39015
  Beta virt. eigenvalues --   -0.17009  -0.11256   0.00333   0.01388   0.03764
  Beta virt. eigenvalues --    0.04627   0.05778   0.07704   0.13848   0.15594
  Beta virt. eigenvalues --    0.16043   0.17573   0.18324   0.19429   0.22303
  Beta virt. eigenvalues --    0.22986   0.24483   0.24895   0.25618   0.26308
  Beta virt. eigenvalues --    0.27722   0.29314   0.31223   0.32307   0.34620
  Beta virt. eigenvalues --    0.36176   0.38644   0.46076   0.53267   0.54673
  Beta virt. eigenvalues --    0.57306   0.59510   0.63919   0.68769   0.72161
  Beta virt. eigenvalues --    0.77763   0.81859   0.82517   0.89341   0.94843
  Beta virt. eigenvalues --    0.99421   1.01230   1.03152   1.03617   1.05093
  Beta virt. eigenvalues --    1.06355   1.08258   1.09259   1.10038   1.13104
  Beta virt. eigenvalues --    1.16602   1.19710   1.22649   1.26882   1.34729
  Beta virt. eigenvalues --    1.38795   1.42580   1.45110   1.49116   1.50988
  Beta virt. eigenvalues --    1.53681   1.55741   1.59843   1.61296   1.64854
  Beta virt. eigenvalues --    1.69337   1.77316   1.85525   1.91166   1.96439
  Beta virt. eigenvalues --    2.00899   2.05073   2.08709   2.13082   2.26600
  Beta virt. eigenvalues --    2.32949   2.37559   2.48833   2.50336   2.55316
  Beta virt. eigenvalues --    2.60874   2.67536   2.67994   2.75573   2.93304
  Beta virt. eigenvalues --    2.97911   3.01651   3.13193   3.17900   3.21430
  Beta virt. eigenvalues --    3.31583   3.37657   3.43981   3.52353   3.53970
  Beta virt. eigenvalues --    3.65206   3.70033   3.74086   3.78309   3.88142
  Beta virt. eigenvalues --    4.08585   4.10214   4.31434   4.52565   4.59158
  Beta virt. eigenvalues --    4.73679   4.80641   4.84503   4.94306   4.96191
  Beta virt. eigenvalues --    4.99424   4.99967   5.00704   5.00985   5.02142
  Beta virt. eigenvalues --    5.03381   5.05332   5.05663   5.06107   5.08541
  Beta virt. eigenvalues --    5.10237   5.10673   5.14080   5.17446   5.20162
  Beta virt. eigenvalues --    5.25508   5.31709   5.32991   5.38365   5.39887
  Beta virt. eigenvalues --    5.42767   5.49932   5.52819   5.66174   5.82622
  Beta virt. eigenvalues --    5.88442   6.12812   6.23032   6.36336   6.52331
  Beta virt. eigenvalues --    6.71646   6.71980   6.75123   6.76688   6.79421
  Beta virt. eigenvalues --    6.83831   6.84474   6.86818   6.90061   7.00606
  Beta virt. eigenvalues --    7.02867   7.05451   7.08858   7.13398   7.15846
  Beta virt. eigenvalues --    7.22974   7.29989   7.40585   7.51562   7.60194
  Beta virt. eigenvalues --    7.63503   7.78826   7.86606   7.90968  24.72733
  Beta virt. eigenvalues --   49.84367  49.94468  50.00792  50.24336
          Condensed to atoms (all electrons):
              1          2          3          4          5          6
     1  O    8.027114   0.131912   0.008368   0.018346   0.003326   0.000157
     2  H    0.131912   0.344956  -0.012013  -0.022379  -0.001049  -0.000215
     3  C    0.008368  -0.012013   4.752941   0.199088   0.423448   0.457489
     4  O    0.018346  -0.022379   0.199088   7.844447  -0.074928  -0.074258
     5  O    0.003326  -0.001049   0.423448  -0.074928   7.985118  -0.037421
     6  H    0.000157  -0.000215   0.457489  -0.074258  -0.037421   0.479437
     7  O    0.002297   0.176334  -0.039363   0.152443   0.024552   0.010351
              7
     1  O    0.002297
     2  H    0.176334
     3  C   -0.039363
     4  O    0.152443
     5  O    0.024552
     6  H    0.010351
     7  O    7.873016
 Mulliken atomic charges:
              1
     1  O   -0.191519
     2  H    0.382452
     3  C    0.210042
     4  O   -0.042759
     5  O   -0.323045
     6  H    0.164460
     7  O   -0.199631
 Sum of Mulliken atomic charges =   0.00000
 Mulliken charges with hydrogens summed into heavy atoms:
              1
     1  O   -0.191519
     3  C    0.374502
     4  O   -0.042759
     5  O   -0.323045
     7  O    0.182821
 Sum of Mulliken charges with hydrogens summed into heavy atoms =   0.00000
          Atomic-Atomic Spin Densities.
              1          2          3          4          5          6
     1  O    1.552134   0.019640   0.001624   0.010983  -0.007874  -0.000281
     2  H    0.019640  -0.116087   0.005321  -0.000101   0.000375   0.000061
     3  C    0.001624   0.005321  -0.024178   0.009062   0.003638   0.000807
     4  O    0.010983  -0.000101   0.009062   0.087948  -0.001225   0.000335
     5  O   -0.007874   0.000375   0.003638  -0.001225   0.040751  -0.000930
     6  H   -0.000281   0.000061   0.000807   0.000335  -0.000930  -0.000024
     7  O   -0.039396   0.032710  -0.005562  -0.042800   0.006008   0.000363
              7
     1  O   -0.039396
     2  H    0.032710
     3  C   -0.005562
     4  O   -0.042800
     5  O    0.006008
     6  H    0.000363
     7  O    0.473942
 Mulliken atomic spin densities:
              1
     1  O    1.536829
     2  H   -0.058081
     3  C   -0.009288
     4  O    0.064201
     5  O    0.040742
     6  H    0.000332
     7  O    0.425265
 Sum of Mulliken atomic spin densities =   2.00000
 APT atomic charges:
              1
     1  O   -0.122658
     2  H    0.351315
     3  C   -0.076570
     4  O   -0.036664
     5  O   -0.392529
     6  H    0.541323
     7  O   -0.264219
 Sum of APT charges=   0.00000
 APT Atomic charges with hydrogens summed into heavy atoms:
              1
     1  O   -0.122658
     2  H    0.000000
     3  C    0.464754
     4  O   -0.036664
     5  O   -0.392529
     6  H    0.000000
     7  O    0.087096
 Sum of APT charges=   0.00000
 Electronic spatial extent (au):  <R**2>=            378.2484
 Charge=              0.0000 electrons
 Dipole moment (field-independent basis, Debye):
    X=              1.8370    Y=              0.6619    Z=             -0.9217  Tot=              2.1592
 Quadrupole moment (field-independent basis, Debye-Ang):
   XX=            -23.9802   YY=            -31.9429   ZZ=            -28.1795
   XY=             -0.0930   XZ=             -2.1097   YZ=              1.0961
 Traceless Quadrupole moment (field-independent basis, Debye-Ang):
   XX=              4.0540   YY=             -3.9087   ZZ=             -0.1453
   XY=             -0.0930   XZ=             -2.1097   YZ=              1.0961
 Octapole moment (field-independent basis, Debye-Ang**2):
  XXX=              6.4458  YYY=              2.1678  ZZZ=              0.4014  XYY=             -2.8299
  XXY=              2.3538  XXZ=             -2.6646  XZZ=              0.7793  YZZ=              0.5548
  YYZ=             -0.5946  XYZ=              1.7179
 Hexadecapole moment (field-independent basis, Debye-Ang**3):
 XXXX=           -218.9097 YYYY=           -154.8249 ZZZZ=            -46.6538 XXXY=             -4.2453
 XXXZ=             -5.2239 YYYX=              5.5915 YYYZ=              1.8216 ZZZX=             -1.2069
 ZZZY=              0.1473 XXYY=            -68.2055 XXZZ=            -45.1296 YYZZ=            -33.4193
 XXYZ=              1.7858 YYXZ=              0.0212 ZZXY=             -0.5957
 N-N= 1.730714715903D+02 E-N=-1.705346527907D+03  KE= 5.053866255058D+02
  Exact polarizability:   0.000   0.000   0.000   0.000   0.000   0.000
 Approx polarizability:  53.504  13.559  51.100  -0.270   1.812  31.927
                          Isotropic Fermi Contact Couplings
        Atom                 a.u.       MegaHertz       Gauss      10(-4) cm-1
     1  O(17)              0.14643     -44.38357     -15.83716     -14.80477
     2  H(1)              -0.04422     -98.82590     -35.26354     -32.96477
     3  C(13)             -0.00575      -3.23271      -1.15351      -1.07832
     4  O(17)              0.01579      -4.78452      -1.70723      -1.59594
     5  O(17)              0.02321      -7.03385      -2.50985      -2.34624
     6  H(1)               0.00023       0.52472       0.18723       0.17503
     7  O(17)              0.01654      -5.01275      -1.78867      -1.67207
 --------------------------------------------------------
       Center         ----  Spin Dipole Couplings  ----
                      3XX-RR        3YY-RR        3ZZ-RR
 --------------------------------------------------------
     1   Atom        1.100363      1.545848     -2.646211
     2   Atom       -0.017485      0.117433     -0.099947
     3   Atom        0.014590      0.004492     -0.019082
     4   Atom        0.025345      0.007867     -0.033213
     5   Atom        0.116746     -0.106933     -0.009814
     6   Atom        0.008546     -0.003060     -0.005486
     7   Atom       -0.224284      0.204874      0.019410
 --------------------------------------------------------
                        XY            XZ            YZ
 --------------------------------------------------------
     1   Atom       -0.927265      1.365490     -0.627080
     2   Atom        0.214240      0.123680      0.147383
     3   Atom       -0.007419     -0.012593     -0.009158
     4   Atom        0.209113      0.259426      0.198446
     5   Atom       -0.020085      0.120702     -0.004009
     6   Atom       -0.002124     -0.003453      0.001074
     7   Atom        0.979014      0.917365      1.122862
 --------------------------------------------------------


 ---------------------------------------------------------------------------------
              Anisotropic Spin Dipole Couplings in Principal Axis System
 ---------------------------------------------------------------------------------

       Atom             a.u.   MegaHertz   Gauss  10(-4) cm-1        Axes

              Baa    -3.1127   225.234    80.369    75.130 -0.2936  0.0699  0.9534
     1 O(17)  Bbb     0.4829   -34.942   -12.468   -11.656  0.6941  0.7013  0.1624
              Bcc     2.6298  -190.291   -67.901   -63.474 -0.6573  0.7094 -0.2544
 
              Baa    -0.1898  -101.245   -36.127   -33.772 -0.6702  0.1156  0.7331
     2 H(1)   Bbb    -0.1658   -88.465   -31.566   -29.509 -0.4957  0.6654 -0.5581
              Bcc     0.3556   189.709    67.693    63.280  0.5524  0.7375  0.3886
 
              Baa    -0.0272    -3.645    -1.301    -1.216  0.3260  0.3324  0.8850
     3 C(13)  Bbb     0.0070     0.945     0.337     0.315  0.1967  0.8918 -0.4074
              Bcc     0.0201     2.700     0.963     0.901  0.9247 -0.3069 -0.2254
 
              Baa    -0.2657    19.223     6.859     6.412 -0.6329 -0.0752  0.7706
     4 O(17)  Bbb    -0.1808    13.085     4.669     4.365 -0.4654  0.8323 -0.3011
              Bcc     0.4465   -32.308   -11.528   -10.777  0.6187  0.5491  0.5618
 
              Baa    -0.1100     7.956     2.839     2.654  0.1815  0.9667 -0.1801
     5 O(17)  Bbb    -0.0810     5.864     2.092     1.956 -0.4863  0.2475  0.8380
              Bcc     0.1910   -13.820    -4.931    -4.610  0.8547 -0.0646  0.5150
 
              Baa    -0.0064    -3.413    -1.218    -1.138  0.1962 -0.1851  0.9629
     6 H(1)   Bbb    -0.0034    -1.799    -0.642    -0.600  0.2135  0.9665  0.1422
              Bcc     0.0098     5.211     1.859     1.738  0.9570 -0.1777 -0.2292
 
              Baa    -1.0282    74.400    26.548    24.817 -0.6933 -0.0995  0.7138
     7 O(17)  Bbb    -1.0072    72.878    26.005    24.310 -0.5087  0.7692 -0.3868
              Bcc     2.0354  -147.278   -52.553   -49.127  0.5105  0.6312  0.5839
 

 ---------------------------------------------------------------------------------

 Calling FoFJK, ICntrl=    100147 FMM=F ISym2X=0 I1Cent= 0 IOpClX= 1 NMat=1 NMatS=1 NMatT=0.
 ***** Axes restored to original set *****
 -------------------------------------------------------------------
 Center     Atomic                   Forces (Hartrees/Bohr)
 Number     Number              X              Y              Z
 -------------------------------------------------------------------
      1        8           0.000381574    0.000028785    0.000138715
      2        1          -0.000529329    0.000263135   -0.000122805
      3        6           0.000065263   -0.000043779    0.000159264
      4        8          -0.000282430   -0.000093674   -0.000027553
      5        8          -0.000119800    0.000181886   -0.000041653
      6        1          -0.000046359   -0.000034406   -0.000027805
      7        8           0.000531082   -0.000301946   -0.000078164
 -------------------------------------------------------------------
 Cartesian Forces:  Max     0.000531082 RMS     0.000227159

 GradGradGradGradGradGradGradGradGradGradGradGradGradGradGradGradGradGrad
 Berny optimization.
 Internal  Forces:  Max     0.000338448 RMS     0.000170070
 Search for a saddle point.
 Step number   1 out of a maximum of   27
 All quantities printed in internal units (Hartrees-Bohrs-Radians)
 Swaping is turned off.
 Second derivative matrix not updated -- analytic derivatives used.
 The second derivative matrix:
                          R1        R2        R3        R4        R5
           R1           0.06675
           R2           0.16720   0.09553
           R3           0.02222  -0.02723   0.34819
           R4          -0.01371   0.01519   0.11314   0.96982
           R5          -0.00008   0.00037   0.01125   0.02243   0.34752
           R6          -0.03416   0.05917   0.05215  -0.01591  -0.00400
           A1           0.00798   0.00892  -0.00602   0.00247  -0.00042
           A2           0.00322   0.00076   0.04372   0.03452  -0.01350
           A3          -0.00275   0.00014   0.00365  -0.04449   0.01230
           A4          -0.00041  -0.00091  -0.04737   0.01007   0.00119
           A5           0.00738  -0.00533   0.06924  -0.00409   0.00225
           A6           0.02914  -0.00108  -0.00487   0.00679  -0.00192
           D1          -0.00307  -0.00008   0.00009  -0.00073   0.00014
           D2          -0.00442   0.00253   0.00414  -0.00468  -0.00097
           D3          -0.00274   0.00227   0.00287  -0.00165  -0.00127
           D4           0.00200  -0.00028   0.00009   0.00273  -0.00023
           D5          -0.01792   0.00692   0.01426  -0.01452   0.00039
                          R6        A1        A2        A3        A4
           R6           0.36203
           A1           0.00504   0.03092
           A2          -0.02609  -0.00137   0.19682
           A3           0.01748   0.00050  -0.10073   0.12237
           A4           0.00861   0.00085  -0.09596  -0.02170   0.11763
           A5           0.08227  -0.00290   0.01554   0.00969  -0.02516
           A6           0.05914   0.01441   0.00773  -0.00351  -0.00419
           D1          -0.00381  -0.00030  -0.00331   0.00164   0.00164
           D2          -0.00666   0.00143   0.00191  -0.00158  -0.00076
           D3          -0.00633   0.00085   0.00243  -0.00326   0.00121
           D4           0.00034  -0.00073   0.00246   0.00033  -0.00181
           D5          -0.02964   0.01333  -0.00628   0.00137   0.00484
                          A5        A6        D1        D2        D3
           A5           0.43053
           A6           0.04364   0.20582
           D1          -0.00775  -0.00771   0.00472
           D2          -0.00417  -0.00845   0.00239   0.01944
           D3          -0.00274  -0.00769   0.00168   0.00723   0.01799
           D4           0.00269   0.00101  -0.00089  -0.01476   0.01292
           D5          -0.03703  -0.03590   0.01034   0.00540   0.00340
                          D4        D5
           D4           0.03351
           D5          -0.00256   0.03761
 ITU=  0
     Eigenvalues ---   -0.10805   0.00072   0.01530   0.02427   0.04293
     Eigenvalues ---    0.04875   0.13053   0.18342   0.23365   0.26991
     Eigenvalues ---    0.30893   0.35090   0.36461   0.54526   0.99608
 Eigenvectors required to have negative eigenvalues:
                          R1        R2        R6        D5        R3
   1                   -0.70625   0.65325  -0.17122  -0.14424   0.11092
                          A6        D2        R4        A4        D3
   1                    0.08248  -0.03641  -0.03498   0.02948  -0.02850
 RFO step:  Lambda0=2.057063535D-07 Lambda=-5.63807640D-05.
 Linear search not attempted -- option 19 set.
 Iteration  1 RMS(Cart)=  0.03570376 RMS(Int)=  0.00983458
 Iteration  2 RMS(Cart)=  0.00331851 RMS(Int)=  0.00010804
 Iteration  3 RMS(Cart)=  0.00016626 RMS(Int)=  0.00000035
 Iteration  4 RMS(Cart)=  0.00000003 RMS(Int)=  0.00000035
 Variable       Old X    -DE/DX   Delta X   Delta X   Delta X     New X
                                 (Linear)    (Quad)   (Total)
    R1        2.26638  -0.00027   0.00000   0.00956   0.00956   2.27594
    R2        2.15128  -0.00010   0.00000  -0.01275  -0.01275   2.13853
    R3        2.58034  -0.00019   0.00000   0.00436   0.00436   2.58469
    R4        2.23527  -0.00014   0.00000  -0.00181  -0.00181   2.23346
    R5        2.06798  -0.00002   0.00000  -0.00003  -0.00003   2.06795
    R6        2.57578  -0.00034   0.00000  -0.00196  -0.00196   2.57382
    A1        2.78860   0.00001   0.00000   0.05200   0.05200   2.84060
    A2        2.17641  -0.00020   0.00000   0.00018   0.00018   2.17659
    A3        1.87513   0.00005   0.00000  -0.00214  -0.00214   1.87299
    A4        2.23103   0.00014   0.00000   0.00192   0.00192   2.23295
    A5        1.96557  -0.00028   0.00000  -0.00344  -0.00344   1.96212
    A6        1.89560  -0.00018   0.00000  -0.01246  -0.01246   1.88314
    D1       -0.95000   0.00024   0.00000   0.24199   0.24199  -0.70801
    D2        0.13458   0.00006   0.00000  -0.00685  -0.00685   0.12772
    D3       -3.04229   0.00001   0.00000  -0.00786  -0.00786  -3.05014
    D4        3.09898  -0.00006   0.00000  -0.00131  -0.00131   3.09768
    D5       -0.89641   0.00004   0.00000  -0.09463  -0.09463  -0.99105
         Item               Value     Threshold  Converged?
 Maximum Force            0.000338     0.000450     YES
 RMS     Force            0.000170     0.000300     YES
 Maximum Displacement     0.066214     0.001800     NO 
 RMS     Displacement     0.037897     0.001200     NO 
 Predicted change in Energy=-3.008374D-05
 GradGradGradGradGradGradGradGradGradGradGradGradGradGradGradGradGradGrad

                          Input orientation:                          
 ---------------------------------------------------------------------
 Center     Atomic      Atomic             Coordinates (Angstroms)
 Number     Number       Type             X           Y           Z
 ---------------------------------------------------------------------
      1          8           0       -1.849500   -0.648468   -0.333718
      2          1           0       -1.208909    0.181522    0.258967
      3          6           0        1.207660   -0.253483   -0.206688
      4          8           0        0.567534    0.949765   -0.321590
      5          8           0        0.808235   -1.170914    0.422322
      6          1           0        2.109179   -0.203124   -0.824947
      7          8           0       -0.515201    1.042677    0.499460
 ---------------------------------------------------------------------
                    Distance matrix (angstroms):
                    1          2          3          4          5
     1  O    0.000000
     2  H    1.204373   0.000000
     3  C    3.085187   2.499174   0.000000
     4  O    2.897680   2.020642   1.367761   0.000000
     5  O    2.812135   2.434058   1.181894   2.260226   0.000000
     6  H    4.013823   3.511770   1.094311   1.989772   2.045667
     7  O    2.309656   1.131660   2.268683   1.362009   2.580197
                    6          7
     6  H    0.000000
     7  O    3.192717   0.000000
 Stoichiometry    CH2O4(3)
 Framework group  C1[X(CH2O4)]
 Deg. of freedom    15
 Full point group                 C1      NOp   1
 Largest Abelian subgroup         C1      NOp   1
 Largest concise Abelian subgroup C1      NOp   1
                         Standard orientation:                         
 ---------------------------------------------------------------------
 Center     Atomic      Atomic             Coordinates (Angstroms)
 Number     Number       Type             X           Y           Z
 ---------------------------------------------------------------------
      1          8           0       -1.845774   -0.683713   -0.316737
      2          1           0       -1.215025    0.160461    0.266394
      3          6           0        1.203850   -0.224719   -0.230144
      4          8           0        0.537255    0.964698   -0.338348
      5          8           0        0.831921   -1.149255    0.405290
      6          1           0        2.095996   -0.156556   -0.860179
      7          8           0       -0.536410    1.036321    0.496626
 ---------------------------------------------------------------------
 Rotational constants (GHZ):      6.9495912      4.6135853      3.1694356
 Standard basis: 6-311+G(2df,2p) (5D, 7F)
 There are   188 symmetry adapted basis functions of A   symmetry.
 Integral buffers will be    131072 words long.
 Raffenetti 2 integral format.
 Two-electron integral symmetry is turned on.
   188 basis functions,   282 primitive gaussians,   213 cartesian basis functions
    21 alpha electrons       19 beta electrons
       nuclear repulsion energy       172.8519935383 Hartrees.
 NAtoms=    7 NActive=    7 NUniq=    7 SFac= 1.00D+00 NAtFMM=   50 NAOKFM=F Big=F
 One-electron integrals computed using PRISM.
 NBasis=   188 RedAO= T  NBF=   188
 NBsUse=   188 1.00D-06 NBFU=   188
 Initial guess read from the read-write file.
 B after Tr=     0.000000    0.000000    0.000000
         Rot=    1.000000    0.000000    0.000000    0.000000 Ang=   0.00 deg.
 Initial guess orbital symmetries:
 Alpha Orbitals:
       Occupied  (A) (A) (A) (A) (A) (A) (A) (A) (A) (A) (A) (A)
                 (A) (A) (A) (A) (A) (A) (A) (A) (A)
       Virtual   (A) (A) (A) (A) (A) (A) (A) (A) (A) (A) (A) (A)
                 (A) (A) (A) (A) (A) (A) (A) (A) (A) (A) (A) (A)
                 (A) (A) (A) (A) (A) (A) (A) (A) (A) (A) (A) (A)
                 (A) (A) (A) (A) (A) (A) (A) (A) (A) (A) (A) (A)
                 (A) (A) (A) (A) (A) (A) (A) (A) (A) (A) (A) (A)
                 (A) (A) (A) (A) (A) (A) (A) (A) (A) (A) (A) (A)
                 (A) (A) (A) (A) (A) (A) (A) (A) (A) (A) (A) (A)
                 (A) (A) (A) (A) (A) (A) (A) (A) (A) (A) (A) (A)
                 (A) (A) (A) (A) (A) (A) (A) (A) (A) (A) (A) (A)
                 (A) (A) (A) (A) (A) (A) (A) (A) (A) (A) (A) (A)
                 (A) (A) (A) (A) (A) (A) (A) (A) (A) (A) (A) (A)
                 (A) (A) (A) (A) (A) (A) (A) (A) (A) (A) (A) (A)
                 (A) (A) (A) (A) (A) (A) (A) (A) (A) (A) (A) (A)
                 (A) (A) (A) (A) (A) (A) (A) (A) (A) (A) (A)
 Beta  Orbitals:
       Occupied  (A) (A) (A) (A) (A) (A) (A) (A) (A) (A) (A) (A)
                 (A) (A) (A) (A) (A) (A) (A)
       Virtual   (A) (A) (A) (A) (A) (A) (A) (A) (A) (A) (A) (A)
                 (A) (A) (A) (A) (A) (A) (A) (A) (A) (A) (A) (A)
                 (A) (A) (A) (A) (A) (A) (A) (A) (A) (A) (A) (A)
                 (A) (A) (A) (A) (A) (A) (A) (A) (A) (A) (A) (A)
                 (A) (A) (A) (A) (A) (A) (A) (A) (A) (A) (A) (A)
                 (A) (A) (A) (A) (A) (A) (A) (A) (A) (A) (A) (A)
                 (A) (A) (A) (A) (A) (A) (A) (A) (A) (A) (A) (A)
                 (A) (A) (A) (A) (A) (A) (A) (A) (A) (A) (A) (A)
                 (A) (A) (A) (A) (A) (A) (A) (A) (A) (A) (A) (A)
                 (A) (A) (A) (A) (A) (A) (A) (A) (A) (A) (A) (A)
                 (A) (A) (A) (A) (A) (A) (A) (A) (A) (A) (A) (A)
                 (A) (A) (A) (A) (A) (A) (A) (A) (A) (A) (A) (A)
                 (A) (A) (A) (A) (A) (A) (A) (A) (A) (A) (A) (A)
                 (A) (A) (A) (A) (A) (A) (A) (A) (A) (A) (A) (A)
                 (A)
 Initial guess <Sx>= 0.0000 <Sy>= 0.0000 <Sz>= 1.0000 <S**2>= 2.0185 S= 1.0062
 Harris functional with IExCor= 1009 diagonalized for initial guess.
 ExpMin= 4.38D-02 ExpMax= 8.59D+03 ExpMxC= 1.30D+03 IAcc=2 IRadAn=         0 AccDes= 0.00D+00
 HarFok:  IExCor= 1009 AccDes= 0.00D+00 IRadAn=         0 IDoV= 1
 ScaDFX=  1.000000  1.000000  1.000000  1.000000
 FoFCou: FMM=F IPFlag=           0 FMFlag=      100000 FMFlg1=           0
         NFxFlg=           0 DoJE=T BraDBF=F KetDBF=T FulRan=T
         Omega=  0.000000  0.000000  1.000000  0.000000  0.000000 ICntrl=     500 IOpCl=  0
         NMat0=    1 NMatS0=    1 NMatT0=    0 NMatD0=    1 NMtDS0=    0 NMtDT0=    0
         I1Cent=           4 NGrid=           0.
 Petite list used in FoFCou.
 Requested convergence on RMS density matrix=1.00D-08 within 128 cycles.
 Requested convergence on MAX density matrix=1.00D-06.
 Requested convergence on             energy=1.00D-06.
 No special actions if energy rises.
 Keep R1 and R2 ints in memory in canonical form, NReq=524572936.
 SCF Done:  E(UM062X) =  -339.927016793     A.U. after   25 cycles
             Convg  =    0.1757D-08             -V/T =  2.0026
 <Sx>= 0.0000 <Sy>= 0.0000 <Sz>= 1.0000 <S**2>= 2.0184 S= 1.0061
 <L.S>= 0.000000000000E+00
 Annihilation of the first spin contaminant:
 S**2 before annihilation     2.0184,   after     2.0001
 Calling FoFJK, ICntrl=      2127 FMM=F ISym2X=0 I1Cent= 0 IOpClX= 1 NMat=1 NMatS=1 NMatT=0.
 ***** Axes restored to original set *****
 -------------------------------------------------------------------
 Center     Atomic                   Forces (Hartrees/Bohr)
 Number     Number              X              Y              Z
 -------------------------------------------------------------------
      1        8          -0.000010033    0.000058793    0.000065907
      2        1          -0.000134403   -0.000152397    0.000320153
      3        6          -0.000159458    0.000300616   -0.000110920
      4        8           0.000468199    0.000115528   -0.000208384
      5        8          -0.000172043   -0.000262947    0.000072466
      6        1           0.000158633   -0.000065189    0.000127936
      7        8          -0.000150894    0.000005595   -0.000267158
 -------------------------------------------------------------------
 Cartesian Forces:  Max     0.000468199 RMS     0.000195145

 GradGradGradGradGradGradGradGradGradGradGradGradGradGradGradGradGradGrad
 Berny optimization.
 Internal  Forces:  Max     0.000747887 RMS     0.000281720
 Search for a saddle point.
 Step number   2 out of a maximum of   27
 All quantities printed in internal units (Hartrees-Bohrs-Radians)
 Swaping is turned off.
 Update second derivatives using D2CorX and points    1    2
 The second derivative matrix:
                          R1        R2        R3        R4        R5
           R1           0.06676
           R2           0.16718   0.09558
           R3           0.02224  -0.02727   0.34822
           R4          -0.01375   0.01526   0.11310   0.96989
           R5          -0.00009   0.00039   0.01124   0.02245   0.34753
           R6          -0.03422   0.05926   0.05209  -0.01582  -0.00398
           A1           0.00800   0.00887  -0.00595   0.00230  -0.00046
           A2           0.00322   0.00076   0.04372   0.03452  -0.01350
           A3          -0.00277   0.00016   0.00364  -0.04446   0.01230
           A4          -0.00040  -0.00092  -0.04736   0.01005   0.00119
           A5           0.00741  -0.00539   0.06927  -0.00412   0.00224
           A6           0.02901  -0.00087  -0.00500   0.00701  -0.00187
           D1          -0.00293  -0.00042   0.00046  -0.00160  -0.00009
           D2          -0.00447   0.00262   0.00408  -0.00458  -0.00095
           D3          -0.00280   0.00237   0.00282  -0.00155  -0.00125
           D4           0.00200  -0.00027   0.00008   0.00273  -0.00023
           D5          -0.01807   0.00719   0.01404  -0.01404   0.00051
                          R6        A1        A2        A3        A4
           R6           0.36214
           A1           0.00483   0.03081
           A2          -0.02609  -0.00138   0.19682
           A3           0.01751   0.00046  -0.10073   0.12237
           A4           0.00858   0.00089  -0.09596  -0.02171   0.11763
           A5           0.08222  -0.00276   0.01554   0.00968  -0.02515
           A6           0.05941   0.01394   0.00773  -0.00345  -0.00425
           D1          -0.00489  -0.00063  -0.00331   0.00145   0.00183
           D2          -0.00654   0.00124   0.00191  -0.00155  -0.00079
           D3          -0.00621   0.00065   0.00243  -0.00323   0.00118
           D4           0.00035  -0.00073   0.00246   0.00033  -0.00181
           D5          -0.02906   0.01310  -0.00628   0.00148   0.00473
                          A5        A6        D1        D2        D3
           A5           0.43054
           A6           0.04351   0.20651
           D1          -0.00703  -0.01010   0.00410
           D2          -0.00423  -0.00815   0.00139   0.01958
           D3          -0.00280  -0.00737   0.00068   0.00737   0.01814
           D4           0.00269   0.00103  -0.00091  -0.01475   0.01293
           D5          -0.03738  -0.03455   0.00879   0.00598   0.00399
                          D4        D5
           D4           0.03351
           D5          -0.00254   0.03915
 ITU=  0  0
     Eigenvalues ---   -0.10805   0.00148   0.01547   0.02451   0.04305
     Eigenvalues ---    0.04900   0.13054   0.18359   0.23368   0.27000
     Eigenvalues ---    0.30896   0.35091   0.36474   0.54526   0.99613
 Eigenvectors required to have negative eigenvalues:
                          R1        R2        R6        D5        R3
   1                   -0.70626   0.65327  -0.17123  -0.14412   0.11092
                          A6        D2        R4        A4        D3
   1                    0.08247  -0.03642  -0.03498   0.02949  -0.02851
 RFO step:  Lambda0=1.555148260D-09 Lambda=-4.66029840D-05.
 Linear search not attempted -- option 19 set.
 Iteration  1 RMS(Cart)=  0.02536662 RMS(Int)=  0.00178278
 Iteration  2 RMS(Cart)=  0.00154679 RMS(Int)=  0.00000284
 Iteration  3 RMS(Cart)=  0.00000358 RMS(Int)=  0.00000018
 Iteration  4 RMS(Cart)=  0.00000000 RMS(Int)=  0.00000018
 Variable       Old X    -DE/DX   Delta X   Delta X   Delta X     New X
                                 (Linear)    (Quad)   (Total)
    R1        2.27594  -0.00005   0.00000  -0.00554  -0.00554   2.27040
    R2        2.13853   0.00011   0.00000   0.00681   0.00681   2.14534
    R3        2.58469  -0.00012   0.00000  -0.00324  -0.00324   2.58145
    R4        2.23346   0.00027   0.00000   0.00126   0.00126   2.23472
    R5        2.06795   0.00007   0.00000   0.00014   0.00014   2.06809
    R6        2.57382   0.00034   0.00000   0.00139   0.00139   2.57521
    A1        2.84060   0.00006   0.00000  -0.02992  -0.02992   2.81068
    A2        2.17659   0.00000   0.00000  -0.00009  -0.00009   2.17650
    A3        1.87299   0.00006   0.00000   0.00155   0.00155   1.87454
    A4        2.23295  -0.00006   0.00000  -0.00143  -0.00143   2.23152
    A5        1.96212  -0.00022   0.00000   0.00180   0.00180   1.96393
    A6        1.88314   0.00075   0.00000   0.01043   0.01043   1.89356
    D1       -0.70801  -0.00002   0.00000  -0.10126  -0.10126  -0.80927
    D2        0.12772   0.00031   0.00000   0.00939   0.00939   0.13711
    D3       -3.05014   0.00032   0.00000   0.01008   0.01009  -3.04006
    D4        3.09768   0.00001   0.00000   0.00091   0.00091   3.09859
    D5       -0.99105   0.00056   0.00000   0.05443   0.05443  -0.93662
         Item               Value     Threshold  Converged?
 Maximum Force            0.000748     0.000450     NO 
 RMS     Force            0.000282     0.000300     YES
 Maximum Displacement     0.048614     0.001800     NO 
 RMS     Displacement     0.025167     0.001200     NO 
 Predicted change in Energy=-2.363872D-05
 GradGradGradGradGradGradGradGradGradGradGradGradGradGradGradGradGradGrad

                          Input orientation:                          
 ---------------------------------------------------------------------
 Center     Atomic      Atomic             Coordinates (Angstroms)
 Number     Number       Type             X           Y           Z
 ---------------------------------------------------------------------
      1          8           0       -1.841169   -0.655403   -0.319278
      2          1           0       -1.200219    0.169924    0.273581
      3          6           0        1.202877   -0.251397   -0.210443
      4          8           0        0.575103    0.956555   -0.323728
      5          8           0        0.782510   -1.174198    0.397983
      6          1           0        2.119070   -0.201351   -0.806905
      7          8           0       -0.519174    1.053845    0.482596
 ---------------------------------------------------------------------
                    Distance matrix (angstroms):
                    1          2          3          4          5
     1  O    0.000000
     2  H    1.201442   0.000000
     3  C    3.072668   2.487300   0.000000
     4  O    2.904617   2.031584   1.366046   0.000000
     5  O    2.768990   2.398615   1.182562   2.259202   0.000000
     6  H    4.015898   3.510409   1.094386   1.989482   2.045625
     7  O    2.304822   1.135265   2.269234   1.362742   2.581805
                    6          7
     6  H    0.000000
     7  O    3.193534   0.000000
 Stoichiometry    CH2O4(3)
 Framework group  C1[X(CH2O4)]
 Deg. of freedom    15
 Full point group                 C1      NOp   1
 Largest Abelian subgroup         C1      NOp   1
 Largest concise Abelian subgroup C1      NOp   1
                         Standard orientation:                         
 ---------------------------------------------------------------------
 Center     Atomic      Atomic             Coordinates (Angstroms)
 Number     Number       Type             X           Y           Z
 ---------------------------------------------------------------------
      1          8           0       -1.841212   -0.664407   -0.314717
      2          1           0       -1.203200    0.165881    0.274372
      3          6           0        1.200771   -0.242576   -0.216291
      4          8           0        0.565664    0.961481   -0.330175
      5          8           0        0.787655   -1.166485    0.395412
      6          1           0        2.114790   -0.188512   -0.815730
      7          8           0       -0.526634    1.054172    0.479369
 ---------------------------------------------------------------------
 Rotational constants (GHZ):      6.9319394      4.6891285      3.1752052
 Standard basis: 6-311+G(2df,2p) (5D, 7F)
 There are   188 symmetry adapted basis functions of A   symmetry.
 Integral buffers will be    131072 words long.
 Raffenetti 2 integral format.
 Two-electron integral symmetry is turned on.
   188 basis functions,   282 primitive gaussians,   213 cartesian basis functions
    21 alpha electrons       19 beta electrons
       nuclear repulsion energy       173.0862367770 Hartrees.
 NAtoms=    7 NActive=    7 NUniq=    7 SFac= 1.00D+00 NAtFMM=   50 NAOKFM=F Big=F
 One-electron integrals computed using PRISM.
 NBasis=   188 RedAO= T  NBF=   188
 NBsUse=   188 1.00D-06 NBFU=   188
 Initial guess read from the read-write file.
 B after Tr=     0.000000    0.000000    0.000000
         Rot=    1.000000    0.000000    0.000000    0.000000 Ang=   0.00 deg.
 Initial guess orbital symmetries:
 Alpha Orbitals:
       Occupied  (A) (A) (A) (A) (A) (A) (A) (A) (A) (A) (A) (A)
                 (A) (A) (A) (A) (A) (A) (A) (A) (A)
       Virtual   (A) (A) (A) (A) (A) (A) (A) (A) (A) (A) (A) (A)
                 (A) (A) (A) (A) (A) (A) (A) (A) (A) (A) (A) (A)
                 (A) (A) (A) (A) (A) (A) (A) (A) (A) (A) (A) (A)
                 (A) (A) (A) (A) (A) (A) (A) (A) (A) (A) (A) (A)
                 (A) (A) (A) (A) (A) (A) (A) (A) (A) (A) (A) (A)
                 (A) (A) (A) (A) (A) (A) (A) (A) (A) (A) (A) (A)
                 (A) (A) (A) (A) (A) (A) (A) (A) (A) (A) (A) (A)
                 (A) (A) (A) (A) (A) (A) (A) (A) (A) (A) (A) (A)
                 (A) (A) (A) (A) (A) (A) (A) (A) (A) (A) (A) (A)
                 (A) (A) (A) (A) (A) (A) (A) (A) (A) (A) (A) (A)
                 (A) (A) (A) (A) (A) (A) (A) (A) (A) (A) (A) (A)
                 (A) (A) (A) (A) (A) (A) (A) (A) (A) (A) (A) (A)
                 (A) (A) (A) (A) (A) (A) (A) (A) (A) (A) (A) (A)
                 (A) (A) (A) (A) (A) (A) (A) (A) (A) (A) (A)
 Beta  Orbitals:
       Occupied  (A) (A) (A) (A) (A) (A) (A) (A) (A) (A) (A) (A)
                 (A) (A) (A) (A) (A) (A) (A)
       Virtual   (A) (A) (A) (A) (A) (A) (A) (A) (A) (A) (A) (A)
                 (A) (A) (A) (A) (A) (A) (A) (A) (A) (A) (A) (A)
                 (A) (A) (A) (A) (A) (A) (A) (A) (A) (A) (A) (A)
                 (A) (A) (A) (A) (A) (A) (A) (A) (A) (A) (A) (A)
                 (A) (A) (A) (A) (A) (A) (A) (A) (A) (A) (A) (A)
                 (A) (A) (A) (A) (A) (A) (A) (A) (A) (A) (A) (A)
                 (A) (A) (A) (A) (A) (A) (A) (A) (A) (A) (A) (A)
                 (A) (A) (A) (A) (A) (A) (A) (A) (A) (A) (A) (A)
                 (A) (A) (A) (A) (A) (A) (A) (A) (A) (A) (A) (A)
                 (A) (A) (A) (A) (A) (A) (A) (A) (A) (A) (A) (A)
                 (A) (A) (A) (A) (A) (A) (A) (A) (A) (A) (A) (A)
                 (A) (A) (A) (A) (A) (A) (A) (A) (A) (A) (A) (A)
                 (A) (A) (A) (A) (A) (A) (A) (A) (A) (A) (A) (A)
                 (A) (A) (A) (A) (A) (A) (A) (A) (A) (A) (A) (A)
                 (A)
 Initial guess <Sx>= 0.0000 <Sy>= 0.0000 <Sz>= 1.0000 <S**2>= 2.0184 S= 1.0061
 Harris functional with IExCor= 1009 diagonalized for initial guess.
 ExpMin= 4.38D-02 ExpMax= 8.59D+03 ExpMxC= 1.30D+03 IAcc=2 IRadAn=         0 AccDes= 0.00D+00
 HarFok:  IExCor= 1009 AccDes= 0.00D+00 IRadAn=         0 IDoV= 1
 ScaDFX=  1.000000  1.000000  1.000000  1.000000
 FoFCou: FMM=F IPFlag=           0 FMFlag=      100000 FMFlg1=           0
         NFxFlg=           0 DoJE=T BraDBF=F KetDBF=T FulRan=T
         Omega=  0.000000  0.000000  1.000000  0.000000  0.000000 ICntrl=     500 IOpCl=  0
         NMat0=    1 NMatS0=    1 NMatT0=    0 NMatD0=    1 NMtDS0=    0 NMtDT0=    0
         I1Cent=           4 NGrid=           0.
 Petite list used in FoFCou.
 Requested convergence on RMS density matrix=1.00D-08 within 128 cycles.
 Requested convergence on MAX density matrix=1.00D-06.
 Requested convergence on             energy=1.00D-06.
 No special actions if energy rises.
 Keep R1 and R2 ints in memory in canonical form, NReq=524572936.
 SCF Done:  E(UM062X) =  -339.927055726     A.U. after   23 cycles
             Convg  =    0.3645D-08             -V/T =  2.0026
 <Sx>= 0.0000 <Sy>= 0.0000 <Sz>= 1.0000 <S**2>= 2.0184 S= 1.0061
 <L.S>= 0.000000000000E+00
 Annihilation of the first spin contaminant:
 S**2 before annihilation     2.0184,   after     2.0001
 Calling FoFJK, ICntrl=      2127 FMM=F ISym2X=0 I1Cent= 0 IOpClX= 1 NMat=1 NMatS=1 NMatT=0.
 ***** Axes restored to original set *****
 -------------------------------------------------------------------
 Center     Atomic                   Forces (Hartrees/Bohr)
 Number     Number              X              Y              Z
 -------------------------------------------------------------------
      1        8          -0.000060804    0.000046356    0.000050879
      2        1           0.000136903   -0.000038473   -0.000057065
      3        6           0.000030956   -0.000057959    0.000030871
      4        8          -0.000010110   -0.000072154    0.000019832
      5        8          -0.000016950    0.000075966    0.000036701
      6        1          -0.000037302   -0.000076534    0.000006722
      7        8          -0.000042694    0.000122798   -0.000087940
 -------------------------------------------------------------------
 Cartesian Forces:  Max     0.000136903 RMS     0.000062572

 GradGradGradGradGradGradGradGradGradGradGradGradGradGradGradGradGradGrad
 Berny optimization.
 Internal  Forces:  Max     0.000069591 RMS     0.000034180
 Search for a saddle point.
 Step number   3 out of a maximum of   27
 All quantities printed in internal units (Hartrees-Bohrs-Radians)
 Swaping is turned off.
 Update second derivatives using D2CorX and points    1    2    3
 The second derivative matrix:
                          R1        R2        R3        R4        R5
           R1           0.06676
           R2           0.16717   0.09558
           R3           0.02223  -0.02726   0.34820
           R4          -0.01379   0.01529   0.11308   0.96990
           R5          -0.00011   0.00041   0.01123   0.02245   0.34753
           R6          -0.03425   0.05929   0.05208  -0.01581  -0.00398
           A1           0.00802   0.00882  -0.00598   0.00213  -0.00053
           A2           0.00321   0.00078   0.04371   0.03452  -0.01350
           A3          -0.00276   0.00015   0.00364  -0.04445   0.01231
           A4          -0.00039  -0.00094  -0.04736   0.01004   0.00118
           A5           0.00742  -0.00540   0.06928  -0.00412   0.00224
           A6           0.02897  -0.00083  -0.00500   0.00708  -0.00184
           D1          -0.00295  -0.00045   0.00033  -0.00198  -0.00024
           D2          -0.00448   0.00264   0.00410  -0.00450  -0.00092
           D3          -0.00281   0.00239   0.00283  -0.00147  -0.00121
           D4           0.00199  -0.00026   0.00008   0.00274  -0.00023
           D5          -0.01806   0.00722   0.01414  -0.01375   0.00063
                          R6        A1        A2        A3        A4
           R6           0.36215
           A1           0.00470   0.03106
           A2          -0.02609  -0.00145   0.19682
           A3           0.01752   0.00048  -0.10073   0.12237
           A4           0.00858   0.00095  -0.09596  -0.02171   0.11764
           A5           0.08223  -0.00271   0.01555   0.00967  -0.02515
           A6           0.05947   0.01370   0.00776  -0.00344  -0.00428
           D1          -0.00519  -0.00041  -0.00349   0.00151   0.00195
           D2          -0.00647   0.00114   0.00195  -0.00156  -0.00081
           D3          -0.00614   0.00052   0.00247  -0.00324   0.00115
           D4           0.00035  -0.00078   0.00246   0.00033  -0.00182
           D5          -0.02882   0.01293  -0.00614   0.00144   0.00464
                          A5        A6        D1        D2        D3
           A5           0.43054
           A6           0.04350   0.20667
           D1          -0.00690  -0.01051   0.00373
           D2          -0.00425  -0.00804   0.00133   0.01961
           D3          -0.00282  -0.00725   0.00053   0.00742   0.01821
           D4           0.00269   0.00105  -0.00102  -0.01473   0.01296
           D5          -0.03748  -0.03423   0.00906   0.00602   0.00410
                          D4        D5
           D4           0.03351
           D5          -0.00245   0.03895
 ITU=  0  0  0
     Eigenvalues ---   -0.10805   0.00107   0.01565   0.02474   0.04304
     Eigenvalues ---    0.04891   0.13054   0.18362   0.23369   0.27000
     Eigenvalues ---    0.30897   0.35091   0.36475   0.54526   0.99613
 Eigenvectors required to have negative eigenvalues:
                          R1        R2        R6        D5        R3
   1                   -0.70626   0.65326  -0.17122  -0.14417   0.11092
                          A6        D2        R4        A4        D3
   1                    0.08247  -0.03643  -0.03498   0.02948  -0.02851
 RFO step:  Lambda0=1.312521619D-11 Lambda=-2.01795414D-06.
 Linear search not attempted -- option 19 set.
 Iteration  1 RMS(Cart)=  0.00378385 RMS(Int)=  0.00010410
 Iteration  2 RMS(Cart)=  0.00010873 RMS(Int)=  0.00000004
 Iteration  3 RMS(Cart)=  0.00000004 RMS(Int)=  0.00000003
 Variable       Old X    -DE/DX   Delta X   Delta X   Delta X     New X
                                 (Linear)    (Quad)   (Total)
    R1        2.27040   0.00000   0.00000  -0.00099  -0.00099   2.26941
    R2        2.14534  -0.00001   0.00000   0.00106   0.00106   2.14640
    R3        2.58145  -0.00002   0.00000  -0.00039  -0.00039   2.58106
    R4        2.23472  -0.00006   0.00000   0.00005   0.00005   2.23477
    R5        2.06809  -0.00003   0.00000  -0.00015  -0.00015   2.06793
    R6        2.57521  -0.00005   0.00000  -0.00014  -0.00014   2.57507
    A1        2.81068   0.00004   0.00000  -0.00361  -0.00361   2.80708
    A2        2.17650  -0.00003   0.00000  -0.00031  -0.00031   2.17619
    A3        1.87454   0.00001   0.00000   0.00014   0.00014   1.87468
    A4        2.23152   0.00002   0.00000   0.00014   0.00014   2.23166
    A5        1.96393   0.00002   0.00000   0.00050   0.00050   1.96443
    A6        1.89356  -0.00007   0.00000  -0.00031  -0.00031   1.89326
    D1       -0.80927  -0.00004   0.00000  -0.03934  -0.03934  -0.84861
    D2        0.13711  -0.00001   0.00000  -0.00129  -0.00129   0.13582
    D3       -3.04006  -0.00003   0.00000  -0.00194  -0.00194  -3.04200
    D4        3.09859  -0.00002   0.00000  -0.00079  -0.00079   3.09780
    D5       -0.93662   0.00003   0.00000   0.01101   0.01101  -0.92561
         Item               Value     Threshold  Converged?
 Maximum Force            0.000070     0.000450     YES
 RMS     Force            0.000034     0.000300     YES
 Maximum Displacement     0.007375     0.001800     NO 
 RMS     Displacement     0.003817     0.001200     NO 
 Predicted change in Energy=-1.008967D-06
 GradGradGradGradGradGradGradGradGradGradGradGradGradGradGradGradGradGrad

                          Input orientation:                          
 ---------------------------------------------------------------------
 Center     Atomic      Atomic             Coordinates (Angstroms)
 Number     Number       Type             X           Y           Z
 ---------------------------------------------------------------------
      1          8           0       -1.842289   -0.655196   -0.317513
      2          1           0       -1.196460    0.166021    0.274696
      3          6           0        1.202474   -0.250824   -0.210434
      4          8           0        0.576557    0.957925   -0.323003
      5          8           0        0.779375   -1.173926    0.395688
      6          1           0        2.119597   -0.201323   -0.805360
      7          8           0       -0.520257    1.055299    0.479733
 ---------------------------------------------------------------------
                    Distance matrix (angstroms):
                    1          2          3          4          5
     1  O    0.000000
     2  H    1.200918   0.000000
     3  C    3.073364   2.482740   0.000000
     4  O    2.907405   2.031734   1.365840   0.000000
     5  O    2.766018   2.390402   1.182588   2.258858   0.000000
     6  H    4.017529   3.506807   1.094304   1.989345   2.045647
     7  O    2.304162   1.135828   2.269381   1.362669   2.581773
                    6          7
     6  H    0.000000
     7  O    3.193649   0.000000
 Stoichiometry    CH2O4(3)
 Framework group  C1[X(CH2O4)]
 Deg. of freedom    15
 Full point group                 C1      NOp   1
 Largest Abelian subgroup         C1      NOp   1
 Largest concise Abelian subgroup C1      NOp   1
                         Standard orientation:                         
 ---------------------------------------------------------------------
 Center     Atomic      Atomic             Coordinates (Angstroms)
 Number     Number       Type             X           Y           Z
 ---------------------------------------------------------------------
      1          8           0       -1.842835   -0.660605   -0.314149
      2          1           0       -1.198536    0.163998    0.275015
      3          6           0        1.200723   -0.245309   -0.214903
      4          8           0        0.570288    0.961014   -0.328287
      5          8           0        0.782287   -1.168751    0.393931
      6          1           0        2.116285   -0.193699   -0.812051
      7          8           0       -0.525001    1.056037    0.476811
 ---------------------------------------------------------------------
 Rotational constants (GHZ):      6.9344218      4.6928284      3.1735973
 Standard basis: 6-311+G(2df,2p) (5D, 7F)
 There are   188 symmetry adapted basis functions of A   symmetry.
 Integral buffers will be    131072 words long.
 Raffenetti 2 integral format.
 Two-electron integral symmetry is turned on.
   188 basis functions,   282 primitive gaussians,   213 cartesian basis functions
    21 alpha electrons       19 beta electrons
       nuclear repulsion energy       173.1038736180 Hartrees.
 NAtoms=    7 NActive=    7 NUniq=    7 SFac= 1.00D+00 NAtFMM=   50 NAOKFM=F Big=F
 One-electron integrals computed using PRISM.
 NBasis=   188 RedAO= T  NBF=   188
 NBsUse=   188 1.00D-06 NBFU=   188
 Initial guess read from the read-write file.
 B after Tr=     0.000000    0.000000    0.000000
         Rot=    1.000000    0.000000    0.000000    0.000000 Ang=   0.00 deg.
 Initial guess orbital symmetries:
 Alpha Orbitals:
       Occupied  (A) (A) (A) (A) (A) (A) (A) (A) (A) (A) (A) (A)
                 (A) (A) (A) (A) (A) (A) (A) (A) (A)
       Virtual   (A) (A) (A) (A) (A) (A) (A) (A) (A) (A) (A) (A)
                 (A) (A) (A) (A) (A) (A) (A) (A) (A) (A) (A) (A)
                 (A) (A) (A) (A) (A) (A) (A) (A) (A) (A) (A) (A)
                 (A) (A) (A) (A) (A) (A) (A) (A) (A) (A) (A) (A)
                 (A) (A) (A) (A) (A) (A) (A) (A) (A) (A) (A) (A)
                 (A) (A) (A) (A) (A) (A) (A) (A) (A) (A) (A) (A)
                 (A) (A) (A) (A) (A) (A) (A) (A) (A) (A) (A) (A)
                 (A) (A) (A) (A) (A) (A) (A) (A) (A) (A) (A) (A)
                 (A) (A) (A) (A) (A) (A) (A) (A) (A) (A) (A) (A)
                 (A) (A) (A) (A) (A) (A) (A) (A) (A) (A) (A) (A)
                 (A) (A) (A) (A) (A) (A) (A) (A) (A) (A) (A) (A)
                 (A) (A) (A) (A) (A) (A) (A) (A) (A) (A) (A) (A)
                 (A) (A) (A) (A) (A) (A) (A) (A) (A) (A) (A) (A)
                 (A) (A) (A) (A) (A) (A) (A) (A) (A) (A) (A)
 Beta  Orbitals:
       Occupied  (A) (A) (A) (A) (A) (A) (A) (A) (A) (A) (A) (A)
                 (A) (A) (A) (A) (A) (A) (A)
       Virtual   (A) (A) (A) (A) (A) (A) (A) (A) (A) (A) (A) (A)
                 (A) (A) (A) (A) (A) (A) (A) (A) (A) (A) (A) (A)
                 (A) (A) (A) (A) (A) (A) (A) (A) (A) (A) (A) (A)
                 (A) (A) (A) (A) (A) (A) (A) (A) (A) (A) (A) (A)
                 (A) (A) (A) (A) (A) (A) (A) (A) (A) (A) (A) (A)
                 (A) (A) (A) (A) (A) (A) (A) (A) (A) (A) (A) (A)
                 (A) (A) (A) (A) (A) (A) (A) (A) (A) (A) (A) (A)
                 (A) (A) (A) (A) (A) (A) (A) (A) (A) (A) (A) (A)
                 (A) (A) (A) (A) (A) (A) (A) (A) (A) (A) (A) (A)
                 (A) (A) (A) (A) (A) (A) (A) (A) (A) (A) (A) (A)
                 (A) (A) (A) (A) (A) (A) (A) (A) (A) (A) (A) (A)
                 (A) (A) (A) (A) (A) (A) (A) (A) (A) (A) (A) (A)
                 (A) (A) (A) (A) (A) (A) (A) (A) (A) (A) (A) (A)
                 (A) (A) (A) (A) (A) (A) (A) (A) (A) (A) (A) (A)
                 (A)
 Initial guess <Sx>= 0.0000 <Sy>= 0.0000 <Sz>= 1.0000 <S**2>= 2.0184 S= 1.0061
 Requested convergence on RMS density matrix=1.00D-08 within 128 cycles.
 Requested convergence on MAX density matrix=1.00D-06.
 Requested convergence on             energy=1.00D-06.
 No special actions if energy rises.
 Keep R1 and R2 ints in memory in canonical form, NReq=524572936.
 SCF Done:  E(UM062X) =  -339.927057619     A.U. after   22 cycles
             Convg  =    0.3596D-08             -V/T =  2.0026
 <Sx>= 0.0000 <Sy>= 0.0000 <Sz>= 1.0000 <S**2>= 2.0184 S= 1.0061
 <L.S>= 0.000000000000E+00
 Annihilation of the first spin contaminant:
 S**2 before annihilation     2.0184,   after     2.0001
 Calling FoFJK, ICntrl=      2127 FMM=F ISym2X=0 I1Cent= 0 IOpClX= 1 NMat=1 NMatS=1 NMatT=0.
 ***** Axes restored to original set *****
 -------------------------------------------------------------------
 Center     Atomic                   Forces (Hartrees/Bohr)
 Number     Number              X              Y              Z
 -------------------------------------------------------------------
      1        8           0.000018811    0.000007229    0.000025181
      2        1          -0.000076278    0.000077426    0.000020501
      3        6          -0.000021889    0.000000155    0.000002130
      4        8           0.000036358    0.000008095   -0.000090713
      5        8          -0.000021685   -0.000017599    0.000080229
      6        1           0.000015133   -0.000068021    0.000014872
      7        8           0.000049550   -0.000007286   -0.000052200
 -------------------------------------------------------------------
 Cartesian Forces:  Max     0.000090713 RMS     0.000044132

 GradGradGradGradGradGradGradGradGradGradGradGradGradGradGradGradGradGrad
 Berny optimization.
 Internal  Forces:  Max     0.000054343 RMS     0.000020972
 Search for a saddle point.
 Step number   4 out of a maximum of   27
 All quantities printed in internal units (Hartrees-Bohrs-Radians)
 Swaping is turned off.
 Update second derivatives using D2CorX and points    1    2    3    4
 The second derivative matrix:
                          R1        R2        R3        R4        R5
           R1           0.06675
           R2           0.16718   0.09558
           R3           0.02222  -0.02726   0.34819
           R4          -0.01378   0.01529   0.11309   0.97000
           R5          -0.00011   0.00040   0.01123   0.02249   0.34754
           R6          -0.03424   0.05929   0.05209  -0.01573  -0.00395
           A1           0.00801   0.00884  -0.00599   0.00213  -0.00054
           A2           0.00321   0.00078   0.04371   0.03456  -0.01349
           A3          -0.00276   0.00015   0.00364  -0.04447   0.01230
           A4          -0.00039  -0.00094  -0.04736   0.01001   0.00117
           A5           0.00742  -0.00540   0.06928  -0.00416   0.00223
           A6           0.02899  -0.00084  -0.00496   0.00726  -0.00177
           D1          -0.00302  -0.00031   0.00045  -0.00112   0.00006
           D2          -0.00448   0.00264   0.00413  -0.00442  -0.00088
           D3          -0.00281   0.00240   0.00285  -0.00136  -0.00117
           D4           0.00199  -0.00026   0.00008   0.00277  -0.00022
           D5          -0.01802   0.00718   0.01414  -0.01392   0.00058
                          R6        A1        A2        A3        A4
           R6           0.36221
           A1           0.00469   0.03101
           A2          -0.02606  -0.00146   0.19683
           A3           0.01751   0.00048  -0.10073   0.12237
           A4           0.00855   0.00095  -0.09597  -0.02171   0.11765
           A5           0.08219  -0.00270   0.01553   0.00968  -0.02514
           A6           0.05961   0.01369   0.00784  -0.00347  -0.00434
           D1          -0.00451  -0.00100  -0.00315   0.00140   0.00173
           D2          -0.00641   0.00110   0.00198  -0.00157  -0.00084
           D3          -0.00606   0.00047   0.00251  -0.00325   0.00112
           D4           0.00038  -0.00078   0.00247   0.00033  -0.00183
           D5          -0.02896   0.01303  -0.00620   0.00146   0.00467
                          A5        A6        D1        D2        D3
           A5           0.43056
           A6           0.04342   0.20693
           D1          -0.00721  -0.00924   0.00422
           D2          -0.00428  -0.00795   0.00150   0.01964
           D3          -0.00286  -0.00711   0.00089   0.00746   0.01828
           D4           0.00267   0.00111  -0.00078  -0.01470   0.01299
           D5          -0.03741  -0.03457   0.00871   0.00597   0.00401
                          D4        D5
           D4           0.03352
           D5          -0.00250   0.03905
 ITU=  0  0  0  0
     Eigenvalues ---   -0.10805   0.00148   0.01577   0.02493   0.04304
     Eigenvalues ---    0.04886   0.13054   0.18372   0.23375   0.27009
     Eigenvalues ---    0.30899   0.35091   0.36479   0.54528   0.99624
 Eigenvectors required to have negative eigenvalues:
                          R1        R2        R6        D5        R3
   1                   -0.70629   0.65330  -0.17123  -0.14380   0.11091
                          A6        D2        R4        A4        D3
   1                    0.08246  -0.03645  -0.03498   0.02949  -0.02854
 RFO step:  Lambda0=2.571375057D-10 Lambda=-3.53254536D-07.
 Linear search not attempted -- option 19 set.
 Iteration  1 RMS(Cart)=  0.00122061 RMS(Int)=  0.00000641
 Iteration  2 RMS(Cart)=  0.00001052 RMS(Int)=  0.00000000
 Iteration  3 RMS(Cart)=  0.00000000 RMS(Int)=  0.00000000
 Variable       Old X    -DE/DX   Delta X   Delta X   Delta X     New X
                                 (Linear)    (Quad)   (Total)
    R1        2.26941   0.00000   0.00000   0.00033   0.00033   2.26974
    R2        2.14640   0.00001   0.00000  -0.00035  -0.00035   2.14605
    R3        2.58106   0.00000   0.00000   0.00010   0.00010   2.58117
    R4        2.23477   0.00004   0.00000  -0.00001  -0.00001   2.23476
    R5        2.06793   0.00001   0.00000   0.00005   0.00005   2.06799
    R6        2.57507   0.00003   0.00000   0.00006   0.00006   2.57513
    A1        2.80708  -0.00002   0.00000   0.00099   0.00099   2.80806
    A2        2.17619   0.00001   0.00000   0.00010   0.00010   2.17630
    A3        1.87468   0.00000   0.00000  -0.00004  -0.00004   1.87464
    A4        2.23166  -0.00001   0.00000  -0.00005  -0.00005   2.23161
    A5        1.96443  -0.00001   0.00000  -0.00016  -0.00016   1.96427
    A6        1.89326   0.00005   0.00000   0.00021   0.00021   1.89346
    D1       -0.84861   0.00002   0.00000   0.01304   0.01304  -0.83557
    D2        0.13582   0.00001   0.00000   0.00047   0.00047   0.13629
    D3       -3.04200   0.00002   0.00000   0.00069   0.00069  -3.04131
    D4        3.09780   0.00001   0.00000   0.00027   0.00027   3.09807
    D5       -0.92561  -0.00001   0.00000  -0.00347  -0.00347  -0.92908
[...]
     3   6     0.09  -0.01  -0.07    -0.25   0.03   0.12    -0.23   0.28   0.14
     4   8     0.01  -0.11   0.09     0.01   0.32  -0.10    -0.08  -0.24   0.15
     5   8    -0.04   0.11  -0.02     0.07  -0.21   0.05     0.03   0.02  -0.05
     6   1     0.07   0.01  -0.10    -0.21   0.01   0.19    -0.55   0.47  -0.32
     7   8    -0.10  -0.13  -0.06     0.04  -0.26  -0.10     0.26  -0.02  -0.17
                    10                     11                     12
                     A                      A                      A
 Frequencies --  1033.6391              1146.3504              1283.9047
 Red. masses --     1.7002                 4.9872                 1.1891
 Frc consts  --     1.0703                 3.8613                 1.1549
 IR Inten    --    13.0134               225.3681                88.1013
  Atom  AN      X      Y      Z        X      Y      Z        X      Y      Z
     1   8     0.00   0.01   0.00     0.00  -0.01  -0.01    -0.01  -0.02  -0.02
     2   1     0.06   0.00  -0.03    -0.75  -0.06   0.25    -0.63   0.29   0.71
     3   6     0.15   0.03   0.17    -0.18   0.21   0.09     0.02  -0.02   0.00
     4   8    -0.04   0.03  -0.04     0.33  -0.13  -0.18    -0.02   0.05   0.02
     5   8    -0.04  -0.02  -0.04     0.04   0.00  -0.03     0.00  -0.01   0.00
     6   1    -0.44  -0.39  -0.77    -0.26  -0.09  -0.07     0.01  -0.06  -0.01
     7   8    -0.02  -0.01   0.01    -0.16  -0.01   0.14     0.06  -0.03  -0.05
                    13                     14                     15
                     A                      A                      A
 Frequencies --  1386.1354              1886.4597              3141.7094
 Red. masses --     1.1659                 9.1843                 1.0979
 Frc consts  --     1.3199                19.2571                 6.3848
 IR Inten    --     2.6859               202.3069                14.7156
  Atom  AN      X      Y      Z        X      Y      Z        X      Y      Z
     1   8     0.00   0.00   0.00     0.00   0.00   0.00     0.00   0.00   0.00
     2   1     0.04   0.00  -0.04    -0.13  -0.05  -0.12     0.00   0.00   0.00
     3   6    -0.05   0.06   0.00     0.22   0.52  -0.34    -0.07  -0.01   0.05
     4   8    -0.03  -0.02   0.03    -0.02  -0.02   0.02     0.00   0.00   0.00
     5   8     0.05   0.03  -0.04    -0.17  -0.37   0.25     0.00   0.00   0.00
     6   1     0.16  -0.94   0.28     0.47  -0.20  -0.22     0.84   0.03  -0.54
     7   8     0.01   0.01  -0.01     0.01   0.01   0.00     0.00   0.00   0.00

 -------------------
 - Thermochemistry -
 -------------------
 Temperature   298.150 Kelvin.  Pressure   1.00000 Atm.
 Atom     1 has atomic number  8 and mass  15.99491
 Atom     2 has atomic number  1 and mass   1.00783
 Atom     3 has atomic number  6 and mass  12.00000
 Atom     4 has atomic number  8 and mass  15.99491
 Atom     5 has atomic number  8 and mass  15.99491
 Atom     6 has atomic number  1 and mass   1.00783
 Atom     7 has atomic number  8 and mass  15.99491
 Molecular mass:    77.99531 amu.
 Principal axes and moments of inertia in atomic units:
                           1         2         3
     Eigenvalues --   260.29201 384.64424 568.56150
           X            0.99958  -0.01693  -0.02365
           Y            0.01704   0.99985   0.00415
           Z            0.02357  -0.00455   0.99971
 This molecule is an asymmetric top.
 Rotational symmetry number  1.
 Rotational temperatures (Kelvin)      0.33276     0.22518     0.15234
 Rotational constants (GHZ):           6.93353     4.69198     3.17422
    1 imaginary frequencies ignored.
 Zero-point vibrational energy      82755.7 (Joules/Mol)
                                   19.77909 (Kcal/Mol)
 Warning -- explicit consideration of   5 degrees of freedom as
           vibrations may cause significant error
 Vibrational temperatures:     69.35   219.18   478.53   528.53   550.35
          (Kelvin)           1180.17  1238.19  1429.62  1487.17  1649.34
                             1847.25  1994.34  2714.19  4520.21
 
 Zero-point correction=                           0.031520 (Hartree/Particle)
 Thermal correction to Energy=                    0.037128
 Thermal correction to Enthalpy=                  0.038072
 Thermal correction to Gibbs Free Energy=         0.000897
 Sum of electronic and zero-point Energies=           -339.895537
 Sum of electronic and thermal Energies=              -339.889930
 Sum of electronic and thermal Enthalpies=            -339.888985
 Sum of electronic and thermal Free Energies=         -339.926160
 
                     E (Thermal)             CV                S
                      KCal/Mol        Cal/Mol-Kelvin    Cal/Mol-Kelvin
 Total                   23.298             16.925             78.241
 Electronic               0.000              0.000              2.183
 Translational            0.889              2.981             38.977
 Rotational               0.889              2.981             25.546
 Vibrational             21.521             10.964             11.535
 Vibration     1          0.595              1.978              4.890
 Vibration     2          0.619              1.900              2.643
 Vibration     3          0.715              1.610              1.247
 Vibration     4          0.740              1.539              1.091
 Vibration     5          0.752              1.507              1.029
                       Q            Log10(Q)             Ln(Q)
 Total Bot       0.386714D+00         -0.412610         -0.950071
 Total V=0       0.121771D+15         14.085544         32.433164
 Vib (Bot)       0.557462D-13        -13.253785        -30.517967
 Vib (Bot)    1  0.428968D+01          0.632425          1.456211
 Vib (Bot)    2  0.133014D+01          0.123897          0.285282
 Vib (Bot)    3  0.560885D+00         -0.251126         -0.578239
 Vib (Bot)    4  0.496495D+00         -0.304085         -0.700183
 Vib (Bot)    5  0.471850D+00         -0.326196         -0.751095
 Vib (V=0)       0.175537D+02          1.244370          2.865268
 Vib (V=0)    1  0.481872D+01          0.682932          1.572508
 Vib (V=0)    2  0.192101D+01          0.283529          0.652850
 Vib (V=0)    3  0.125139D+01          0.097394          0.224258
 Vib (V=0)    4  0.120463D+01          0.080855          0.186174
 Vib (V=0)    5  0.118749D+01          0.074630          0.171842
 Electronic      0.300000D+01          0.477121          1.098612
 Translational   0.270743D+08          7.432558         17.114097
 Rotational      0.854073D+05          4.931495         11.355187
 ***** Axes restored to original set *****
 -------------------------------------------------------------------
 Center     Atomic                   Forces (Hartrees/Bohr)
 Number     Number              X              Y              Z
 -------------------------------------------------------------------
      1        8          -0.000010679    0.000018893    0.000034006
      2        1           0.000003913    0.000039173   -0.000011194
      3        6          -0.000003574   -0.000024322    0.000013730
      4        8           0.000015426   -0.000020784   -0.000052443
      5        8          -0.000018099    0.000016203    0.000064269
      6        1          -0.000002665   -0.000071286    0.000011373
      7        8           0.000015678    0.000042124   -0.000059740
 -------------------------------------------------------------------
 Cartesian Forces:  Max     0.000071286 RMS     0.000033126

 GradGradGradGradGradGradGradGradGradGradGradGradGradGradGradGradGradGrad
 Berny optimization.
 Internal  Forces:  Max     0.000001541 RMS     0.000000572
 Search for a saddle point.
 Step number   1 out of a maximum of    2
 All quantities printed in internal units (Hartrees-Bohrs-Radians)
 Swaping is turned off.
 Second derivative matrix not updated -- analytic derivatives used.
 The second derivative matrix:
                          R1        R2        R3        R4        R5
           R1           0.06588
           R2           0.16685   0.09822
           R3           0.02223  -0.02696   0.34738
           R4          -0.01363   0.01511   0.11269   0.97110
           R5          -0.00010   0.00039   0.01124   0.02248   0.34799
           R6          -0.03433   0.05930   0.05179  -0.01566  -0.00395
           A1           0.00810   0.00876  -0.00606   0.00300  -0.00046
           A2           0.00325   0.00100   0.04329   0.03416  -0.01359
           A3          -0.00275  -0.00002   0.00383  -0.04432   0.01248
           A4          -0.00044  -0.00099  -0.04712   0.01026   0.00109
           A5           0.00769  -0.00503   0.06818  -0.00411   0.00215
           A6           0.02884  -0.00045  -0.00511   0.00701  -0.00186
           D1          -0.00320  -0.00018  -0.00007  -0.00061   0.00011
           D2          -0.00459   0.00243   0.00435  -0.00440  -0.00092
           D3          -0.00287   0.00218   0.00304  -0.00152  -0.00121
           D4           0.00205  -0.00026   0.00005   0.00253  -0.00022
           D5          -0.01843   0.00638   0.01483  -0.01406   0.00046
                          R6        A1        A2        A3        A4
           R6           0.36278
           A1           0.00578   0.03298
           A2          -0.02636  -0.00041   0.19584
           A3           0.01763  -0.00005  -0.10024   0.12202
           A4           0.00874   0.00045  -0.09547  -0.02185   0.11729
           A5           0.08119  -0.00038   0.01321   0.01107  -0.02421
           A6           0.05918   0.01902   0.00755  -0.00361  -0.00391
           D1          -0.00386  -0.00143  -0.00337   0.00169   0.00165
           D2          -0.00638   0.00113   0.00237  -0.00187  -0.00093
           D3          -0.00603   0.00074   0.00285  -0.00360   0.00113
           D4           0.00036  -0.00049   0.00244   0.00032  -0.00177
           D5          -0.02905   0.01093  -0.00531   0.00084   0.00440
                          A5        A6        D1        D2        D3
           A5           0.42385
           A6           0.04205   0.20905
           D1          -0.00786  -0.00771   0.00427
           D2          -0.00286  -0.00810   0.00234   0.01905
           D3          -0.00151  -0.00727   0.00164   0.00697   0.01786
           D4           0.00260   0.00109  -0.00088  -0.01459   0.01308
           D5          -0.03444  -0.03539   0.01043   0.00467   0.00289
                          D4        D5
           D4           0.03352
           D5          -0.00230   0.03653
 ITU=  0
     Eigenvalues ---   -0.10693   0.00009   0.01739   0.02405   0.04292
     Eigenvalues ---    0.04770   0.13035   0.18603   0.23376   0.27085
     Eigenvalues ---    0.30732   0.35146   0.36428   0.53932   0.99702
 Eigenvectors required to have negative eigenvalues:
                          R1        R2        R6        D5        R3
   1                   -0.70958   0.64924  -0.17125  -0.14680   0.11087
                          A6        D2        R4        D3        A4
   1                    0.08010  -0.03811  -0.03475  -0.02982   0.02948
 Angle between quadratic step and forces=  80.98 degrees.
 Linear search not attempted -- option 19 set.
 Iteration  1 RMS(Cart)=  0.00058141 RMS(Int)=  0.00000176
 Iteration  2 RMS(Cart)=  0.00000152 RMS(Int)=  0.00000000
 Iteration  3 RMS(Cart)=  0.00000000 RMS(Int)=  0.00000000
 Variable       Old X    -DE/DX   Delta X   Delta X   Delta X     New X
                                 (Linear)    (Quad)   (Total)
    R1        2.26974   0.00000   0.00000  -0.00014  -0.00014   2.26960
    R2        2.14605   0.00000   0.00000   0.00016   0.00016   2.14622
    R3        2.58117   0.00000   0.00000  -0.00007  -0.00007   2.58109
    R4        2.23476   0.00000   0.00000   0.00003   0.00003   2.23479
    R5        2.06799   0.00000   0.00000   0.00000   0.00000   2.06798
    R6        2.57513   0.00000   0.00000   0.00002   0.00002   2.57515
    A1        2.80806   0.00000   0.00000  -0.00078  -0.00078   2.80728
    A2        2.17630   0.00000   0.00000  -0.00001  -0.00001   2.17628
    A3        1.87464   0.00000   0.00000   0.00004   0.00004   1.87467
    A4        2.23161   0.00000   0.00000  -0.00002  -0.00002   2.23159
    A5        1.96427   0.00000   0.00000   0.00004   0.00004   1.96431
    A6        1.89346   0.00000   0.00000   0.00019   0.00019   1.89365
    D1       -0.83557   0.00000   0.00000  -0.00372  -0.00372  -0.83929
    D2        0.13629   0.00000   0.00000   0.00014   0.00014   0.13642
    D3       -3.04131   0.00000   0.00000   0.00013   0.00013  -3.04118
    D4        3.09807   0.00000   0.00000   0.00000   0.00000   3.09807
    D5       -0.92908   0.00000   0.00000   0.00142   0.00142  -0.92766
         Item               Value     Threshold  Converged?
 Maximum Force            0.000002     0.000450     YES
 RMS     Force            0.000001     0.000300     YES
 Maximum Displacement     0.001004     0.001800     YES
 RMS     Displacement     0.000582     0.001200     YES
 Predicted change in Energy=-7.529685D-10
 Optimization completed.
    -- Stationary point found.
                           ----------------------------
                           !   Optimized Parameters   !
                           ! (Angstroms and Degrees)  !
 --------------------------                            --------------------------
 ! Name  Definition              Value          Derivative Info.                !
 --------------------------------------------------------------------------------
 ! R1    R(1,2)                  1.2011         -DE/DX =    0.0                 !
 ! R2    R(2,7)                  1.1356         -DE/DX =    0.0                 !
 ! R3    R(3,4)                  1.3659         -DE/DX =    0.0                 !
 ! R4    R(3,5)                  1.1826         -DE/DX =    0.0                 !
 ! R5    R(3,6)                  1.0943         -DE/DX =    0.0                 !
 ! R6    R(4,7)                  1.3627         -DE/DX =    0.0                 !
 ! A1    A(1,2,7)              160.8901         -DE/DX =    0.0                 !
 ! A2    A(4,3,5)              124.6925         -DE/DX =    0.0                 !
 ! A3    A(4,3,6)              107.4088         -DE/DX =    0.0                 !
 ! A4    A(5,3,6)              127.8618         -DE/DX =    0.0                 !
 ! A5    A(3,4,7)              112.5441         -DE/DX =    0.0                 !
 ! A6    A(2,7,4)              108.4875         -DE/DX =    0.0                 !
 ! D1    D(1,2,7,4)            -47.8747         -DE/DX =    0.0                 !
 ! D2    D(5,3,4,7)              7.8087         -DE/DX =    0.0                 !
 ! D3    D(6,3,4,7)           -174.2542         -DE/DX =    0.0                 !
 ! D4    D(4,3,5,6)            177.5066         -DE/DX =    0.0                 !
 ! D5    D(3,4,7,2)            -53.2323         -DE/DX =    0.0                 !
 --------------------------------------------------------------------------------
 GradGradGradGradGradGradGradGradGradGradGradGradGradGradGradGradGradGrad

 1\1\GINC-COMPUTE-3-046\Freq\UM062X\6-311+G(2df,2p)\C1H2O4(3)\ROOT\01-A
 ug-2017\0\\#N Geom=AllCheck Guess=TCheck SCRF=Check GenChk UM062X/6-31
 1+G(2df,2p) Freq\\[OH]+[O]OC=O_O=COO+[O]\\0,3\O,-1.8418360467,-0.65528
 96094,-0.3180878597\H,-1.1977204232,0.1672986003,0.2744394658\C,1.2025
 86827,-0.2510086524,-0.2104563248\O,0.5760988656,0.9574833407,-0.32326
 74804\O,0.7803265605,-1.1740267129,0.3963715403\H,2.1194519218,-0.2013
 31406,-0.8058146032\O,-0.519909705,1.0548494396,0.4806212619\\Version=
 EM64L-G09RevB.01\State=3-A\HF=-339.9270574\S2=2.018372\S2-1=0.\S2A=2.0
 00117\RMSD=2.872e-10\RMSF=3.313e-05\ZeroPoint=0.03152\Thermal=0.037127
 7\Dipole=0.7050159,0.2639514,-0.3765178\DipoleDeriv=0.3192006,0.320679
 7,0.1395932,0.655542,0.3617679,0.2215316,0.5129667,0.3420117,0.0087785
 ,-0.8369385,-0.7784135,-0.3085863,-1.499919,-0.793046,-0.5028806,-0.81
 62283,-0.5815148,0.0504209,1.0403878,-0.0541311,-0.1857798,-1.3109913,
 1.0638303,-0.4789202,0.0666396,-0.260683,0.6112681,-1.5828651,-0.39742
 01,-0.1798849,0.9425041,-0.3807432,0.1834173,0.6775267,0.3968968,-0.03
 45052,-0.3299258,-0.0663013,0.1765888,0.4628854,-0.6693743,0.2576492,-
 0.0841321,0.2870981,-0.5060683,-0.0198266,-0.0251091,0.0625719,0.02814
 94,0.0744209,0.024174,0.0489936,0.006975,0.0680438,1.4099676,1.0006955
 ,0.2954972,0.7218294,0.3431445,0.2950288,-0.4057662,-0.1907838,-0.1979
 377\Polar=62.1000539,16.0518065,43.0317288,2.7802066,3.2147167,26.7187
 084\PG=C01 [X(C1H2O4)]\NImag=1\\0.02944808,0.02386183,0.03281581,0.015
 48516,0.01746815,0.01756789,0.02937372,0.05151896,0.03597492,-0.035121
 98,0.04281924,0.05256381,0.04173887,-0.08523955,-0.06910602,0.00372650
 ,0.00330857,-0.00546887,-0.06074627,-0.03694989,0.01119230,-0.00289263
 ,-0.00328334,-0.00421445,0.00422692,0.01442299,0.00787605,0.64091189,0
 .01258711,0.02122977,0.01690060,-0.04463004,-0.03871466,-0.03222801,0.
 14799572,0.73026210,-0.00457182,-0.00543748,-0.00576271,0.01400427,0.0
 0800241,0.01156418,-0.33906453,-0.29733376,0.51306626,0.01548019,0.024
 70142,0.02331515,-0.07447889,-0.05829009,-0.02721314,-0.11089200,0.023
 68395,0.03008447,0.30077380,-0.01270186,-0.02064382,-0.01344932,0.0198
 0467,0.04271008,0.03780442,0.04227564,-0.15900331,0.01901792,-0.056343
 33,0.34100567,-0.01033428,-0.01537479,-0.00857992,0.03095156,0.0409770
 5,0.01641370,0.01453776,0.02906127,-0.08948875,-0.15547785,-0.07195560
 ,0.19547661,-0.00673360,-0.00324455,-0.00433960,0.01142426,0.00581053,
 0.00781361,-0.22363259,-0.20338850,0.16857969,0.03326642,0.00247573,-0
 .00256744,0.18793888,-0.00451002,-0.00808114,-0.00634629,0.01564547,0.
 01464899,0.01200960,-0.23104126,-0.51379215,0.30699381,0.03202967,-0.1
 1514397,0.03708086,0.22507896,0.63078976,0.00057681,0.00361435,0.00254
 922,-0.00683165,-0.00600350,-0.00483175,0.17957346,0.29922623,-0.29419
 507,-0.01009914,0.05051533,0.01328922,-0.18223097,-0.36971481,0.283629
 86,0.00047256,0.00030976,0.00028348,-0.00036710,-0.00117767,-0.0008076
 4,-0.24080962,-0.00283773,0.11442585,-0.01875627,0.00738633,0.01603442
 ,0.00087360,-0.00763687,0.01570843,0.25481085,-0.00024433,-0.00059225,
 -0.00033461,0.00091750,-0.00003149,0.00043193,-0.00700262,-0.05102561,
 0.00227535,0.02887324,-0.00336671,-0.01500522,-0.02823854,-0.00325835,
 0.02598295,-0.00045136,0.06248761,0.00029689,0.00020076,0.00020881,-0.
 00052486,-0.00083441,-0.00086938,0.11817015,-0.00272945,-0.13428159,0.
 00256501,0.00059836,0.00733037,0.02302475,0.01333555,0.00120204,-0.144
 91437,-0.01417685,0.12240507,-0.06514832,-0.09386407,-0.06650466,0.064
 94307,0.08165455,0.06935088,-0.06691197,0.06658949,0.01654208,-0.14539
 325,-0.00289717,0.10685584,-0.00313696,-0.02956596,0.00330305,0.003775
 99,0.00614610,0.00138243,0.21187144,-0.06181197,-0.07729219,-0.0559774
 0,0.04198299,-0.00207071,0.01562338,0.03663287,0.01104385,-0.03351824,
 0.00534514,-0.08555795,-0.00478357,0.00150637,-0.00516314,-0.00362055,
 0.00440754,-0.00421321,0.00360603,-0.02806293,0.16325336,-0.00517927,-
 0.00377956,-0.00051442,-0.01282797,-0.04693054,-0.02800018,0.02312157,
 -0.01289689,-0.00090233,0.13682550,-0.02253110,-0.13444124,-0.01028004
 ,0.00664127,-0.00164352,-0.00073017,0.00082646,0.00400467,-0.13092962,
 0.07867036,0.16149701\\0.00001068,-0.00001889,-0.00003401,-0.00000391,
 -0.00003917,0.00001119,0.00000357,0.00002432,-0.00001373,-0.00001543,0
 .00002078,0.00005244,0.00001810,-0.00001620,-0.00006427,0.00000267,0.0
 0007129,-0.00001137,-0.00001568,-0.00004212,0.00005974\\\@


 I do not feel obliged to believe that the same God who
 has endowed us with sense, reason, and intellect has
 intended us to forgo their use.
                   --Galileo Galilei
 Job cpu time:  0 days  0 hours 39 minutes 37.8 seconds.
 File lengths (MBytes):  RWF=   1440 Int=      0 D2E=      0 Chk=     32 Scr=     32
 Normal termination of Gaussian 09 at Tue Aug  1 07:35:13 2017.
