 Entering Gaussian System, Link 0=/shared/apps/gaussian/G09_LINUX_LINDA/g09/g09
 Input=/gss_gpfs_scratch/harms.n/QMscratch/[OH]+[O]O_O+[O][O]RxnC.gjf
 Output=/gss_gpfs_scratch/harms.n/QMscratch/[OH]+[O]O_O+[O][O]RxnC.log
 Initial command:
 /shared/apps/gaussian/G09_LINUX_LINDA/g09/l1.exe /gss_gpfs_scratch/harms.n/comparerTST/Gau-30800.inp -scrdir=/gss_gpfs_scratch/harms.n/comparerTST/
 Entering Link 1 = /shared/apps/gaussian/G09_LINUX_LINDA/g09/l1.exe PID=     30801.
  
 Copyright (c) 1988,1990,1992,1993,1995,1998,2003,2009,2010,
            Gaussian, Inc.  All Rights Reserved.
  
 This is part of the Gaussian(R) 09 program.  It is based on
 the Gaussian(R) 03 system (copyright 2003, Gaussian, Inc.),
 the Gaussian(R) 98 system (copyright 1998, Gaussian, Inc.),
 the Gaussian(R) 94 system (copyright 1995, Gaussian, Inc.),
 the Gaussian 92(TM) system (copyright 1992, Gaussian, Inc.),
 the Gaussian 90(TM) system (copyright 1990, Gaussian, Inc.),
 the Gaussian 88(TM) system (copyright 1988, Gaussian, Inc.),
 the Gaussian 86(TM) system (copyright 1986, Carnegie Mellon
 University), and the Gaussian 82(TM) system (copyright 1983,
 Carnegie Mellon University). Gaussian is a federally registered
 trademark of Gaussian, Inc.
  
 This software contains proprietary and confidential information,
 including trade secrets, belonging to Gaussian, Inc.
  
 This software is provided under written license and may be
 used, copied, transmitted, or stored only in accord with that
 written license.
  
 The following legend is applicable only to US Government
 contracts under FAR:
  
                    RESTRICTED RIGHTS LEGEND
  
 Use, reproduction and disclosure by the US Government is
 subject to restrictions as set forth in subparagraphs (a)
 and (c) of the Commercial Computer Software - Restricted
 Rights clause in FAR 52.227-19.
  
 Gaussian, Inc.
 340 Quinnipiac St., Bldg. 40, Wallingford CT 06492
  
  
 ---------------------------------------------------------------
 Warning -- This program may not be used in any manner that
 competes with the business of Gaussian, Inc. or will provide
 assistance to any competitor of Gaussian, Inc.  The licensee
 of this program is prohibited from giving any competitor of
 Gaussian, Inc. access to this program.  By using this program,
 the user acknowledges that Gaussian, Inc. is engaged in the
 business of creating and licensing software in the field of
 computational chemistry and represents and warrants to the
 licensee that it is not a competitor of Gaussian, Inc. and that
 it will not use this program in any manner prohibited above.
 ---------------------------------------------------------------
  

 Cite this work as:
 Gaussian 09, Revision B.01,
 M. J. Frisch, G. W. Trucks, H. B. Schlegel, G. E. Scuseria, 
 M. A. Robb, J. R. Cheeseman, G. Scalmani, V. Barone, B. Mennucci, 
 G. A. Petersson, H. Nakatsuji, M. Caricato, X. Li, H. P. Hratchian, 
 A. F. Izmaylov, J. Bloino, G. Zheng, J. L. Sonnenberg, M. Hada, 
 M. Ehara, K. Toyota, R. Fukuda, J. Hasegawa, M. Ishida, T. Nakajima, 
 Y. Honda, O. Kitao, H. Nakai, T. Vreven, J. A. Montgomery, Jr., 
 J. E. Peralta, F. Ogliaro, M. Bearpark, J. J. Heyd, E. Brothers, 
 K. N. Kudin, V. N. Staroverov, T. Keith, R. Kobayashi, J. Normand, 
 K. Raghavachari, A. Rendell, J. C. Burant, S. S. Iyengar, J. Tomasi, 
 M. Cossi, N. Rega, J. M. Millam, M. Klene, J. E. Knox, J. B. Cross, 
 V. Bakken, C. Adamo, J. Jaramillo, R. Gomperts, R. E. Stratmann, 
 O. Yazyev, A. J. Austin, R. Cammi, C. Pomelli, J. W. Ochterski, 
 R. L. Martin, K. Morokuma, V. G. Zakrzewski, G. A. Voth, 
 P. Salvador, J. J. Dannenberg, S. Dapprich, A. D. Daniels, 
 O. Farkas, J. B. Foresman, J. V. Ortiz, J. Cioslowski, 
 and D. J. Fox, Gaussian, Inc., Wallingford CT, 2010.
 
 ******************************************
 Gaussian 09:  EM64L-G09RevB.01 12-Aug-2010
                31-Jul-2017 
 ******************************************
 %nprocshared=20
 Will use up to   20 processors via shared memory.
 %mem=5GB
 ---------------------------------------------------
 # m062x/6-311+g(2df,2p) opt=(ts,calcfc,noeigentest)
 ---------------------------------------------------
 1/5=1,10=4,11=1,14=-1,18=20,26=3,38=1/1,3;
 2/9=110,12=2,17=6,18=5,40=1/2;
 3/5=4,6=6,7=214,11=2,16=1,25=1,30=1,71=2,74=-55/1,2,3;
 4//1;
 5/5=2,38=5/2;
 8/6=4,10=90,11=11/1;
 11/6=1,8=1,9=11,15=111,16=1/1,2,10;
 10/6=1,7=6,13=1/2;
 6/7=2,8=2,9=2,10=2,28=1/1;
 7/10=1,18=20,25=1/1,2,3,16;
 1/5=1,10=4,11=1,14=-1,18=20/3(2);
 2/9=110/2;
 99//99;
 2/9=110/2;
 3/5=4,6=6,7=214,11=2,16=1,25=1,30=1,71=1,74=-55/1,2,3;
 4/5=5,16=3/1;
 5/5=2,38=5/2;
 7//1,2,3,16;
 1/5=1,11=1,14=-1,18=20/3(-5);
 2/9=110/2;
 6/7=2,8=2,9=2,10=2,19=2,28=1/1;
 99/9=1/99;
 ------------------
 [OH]+[O]O_O+[O][O]
 ------------------
 Symbolic Z-matrix:
 Charge =  0 Multiplicity = 3
 O                     0.60922   0.58145   0.0208 
 O                     1.30553  -0.46581   0.0073 
 H                    -0.32115   0.37078  -0.32783 
 O                    -1.65178  -0.15272  -0.09484 
 H                    -1.78262  -0.07414   0.8617 
 

 GradGradGradGradGradGradGradGradGradGradGradGradGradGradGradGradGradGrad
 Berny optimization.
 Initialization pass.
                           ----------------------------
                           !    Initial Parameters    !
                           ! (Angstroms and Degrees)  !
 --------------------------                            --------------------------
 ! Name  Definition              Value          Derivative Info.                !
 --------------------------------------------------------------------------------
 ! R1    R(1,2)                  1.2577         calculate D2E/DX2 analytically  !
 ! R2    R(1,3)                  1.0156         calculate D2E/DX2 analytically  !
 ! R3    R(3,4)                  1.4488         calculate D2E/DX2 analytically  !
 ! R4    R(4,5)                  0.9686         calculate D2E/DX2 analytically  !
 ! A1    A(2,1,3)              109.3147         calculate D2E/DX2 analytically  !
 ! A2    A(1,3,4)              149.4401         calculate D2E/DX2 analytically  !
 ! A3    A(3,4,5)              104.6887         calculate D2E/DX2 analytically  !
 ! D1    D(2,1,3,4)             80.9499         calculate D2E/DX2 analytically  !
 ! D2    D(1,3,4,5)             23.68           calculate D2E/DX2 analytically  !
 --------------------------------------------------------------------------------
 Trust Radius=3.00D-01 FncErr=1.00D-07 GrdErr=1.00D-06
 Number of steps in this run=     20 maximum allowed number of steps=    100.
 Search for a saddle point of order  1.
 GradGradGradGradGradGradGradGradGradGradGradGradGradGradGradGradGradGrad

                          Input orientation:                          
 ---------------------------------------------------------------------
 Center     Atomic      Atomic             Coordinates (Angstroms)
 Number     Number       Type             X           Y           Z
 ---------------------------------------------------------------------
      1          8           0        0.609223    0.581445    0.020804
      2          8           0        1.305525   -0.465807    0.007298
      3          1           0       -0.321150    0.370779   -0.327831
      4          8           0       -1.651777   -0.152718   -0.094837
      5          1           0       -1.782621   -0.074141    0.861704
 ---------------------------------------------------------------------
                    Distance matrix (angstroms):
                    1          2          3          4          5
     1  O    0.000000
     2  O    1.257679   0.000000
     3  H    1.015638   1.859640   0.000000
     4  O    2.380019   2.975583   1.448759   0.000000
     5  H    2.618745   3.228011   1.936193   0.968641   0.000000
 Stoichiometry    H2O3(3)
 Framework group  C1[X(H2O3)]
 Deg. of freedom     9
 Full point group                 C1      NOp   1
 Largest Abelian subgroup         C1      NOp   1
 Largest concise Abelian subgroup C1      NOp   1
                         Standard orientation:                         
 ---------------------------------------------------------------------
 Center     Atomic      Atomic             Coordinates (Angstroms)
 Number     Number       Type             X           Y           Z
 ---------------------------------------------------------------------
      1          8           0        0.609223    0.581445    0.020804
      2          8           0        1.305525   -0.465807    0.007298
      3          1           0       -0.321150    0.370779   -0.327831
      4          8           0       -1.651777   -0.152718   -0.094837
      5          1           0       -1.782621   -0.074141    0.861704
 ---------------------------------------------------------------------
 Rotational constants (GHZ):     48.7352130      6.2348942      5.6478711
 Standard basis: 6-311+G(2df,2p) (5D, 7F)
 There are   120 symmetry adapted basis functions of A   symmetry.
 Integral buffers will be    131072 words long.
 Raffenetti 2 integral format.
 Two-electron integral symmetry is turned on.
   120 basis functions,   178 primitive gaussians,   135 cartesian basis functions
    14 alpha electrons       12 beta electrons
       nuclear repulsion energy        69.4786999043 Hartrees.
 NAtoms=    5 NActive=    5 NUniq=    5 SFac= 1.00D+00 NAtFMM=   50 NAOKFM=F Big=F
 One-electron integrals computed using PRISM.
 NBasis=   120 RedAO= T  NBF=   120
 NBsUse=   120 1.00D-06 NBFU=   120
 Harris functional with IExCor= 1009 diagonalized for initial guess.
 ExpMin= 8.45D-02 ExpMax= 8.59D+03 ExpMxC= 1.30D+03 IAcc=2 IRadAn=         0 AccDes= 0.00D+00
 HarFok:  IExCor= 1009 AccDes= 0.00D+00 IRadAn=         0 IDoV= 1
 ScaDFX=  1.000000  1.000000  1.000000  1.000000
 FoFCou: FMM=F IPFlag=           0 FMFlag=      100000 FMFlg1=           0
         NFxFlg=           0 DoJE=T BraDBF=F KetDBF=T FulRan=T
         Omega=  0.000000  0.000000  1.000000  0.000000  0.000000 ICntrl=     500 IOpCl=  0
         NMat0=    1 NMatS0=    1 NMatT0=    0 NMatD0=    1 NMtDS0=    0 NMtDT0=    0
         I1Cent=           4 NGrid=           0.
 Petite list used in FoFCou.
 Initial guess orbital symmetries:
 Alpha Orbitals:
       Occupied  (A) (A) (A) (A) (A) (A) (A) (A) (A) (A) (A) (A)
                 (A) (A)
       Virtual   (A) (A) (A) (A) (A) (A) (A) (A) (A) (A) (A) (A)
                 (A) (A) (A) (A) (A) (A) (A) (A) (A) (A) (A) (A)
                 (A) (A) (A) (A) (A) (A) (A) (A) (A) (A) (A) (A)
                 (A) (A) (A) (A) (A) (A) (A) (A) (A) (A) (A) (A)
                 (A) (A) (A) (A) (A) (A) (A) (A) (A) (A) (A) (A)
                 (A) (A) (A) (A) (A) (A) (A) (A) (A) (A) (A) (A)
                 (A) (A) (A) (A) (A) (A) (A) (A) (A) (A) (A) (A)
                 (A) (A) (A) (A) (A) (A) (A) (A) (A) (A) (A) (A)
                 (A) (A) (A) (A) (A) (A) (A) (A) (A) (A)
 Beta  Orbitals:
       Occupied  (A) (A) (A) (A) (A) (A) (A) (A) (A) (A) (A) (A)
       Virtual   (A) (A) (A) (A) (A) (A) (A) (A) (A) (A) (A) (A)
                 (A) (A) (A) (A) (A) (A) (A) (A) (A) (A) (A) (A)
                 (A) (A) (A) (A) (A) (A) (A) (A) (A) (A) (A) (A)
                 (A) (A) (A) (A) (A) (A) (A) (A) (A) (A) (A) (A)
                 (A) (A) (A) (A) (A) (A) (A) (A) (A) (A) (A) (A)
                 (A) (A) (A) (A) (A) (A) (A) (A) (A) (A) (A) (A)
                 (A) (A) (A) (A) (A) (A) (A) (A) (A) (A) (A) (A)
                 (A) (A) (A) (A) (A) (A) (A) (A) (A) (A) (A) (A)
                 (A) (A) (A) (A) (A) (A) (A) (A) (A) (A) (A) (A)
 The electronic state of the initial guess is 3-A.
 Initial guess <Sx>= 0.0000 <Sy>= 0.0000 <Sz>= 1.0000 <S**2>= 2.0000 S= 1.0000
 Requested convergence on RMS density matrix=1.00D-08 within 128 cycles.
 Requested convergence on MAX density matrix=1.00D-06.
 Requested convergence on             energy=1.00D-06.
 No special actions if energy rises.
 Keep R1 and R2 ints in memory in canonical form, NReq=86340378.
 Integral accuracy reduced to 1.0D-05 until final iterations.
 Initial convergence to 1.0D-05 achieved.  Increase integral accuracy.
 SCF Done:  E(UM062X) =  -226.635584721     A.U. after   37 cycles
             Convg  =    0.4154D-08             -V/T =  2.0023
 <Sx>= 0.0000 <Sy>= 0.0000 <Sz>= 1.0000 <S**2>= 2.0189 S= 1.0063
 <L.S>= 0.000000000000E+00
 Annihilation of the first spin contaminant:
 S**2 before annihilation     2.0189,   after     2.0002
 Range of M.O.s used for correlation:     1   120
 NBasis=   120 NAE=    14 NBE=    12 NFC=     0 NFV=     0
 NROrb=    120 NOA=    14 NOB=    12 NVA=   106 NVB=   108

 **** Warning!!: The largest alpha MO coefficient is  0.18792798D+02


 **** Warning!!: The largest beta MO coefficient is  0.18244631D+02

 Symmetrizing basis deriv contribution to polar:
 IMax=3 JMax=2 DiffMx= 0.00D+00
 G2DrvN: will do     6 centers at a time, making    1 passes doing MaxLOS=3.
 Calling FoFCou, ICntrl=  3107 FMM=F I1Cent=   0 AccDes= 0.00D+00.
 FoFDir/FoFCou used for L=0 through L=3.
 End of G2Drv Frequency-dependent properties file   721 does not exist.
 End of G2Drv Frequency-dependent properties file   722 does not exist.
          IDoAtm=11111
          Differentiating once with respect to nuclear coordinates.
          Keep R1 and R2 ints in memory in canonical form, NReq=86223709.
          There are    18 degrees of freedom in the 1st order CPHF.  IDoFFX=5.
     12 vectors produced by pass  0 Test12= 1.54D-10 5.56D-07 XBig12= 2.92D-01 4.23D-01.
 AX will form    12 AO Fock derivatives at one time.
     12 vectors produced by pass  1 Test12= 1.54D-10 5.56D-07 XBig12= 4.70D-02 5.40D-02.
     12 vectors produced by pass  2 Test12= 1.54D-10 5.56D-07 XBig12= 7.16D-03 2.24D-02.
     12 vectors produced by pass  3 Test12= 1.54D-10 5.56D-07 XBig12= 1.89D-04 2.98D-03.
     12 vectors produced by pass  4 Test12= 1.54D-10 5.56D-07 XBig12= 4.07D-06 3.87D-04.
     12 vectors produced by pass  5 Test12= 1.54D-10 5.56D-07 XBig12= 9.09D-08 4.54D-05.
      6 vectors produced by pass  6 Test12= 1.54D-10 5.56D-07 XBig12= 1.20D-09 6.26D-06.
 Inverted reduced A of dimension    78 with in-core refinement.
 End of Minotr Frequency-dependent properties file   721 does not exist.
 End of Minotr Frequency-dependent properties file   722 does not exist.

 **********************************************************************

            Population analysis using the SCF density.

 **********************************************************************

 Orbital symmetries:
 Alpha Orbitals:
       Occupied  (A) (A) (A) (A) (A) (A) (A) (A) (A) (A) (A) (A)
                 (A) (A)
       Virtual   (A) (A) (A) (A) (A) (A) (A) (A) (A) (A) (A) (A)
                 (A) (A) (A) (A) (A) (A) (A) (A) (A) (A) (A) (A)
                 (A) (A) (A) (A) (A) (A) (A) (A) (A) (A) (A) (A)
                 (A) (A) (A) (A) (A) (A) (A) (A) (A) (A) (A) (A)
                 (A) (A) (A) (A) (A) (A) (A) (A) (A) (A) (A) (A)
                 (A) (A) (A) (A) (A) (A) (A) (A) (A) (A) (A) (A)
                 (A) (A) (A) (A) (A) (A) (A) (A) (A) (A) (A) (A)
                 (A) (A) (A) (A) (A) (A) (A) (A) (A) (A) (A) (A)
                 (A) (A) (A) (A) (A) (A) (A) (A) (A) (A)
 Beta  Orbitals:
       Occupied  (A) (A) (A) (A) (A) (A) (A) (A) (A) (A) (A) (A)
       Virtual   (A) (A) (A) (A) (A) (A) (A) (A) (A) (A) (A) (A)
                 (A) (A) (A) (A) (A) (A) (A) (A) (A) (A) (A) (A)
                 (A) (A) (A) (A) (A) (A) (A) (A) (A) (A) (A) (A)
                 (A) (A) (A) (A) (A) (A) (A) (A) (A) (A) (A) (A)
                 (A) (A) (A) (A) (A) (A) (A) (A) (A) (A) (A) (A)
                 (A) (A) (A) (A) (A) (A) (A) (A) (A) (A) (A) (A)
                 (A) (A) (A) (A) (A) (A) (A) (A) (A) (A) (A) (A)
                 (A) (A) (A) (A) (A) (A) (A) (A) (A) (A) (A) (A)
                 (A) (A) (A) (A) (A) (A) (A) (A) (A) (A) (A) (A)
 The electronic state is 3-A.
 Alpha  occ. eigenvalues --  -19.79891 -19.76548 -19.67807  -1.42350  -1.14161
 Alpha  occ. eigenvalues --   -1.02049  -0.72175  -0.66042  -0.63500  -0.56615
 Alpha  occ. eigenvalues --   -0.49658  -0.43382  -0.42510  -0.41157
 Alpha virt. eigenvalues --    0.05367   0.09427   0.10924   0.12717   0.16826
 Alpha virt. eigenvalues --    0.17354   0.17877   0.19229   0.21277   0.23726
 Alpha virt. eigenvalues --    0.24439   0.25822   0.29186   0.29780   0.36767
 Alpha virt. eigenvalues --    0.49925   0.55474   0.67722   0.70230   0.76409
 Alpha virt. eigenvalues --    0.83382   0.89469   0.94258   0.95791   0.99542
 Alpha virt. eigenvalues --    1.03024   1.04821   1.07132   1.08151   1.10119
 Alpha virt. eigenvalues --    1.27477   1.30692   1.35032   1.37545   1.41678
 Alpha virt. eigenvalues --    1.44130   1.49531   1.55707   1.58704   1.77205
 Alpha virt. eigenvalues --    1.78410   1.83281   1.97745   2.12678   2.20062
 Alpha virt. eigenvalues --    2.22601   2.24077   2.36420   2.40641   2.53039
 Alpha virt. eigenvalues --    2.64194   2.82471   3.59751   3.62556   3.75782
 Alpha virt. eigenvalues --    3.77676   4.01127   4.11375   4.42357   4.56304
 Alpha virt. eigenvalues --    4.57212   4.70990   4.78855   4.91542   4.92739
 Alpha virt. eigenvalues --    4.92972   4.98064   4.99444   5.01613   5.02253
 Alpha virt. eigenvalues --    5.02302   5.03540   5.08296   5.09595   5.16258
 Alpha virt. eigenvalues --    5.19370   5.22083   5.24435   5.38057   5.51113
 Alpha virt. eigenvalues --    5.52890   5.62088   5.64367   6.48979   6.49985
 Alpha virt. eigenvalues --    6.61028   6.65360   6.71113   6.73451   6.78332
 Alpha virt. eigenvalues --    6.83645   6.84892   6.93198   6.93471   6.97230
 Alpha virt. eigenvalues --    7.03669   7.17537   7.20772   7.26694   7.41717
 Alpha virt. eigenvalues --    7.55814   7.83320   7.89495  49.92196  49.93796
 Alpha virt. eigenvalues --   49.98438
  Beta  occ. eigenvalues --  -19.78491 -19.74595 -19.66626  -1.37409  -1.09252
  Beta  occ. eigenvalues --   -0.95259  -0.66834  -0.59032  -0.54789  -0.53558
  Beta  occ. eigenvalues --   -0.40534  -0.35867
  Beta virt. eigenvalues --   -0.16353  -0.09029   0.05878   0.09927   0.11413
  Beta virt. eigenvalues --    0.13260   0.16870   0.18029   0.18230   0.19716
  Beta virt. eigenvalues --    0.21690   0.24453   0.24958   0.27554   0.29596
  Beta virt. eigenvalues --    0.31667   0.36620   0.50790   0.56445   0.67931
  Beta virt. eigenvalues --    0.71163   0.77062   0.84060   0.90461   0.94757
  Beta virt. eigenvalues --    0.97115   1.02242   1.03907   1.08298   1.08980
  Beta virt. eigenvalues --    1.10355   1.11925   1.29567   1.33458   1.36095
  Beta virt. eigenvalues --    1.39219   1.43665   1.46460   1.51503   1.57993
  Beta virt. eigenvalues --    1.61879   1.79551   1.80402   1.84615   1.99616
  Beta virt. eigenvalues --    2.13919   2.21374   2.23633   2.24927   2.36923
  Beta virt. eigenvalues --    2.41719   2.53537   2.65193   2.80783   3.60946
  Beta virt. eigenvalues --    3.62888   3.75714   3.78042   4.00497   4.11515
  Beta virt. eigenvalues --    4.45792   4.57847   4.58742   4.72360   4.79344
  Beta virt. eigenvalues --    4.95008   4.95720   4.98174   5.01125   5.02718
  Beta virt. eigenvalues --    5.04450   5.05731   5.06180   5.07562   5.10760
  Beta virt. eigenvalues --    5.12540   5.20046   5.20911   5.24150   5.26562
  Beta virt. eigenvalues --    5.40810   5.51985   5.56314   5.63417   5.66165
  Beta virt. eigenvalues --    6.51454   6.52598   6.71147   6.74131   6.77690
  Beta virt. eigenvalues --    6.81123   6.83989   6.87695   6.91400   6.97954
  Beta virt. eigenvalues --    6.98636   7.05877   7.07585   7.21154   7.24832
  Beta virt. eigenvalues --    7.29283   7.50878   7.57454   7.83714   7.91505
  Beta virt. eigenvalues --   49.91395  49.92979  49.97715
          Condensed to atoms (all electrons):
              1          2          3          4          5
     1  O    7.614195   0.253541   0.227795  -0.014110   0.014894
     2  O    0.253541   7.874064  -0.058257   0.012569  -0.005162
     3  H    0.227795  -0.058257   0.394050   0.079588  -0.008949
     4  O   -0.014110   0.012569   0.079588   8.112812   0.250084
     5  H    0.014894  -0.005162  -0.008949   0.250084   0.500893
 Mulliken atomic charges:
              1
     1  O   -0.096315
     2  O   -0.076756
     3  H    0.365773
     4  O   -0.440943
     5  H    0.248240
 Sum of Mulliken atomic charges =   0.00000
 Mulliken charges with hydrogens summed into heavy atoms:
              1
     1  O    0.269458
     2  O   -0.076756
     4  O   -0.192702
 Sum of Mulliken charges with hydrogens summed into heavy atoms =   0.00000
          Atomic-Atomic Spin Densities.
              1          2          3          4          5
     1  O    0.730972  -0.232554   0.035413  -0.013507  -0.000261
     2  O   -0.232554   1.081713   0.004739   0.013771   0.000924
     3  H    0.035413   0.004739  -0.074143  -0.024509  -0.002229
     4  O   -0.013507   0.013771  -0.024509   0.700671   0.011782
     5  H   -0.000261   0.000924  -0.002229   0.011782  -0.026346
 Mulliken atomic spin densities:
              1
     1  O    0.520062
     2  O    0.868592
     3  H   -0.060729
     4  O    0.688207
     5  H   -0.016131
 Sum of Mulliken atomic spin densities =   2.00000
 APT atomic charges:
              1
     1  O   -0.172163
     2  O   -0.063953
     3  H    0.387712
     4  O   -0.629047
     5  H    0.477451
 Sum of APT charges=   0.00000
 APT Atomic charges with hydrogens summed into heavy atoms:
              1
     1  O    0.215549
     2  O   -0.063953
     3  H    0.000000
     4  O   -0.151596
     5  H    0.000000
 Sum of APT charges=   0.00000
 Electronic spatial extent (au):  <R**2>=            208.4633
 Charge=              0.0000 electrons
 Dipole moment (field-independent basis, Debye):
    X=             -0.2905    Y=              0.6407    Z=              1.1311  Tot=              1.3320
 Quadrupole moment (field-independent basis, Debye-Ang):
   XX=            -19.0168   YY=            -18.2891   ZZ=            -15.3739
   XY=             -0.1120   XZ=             -3.1156   YZ=             -0.3938
 Traceless Quadrupole moment (field-independent basis, Debye-Ang):
   XX=             -1.4569   YY=             -0.7292   ZZ=              2.1860
   XY=             -0.1120   XZ=             -3.1156   YZ=             -0.3938
 Octapole moment (field-independent basis, Debye-Ang**2):
  XXX=              0.7788  YYY=              0.6365  ZZZ=              1.6932  XYY=              0.9882
  XXY=             -0.3353  XXZ=              5.8590  XZZ=             -1.7323  YZZ=              0.0188
  YYZ=              0.1379  XYZ=              0.1814
 Hexadecapole moment (field-independent basis, Debye-Ang**3):
 XXXX=           -184.4685 YYYY=            -33.4176 ZZZZ=            -13.9281 XXXY=              2.7931
 XXXZ=            -12.4424 YYYX=             -1.1304 YYYZ=             -0.2936 ZZZX=             -3.7314
 ZZZY=             -0.2711 XXYY=            -36.9971 XXZZ=            -28.1542 YYZZ=             -8.1414
 XXYZ=             -0.2046 YYXZ=             -0.3631 ZZXY=              0.0931
 N-N= 6.947869990432D+01 E-N=-9.973255897638D+02  KE= 3.357601425206D+02
  Exact polarizability:   0.000   0.000   0.000   0.000   0.000   0.000
 Approx polarizability:  68.024  -3.439  21.473   1.448   0.126  16.449
                          Isotropic Fermi Contact Couplings
        Atom                 a.u.       MegaHertz       Gauss      10(-4) cm-1
     1  O(17)              0.04863     -14.73879      -5.25917      -4.91633
     2  O(17)              0.13103     -39.71352     -14.17077     -13.24700
     3  H(1)              -0.03019     -67.48280     -24.07954     -22.50984
     4  O(17)              0.08004     -24.26011      -8.65661      -8.09230
     5  H(1)              -0.01117     -24.96259      -8.90727      -8.32662
 --------------------------------------------------------
       Center         ----  Spin Dipole Couplings  ----
                      3XX-RR        3YY-RR        3ZZ-RR
 --------------------------------------------------------
     1   Atom       -0.045862     -0.960098      1.005960
     2   Atom       -0.840684     -1.654666      2.495350
     3   Atom        0.218452     -0.123570     -0.094881
     4   Atom        1.848009     -0.537120     -1.310889
     5   Atom       -0.028156     -0.087261      0.115416
 --------------------------------------------------------
                        XY            XZ            YZ
 --------------------------------------------------------
     1   Atom        0.915980     -0.405578     -0.255706
     2   Atom        0.696342     -0.570905     -0.430424
     3   Atom        0.070838      0.056559     -0.001554
     4   Atom        1.614599      0.364146      0.185090
     5   Atom        0.024818     -0.030015      0.019558
 --------------------------------------------------------


 ---------------------------------------------------------------------------------
              Anisotropic Spin Dipole Couplings in Principal Axis System
 ---------------------------------------------------------------------------------

       Atom             a.u.   MegaHertz   Gauss  10(-4) cm-1        Axes

              Baa    -1.5267   110.471    39.419    36.849 -0.5257  0.8507  0.0017
     1 O(17)  Bbb     0.2260   -16.354    -5.836    -5.455  0.7252  0.4471  0.5237
              Bcc     1.3007   -94.116   -33.583   -31.394 -0.4447 -0.2765  0.8519
 
              Baa    -2.0561   148.779    53.088    49.627 -0.4895  0.8717  0.0210
     2 O(17)  Bbb    -0.6032    43.650    15.575    14.560  0.8523  0.4733  0.2228
              Bcc     2.6593  -192.429   -68.663   -64.187 -0.1842 -0.1270  0.9746
 
              Baa    -0.1417   -75.623   -26.984   -25.225 -0.2299  0.9231  0.3082
     3 H(1)   Bbb    -0.0999   -53.283   -19.013   -17.773 -0.0918 -0.3358  0.9374
              Bcc     0.2416   128.906    45.997    42.998  0.9689  0.1873  0.1620
 
              Baa    -1.3534    97.929    34.944    32.666  0.2043 -0.5825  0.7868
     4 O(17)  Bbb    -1.3509    97.750    34.880    32.606 -0.4116  0.6781  0.6089
              Bcc     2.7043  -195.679   -69.823   -65.272  0.8882  0.4482  0.1012
 
              Baa    -0.1002   -53.467   -19.078   -17.835 -0.3725  0.9181 -0.1351
     5 H(1)   Bbb    -0.0222   -11.860    -4.232    -3.956  0.9096  0.3901  0.1429
              Bcc     0.1224    65.327    23.310    21.791 -0.1839  0.0697  0.9805
 

 ---------------------------------------------------------------------------------

 Calling FoFJK, ICntrl=    100147 FMM=F ISym2X=0 I1Cent= 0 IOpClX= 1 NMat=1 NMatS=1 NMatT=0.
 ***** Axes restored to original set *****
 -------------------------------------------------------------------
 Center     Atomic                   Forces (Hartrees/Bohr)
 Number     Number              X              Y              Z
 -------------------------------------------------------------------
      1        8           0.036443613    0.007712192    0.006936654
      2        8          -0.001587513    0.002173996    0.000089394
      3        1          -0.049391846   -0.017004916   -0.000430099
      4        8           0.014626527    0.007385344   -0.006211290
      5        1          -0.000090780   -0.000266615   -0.000384659
 -------------------------------------------------------------------
 Cartesian Forces:  Max     0.049391846 RMS     0.017280392

 GradGradGradGradGradGradGradGradGradGradGradGradGradGradGradGradGradGrad
 Berny optimization.
 Internal  Forces:  Max     0.036406560 RMS     0.013974294
 Search for a saddle point.
 Step number   1 out of a maximum of   20
 All quantities printed in internal units (Hartrees-Bohrs-Radians)
 Swaping is turned off.
 Second derivative matrix not updated -- analytic derivatives used.
 The second derivative matrix:
                          R1        R2        R3        R4        A1
           R1           0.49417
           R2           0.15005   0.27381
           R3          -0.09262   0.14592  -0.02297
           R4          -0.01437   0.01106  -0.00987   0.52121
           A1           0.07572  -0.01166   0.01576   0.00144   0.20416
           A2           0.02831  -0.00224   0.02875   0.00096   0.00496
           A3          -0.01730   0.01875  -0.00704   0.00640   0.00811
           D1          -0.00131  -0.00046   0.00164   0.00042   0.00401
           D2           0.00523  -0.00356   0.00259   0.00074  -0.00173
                          A2        A3        D1        D2
           A2           0.03340
           A3           0.00025   0.05606
           D1           0.00081  -0.00023   0.00107
           D2          -0.00080  -0.00147  -0.00068  -0.00032
 ITU=  0
     Eigenvalues ---   -0.13049  -0.00050   0.00121   0.03792   0.05664
     Eigenvalues ---    0.19083   0.30052   0.52115   0.58331
 Eigenvectors required to have negative eigenvalues:
                          R3        R2        R1        A2        A1
   1                    0.84341  -0.40652   0.24845  -0.19356  -0.10989
                          A3        D2        R4        D1
   1                    0.09960  -0.03954   0.02475  -0.00502
 RFO step:  Lambda0=7.417731287D-03 Lambda=-3.40626674D-03.
 Linear search not attempted -- option 19 set.
 Iteration  1 RMS(Cart)=  0.14648621 RMS(Int)=  0.17513865
 Iteration  2 RMS(Cart)=  0.10136308 RMS(Int)=  0.10566874
 Iteration  3 RMS(Cart)=  0.06615671 RMS(Int)=  0.03838351
 Iteration  4 RMS(Cart)=  0.03661726 RMS(Int)=  0.00182135
 Iteration  5 RMS(Cart)=  0.00178614 RMS(Int)=  0.00000250
 Iteration  6 RMS(Cart)=  0.00000355 RMS(Int)=  0.00000000
 Iteration  7 RMS(Cart)=  0.00000000 RMS(Int)=  0.00000000
 Variable       Old X    -DE/DX   Delta X   Delta X   Delta X     New X
                                 (Linear)    (Quad)   (Total)
    R1        2.37667  -0.00271   0.00000   0.05613   0.05613   2.43280
    R2        1.91928   0.03641   0.00000  -0.03100  -0.03100   1.88827
    R3        2.73776  -0.01697   0.00000   0.21642   0.21642   2.95418
    R4        1.83047  -0.00040   0.00000   0.00620   0.00620   1.83667
    A1        1.90790  -0.00015   0.00000  -0.04551  -0.04551   1.86239
    A2        2.60822   0.01167   0.00000   0.08613   0.08613   2.69435
    A3        1.82716   0.00043   0.00000   0.04924   0.04924   1.87640
    D1        1.41284  -0.00023   0.00000  -0.26667  -0.26667   1.14617
    D2        0.41329  -0.00031   0.00000  -0.71102  -0.71102  -0.29772
         Item               Value     Threshold  Converged?
 Maximum Force            0.036407     0.000450     NO 
 RMS     Force            0.013974     0.000300     NO 
 Maximum Displacement     0.514598     0.001800     NO 
 RMS     Displacement     0.318570     0.001200     NO 
 Predicted change in Energy= 1.306025D-03
 GradGradGradGradGradGradGradGradGradGradGradGradGradGradGradGradGradGrad

                          Input orientation:                          
 ---------------------------------------------------------------------
 Center     Atomic      Atomic             Coordinates (Angstroms)
 Number     Number       Type             X           Y           Z
 ---------------------------------------------------------------------
      1          8           0        0.690586    0.615809   -0.197191
      2          8           0        1.202930   -0.487052    0.225364
      3          1           0       -0.270014    0.427873   -0.398171
      4          8           0       -1.740215    0.049382   -0.025191
      5          1           0       -1.724087   -0.346455    0.862327
 ---------------------------------------------------------------------
                    Distance matrix (angstroms):
                    1          2          3          4          5
     1  O    0.000000
     2  O    1.287381   0.000000
     3  H    0.999231   1.842674   0.000000
     4  O    2.501842   3.002106   1.563285   0.000000
     5  H    2.806987   2.998820   2.074312   0.971923   0.000000
 Stoichiometry    H2O3(3)
 Framework group  C1[X(H2O3)]
 Deg. of freedom     9
 Full point group                 C1      NOp   1
 Largest Abelian subgroup         C1      NOp   1
 Largest concise Abelian subgroup C1      NOp   1
                         Standard orientation:                         
 ---------------------------------------------------------------------
 Center     Atomic      Atomic             Coordinates (Angstroms)
 Number     Number       Type             X           Y           Z
 ---------------------------------------------------------------------
      1          8           0        0.697130    0.621169    0.067623
      2          8           0        1.253425   -0.534546   -0.042871
      3          1           0       -0.256225    0.508788   -0.209771
      4          8           0       -1.709227   -0.050036   -0.067074
      5          1           0       -1.674394   -0.801487    0.548347
 ---------------------------------------------------------------------
 Rotational constants (GHZ):     41.4975618      6.0916949      5.3663794
 Standard basis: 6-311+G(2df,2p) (5D, 7F)
 There are   120 symmetry adapted basis functions of A   symmetry.
 Integral buffers will be    131072 words long.
 Raffenetti 2 integral format.
 Two-electron integral symmetry is turned on.
   120 basis functions,   178 primitive gaussians,   135 cartesian basis functions
    14 alpha electrons       12 beta electrons
       nuclear repulsion energy        67.8981277111 Hartrees.
 NAtoms=    5 NActive=    5 NUniq=    5 SFac= 1.00D+00 NAtFMM=   50 NAOKFM=F Big=F
 One-electron integrals computed using PRISM.
 NBasis=   120 RedAO= T  NBF=   120
 NBsUse=   120 1.00D-06 NBFU=   120
 Initial guess read from the read-write file.
 B after Tr=     0.000000    0.000000    0.000000
         Rot=    1.000000    0.000000    0.000000    0.000000 Ang=   0.00 deg.
 Initial guess orbital symmetries:
 Alpha Orbitals:
       Occupied  (A) (A) (A) (A) (A) (A) (A) (A) (A) (A) (A) (A)
                 (A) (A)
       Virtual   (A) (A) (A) (A) (A) (A) (A) (A) (A) (A) (A) (A)
                 (A) (A) (A) (A) (A) (A) (A) (A) (A) (A) (A) (A)
                 (A) (A) (A) (A) (A) (A) (A) (A) (A) (A) (A) (A)
                 (A) (A) (A) (A) (A) (A) (A) (A) (A) (A) (A) (A)
                 (A) (A) (A) (A) (A) (A) (A) (A) (A) (A) (A) (A)
                 (A) (A) (A) (A) (A) (A) (A) (A) (A) (A) (A) (A)
                 (A) (A) (A) (A) (A) (A) (A) (A) (A) (A) (A) (A)
                 (A) (A) (A) (A) (A) (A) (A) (A) (A) (A) (A) (A)
                 (A) (A) (A) (A) (A) (A) (A) (A) (A) (A)
 Beta  Orbitals:
       Occupied  (A) (A) (A) (A) (A) (A) (A) (A) (A) (A) (A) (A)
       Virtual   (A) (A) (A) (A) (A) (A) (A) (A) (A) (A) (A) (A)
                 (A) (A) (A) (A) (A) (A) (A) (A) (A) (A) (A) (A)
                 (A) (A) (A) (A) (A) (A) (A) (A) (A) (A) (A) (A)
                 (A) (A) (A) (A) (A) (A) (A) (A) (A) (A) (A) (A)
                 (A) (A) (A) (A) (A) (A) (A) (A) (A) (A) (A) (A)
                 (A) (A) (A) (A) (A) (A) (A) (A) (A) (A) (A) (A)
                 (A) (A) (A) (A) (A) (A) (A) (A) (A) (A) (A) (A)
                 (A) (A) (A) (A) (A) (A) (A) (A) (A) (A) (A) (A)
                 (A) (A) (A) (A) (A) (A) (A) (A) (A) (A) (A) (A)
 Initial guess <Sx>= 0.0000 <Sy>= 0.0000 <Sz>= 1.0000 <S**2>= 2.0200 S= 1.0066
 Harris functional with IExCor= 1009 diagonalized for initial guess.
 ExpMin= 8.45D-02 ExpMax= 8.59D+03 ExpMxC= 1.30D+03 IAcc=2 IRadAn=         0 AccDes= 0.00D+00
 HarFok:  IExCor= 1009 AccDes= 0.00D+00 IRadAn=         0 IDoV= 1
 ScaDFX=  1.000000  1.000000  1.000000  1.000000
 FoFCou: FMM=F IPFlag=           0 FMFlag=      100000 FMFlg1=           0
         NFxFlg=           0 DoJE=T BraDBF=F KetDBF=T FulRan=T
         Omega=  0.000000  0.000000  1.000000  0.000000  0.000000 ICntrl=     500 IOpCl=  0
         NMat0=    1 NMatS0=    1 NMatT0=    0 NMatD0=    1 NMtDS0=    0 NMtDT0=    0
         I1Cent=           4 NGrid=           0.
 Petite list used in FoFCou.
 Requested convergence on RMS density matrix=1.00D-08 within 128 cycles.
 Requested convergence on MAX density matrix=1.00D-06.
 Requested convergence on             energy=1.00D-06.
 No special actions if energy rises.
 Keep R1 and R2 ints in memory in canonical form, NReq=86340670.
 Integral accuracy reduced to 1.0D-05 until final iterations.
 Initial convergence to 1.0D-05 achieved.  Increase integral accuracy.
 SCF Done:  E(UM062X) =  -226.635212128     A.U. after   48 cycles
             Convg  =    0.3312D-08             -V/T =  2.0022
 <Sx>= 0.0000 <Sy>= 0.0000 <Sz>= 1.0000 <S**2>= 2.0114 S= 1.0038
 <L.S>= 0.000000000000E+00
 Annihilation of the first spin contaminant:
 S**2 before annihilation     2.0114,   after     2.0001
 Calling FoFJK, ICntrl=      2127 FMM=F ISym2X=0 I1Cent= 0 IOpClX= 1 NMat=1 NMatS=1 NMatT=0.
 ***** Axes restored to original set *****
 -------------------------------------------------------------------
 Center     Atomic                   Forces (Hartrees/Bohr)
 Number     Number              X              Y              Z
 -------------------------------------------------------------------
      1        8           0.006548214    0.010773806   -0.004163096
      2        8          -0.000864763   -0.005905728    0.002191957
      3        1          -0.000715913   -0.003549168    0.002458141
      4        8          -0.006118010   -0.000660188   -0.000689103
      5        1           0.001150472   -0.000658722    0.000202101
 -------------------------------------------------------------------
 Cartesian Forces:  Max     0.010773806 RMS     0.004289570

 GradGradGradGradGradGradGradGradGradGradGradGradGradGradGradGradGradGrad
 Berny optimization.
 Internal  Forces:  Max     0.007871065 RMS     0.004350226
 Search for a saddle point.
 Step number   2 out of a maximum of   20
 All quantities printed in internal units (Hartrees-Bohrs-Radians)
 Swaping is turned off.
 Update second derivatives using D2CorX and points    1    2
 The second derivative matrix:
                          R1        R2        R3        R4        A1
           R1           0.49256
           R2           0.14935   0.27382
           R3          -0.09567   0.14396  -0.02751
           R4          -0.01452   0.01099  -0.01014   0.52119
           A1           0.07764  -0.01095   0.01964   0.00162   0.20192
           A2           0.02710  -0.00302   0.02694   0.00085   0.00651
           A3          -0.01736   0.01846  -0.00662   0.00640   0.00829
           D1           0.00121   0.00166   0.00438   0.00063   0.00061
           D2           0.01126   0.00195   0.00834   0.00125  -0.01004
                          A2        A3        D1        D2
           A2           0.03268
           A3           0.00042   0.05629
           D1           0.00191  -0.00101   0.00043
           D2           0.00150  -0.00367  -0.00087   0.00300
 ITU=  0  0
     Eigenvalues ---   -0.13434  -0.00009   0.00276   0.03695   0.05691
     Eigenvalues ---    0.19035   0.29836   0.52110   0.58238
 Eigenvectors required to have negative eigenvalues:
                          R3        R2        R1        A2        A1
   1                    0.84573  -0.39944   0.25154  -0.17917  -0.12155
                          A3        D2        R4        D1
   1                    0.09431  -0.07106   0.02512  -0.02163
 RFO step:  Lambda0=8.770285627D-05 Lambda=-3.22834600D-03.
 Linear search not attempted -- option 19 set.
 Iteration  1 RMS(Cart)=  0.12645249 RMS(Int)=  0.19531280
 Iteration  2 RMS(Cart)=  0.13145336 RMS(Int)=  0.11133259
 Iteration  3 RMS(Cart)=  0.08772901 RMS(Int)=  0.04161028
 Iteration  4 RMS(Cart)=  0.03850524 RMS(Int)=  0.00183949
 Iteration  5 RMS(Cart)=  0.00215778 RMS(Int)=  0.00000273
 Iteration  6 RMS(Cart)=  0.00000346 RMS(Int)=  0.00000000
 Iteration  7 RMS(Cart)=  0.00000000 RMS(Int)=  0.00000000
 Variable       Old X    -DE/DX   Delta X   Delta X   Delta X     New X
                                 (Linear)    (Quad)   (Total)
    R1        2.43280   0.00546   0.00000   0.00014   0.00014   2.43294
    R2        1.88827   0.00597   0.00000   0.04696   0.04696   1.93523
    R3        2.95418   0.00487   0.00000  -0.02458  -0.02458   2.92960
    R4        1.83667   0.00046   0.00000   0.00224   0.00224   1.83891
    A1        1.86239  -0.00787   0.00000  -0.05603  -0.05603   1.80636
    A2        2.69435   0.00326   0.00000   0.18039   0.18039   2.87475
    A3        1.87640  -0.00194   0.00000  -0.08351  -0.08351   1.79289
    D1        1.14617  -0.00179   0.00000  -0.69555  -0.69555   0.45062
    D2       -0.29772  -0.00120   0.00000  -0.45383  -0.45383  -0.75156
         Item               Value     Threshold  Converged?
 Maximum Force            0.007871     0.000450     NO 
 RMS     Force            0.004350     0.000300     NO 
 Maximum Displacement     0.472709     0.001800     NO 
 RMS     Displacement     0.356612     0.001200     NO 
 Predicted change in Energy=-2.756020D-03
 GradGradGradGradGradGradGradGradGradGradGradGradGradGradGradGradGradGrad

                          Input orientation:                          
 ---------------------------------------------------------------------
 Center     Atomic      Atomic             Coordinates (Angstroms)
 Number     Number       Type             X           Y           Z
 ---------------------------------------------------------------------
      1          8           0        0.728558    0.483456   -0.447338
      2          8           0        1.143543   -0.364776    0.427779
      3          1           0       -0.290428    0.445344   -0.352704
      4          8           0       -1.737788    0.266363    0.173108
      5          1           0       -1.684685   -0.570829    0.666292
 ---------------------------------------------------------------------
                    Distance matrix (angstroms):
                    1          2          3          4          5
     1  O    0.000000
     2  O    1.287455   0.000000
     3  H    1.024080   1.822559   0.000000
     4  O    2.552439   2.960618   1.550278   0.000000
     5  H    2.859271   2.845737   2.003725   0.973109   0.000000
 Stoichiometry    H2O3(3)
 Framework group  C1[X(H2O3)]
 Deg. of freedom     9
 Full point group                 C1      NOp   1
 Largest Abelian subgroup         C1      NOp   1
 Largest concise Abelian subgroup C1      NOp   1
                         Standard orientation:                         
 ---------------------------------------------------------------------
 Center     Atomic      Atomic             Coordinates (Angstroms)
 Number     Number       Type             X           Y           Z
 ---------------------------------------------------------------------
      1          8           0        0.753475   -0.638697    0.016075
      2          8           0        1.194640    0.570306   -0.018959
      3          1           0       -0.262361   -0.520965    0.070462
      4          8           0       -1.713373    0.014870   -0.033493
      5          1           0       -1.615581    0.949130    0.220548
 ---------------------------------------------------------------------
 Rotational constants (GHZ):     39.0002062      6.1933493      5.3531980
 Standard basis: 6-311+G(2df,2p) (5D, 7F)
 There are   120 symmetry adapted basis functions of A   symmetry.
 Integral buffers will be    131072 words long.
 Raffenetti 2 integral format.
 Two-electron integral symmetry is turned on.
   120 basis functions,   178 primitive gaussians,   135 cartesian basis functions
    14 alpha electrons       12 beta electrons
       nuclear repulsion energy        67.7836866023 Hartrees.
 NAtoms=    5 NActive=    5 NUniq=    5 SFac= 1.00D+00 NAtFMM=   50 NAOKFM=F Big=F
 One-electron integrals computed using PRISM.
 NBasis=   120 RedAO= T  NBF=   120
 NBsUse=   120 1.00D-06 NBFU=   120
 Initial guess read from the read-write file.
 B after Tr=     0.000000    0.000000    0.000000
         Rot=    1.000000    0.000000    0.000000    0.000000 Ang=   0.00 deg.
 Initial guess orbital symmetries:
 Alpha Orbitals:
       Occupied  (A) (A) (A) (A) (A) (A) (A) (A) (A) (A) (A) (A)
                 (A) (A)
       Virtual   (A) (A) (A) (A) (A) (A) (A) (A) (A) (A) (A) (A)
                 (A) (A) (A) (A) (A) (A) (A) (A) (A) (A) (A) (A)
                 (A) (A) (A) (A) (A) (A) (A) (A) (A) (A) (A) (A)
                 (A) (A) (A) (A) (A) (A) (A) (A) (A) (A) (A) (A)
                 (A) (A) (A) (A) (A) (A) (A) (A) (A) (A) (A) (A)
                 (A) (A) (A) (A) (A) (A) (A) (A) (A) (A) (A) (A)
                 (A) (A) (A) (A) (A) (A) (A) (A) (A) (A) (A) (A)
                 (A) (A) (A) (A) (A) (A) (A) (A) (A) (A) (A) (A)
                 (A) (A) (A) (A) (A) (A) (A) (A) (A) (A)
 Beta  Orbitals:
       Occupied  (A) (A) (A) (A) (A) (A) (A) (A) (A) (A) (A) (A)
       Virtual   (A) (A) (A) (A) (A) (A) (A) (A) (A) (A) (A) (A)
                 (A) (A) (A) (A) (A) (A) (A) (A) (A) (A) (A) (A)
                 (A) (A) (A) (A) (A) (A) (A) (A) (A) (A) (A) (A)
                 (A) (A) (A) (A) (A) (A) (A) (A) (A) (A) (A) (A)
                 (A) (A) (A) (A) (A) (A) (A) (A) (A) (A) (A) (A)
                 (A) (A) (A) (A) (A) (A) (A) (A) (A) (A) (A) (A)
                 (A) (A) (A) (A) (A) (A) (A) (A) (A) (A) (A) (A)
                 (A) (A) (A) (A) (A) (A) (A) (A) (A) (A) (A) (A)
                 (A) (A) (A) (A) (A) (A) (A) (A) (A) (A) (A) (A)
 Initial guess <Sx>= 0.0000 <Sy>= 0.0000 <Sz>= 1.0000 <S**2>= 2.0147 S= 1.0049
 Harris functional with IExCor= 1009 diagonalized for initial guess.
 ExpMin= 8.45D-02 ExpMax= 8.59D+03 ExpMxC= 1.30D+03 IAcc=2 IRadAn=         0 AccDes= 0.00D+00
 HarFok:  IExCor= 1009 AccDes= 0.00D+00 IRadAn=         0 IDoV= 1
 ScaDFX=  1.000000  1.000000  1.000000  1.000000
 FoFCou: FMM=F IPFlag=           0 FMFlag=      100000 FMFlg1=           0
         NFxFlg=           0 DoJE=T BraDBF=F KetDBF=T FulRan=T
         Omega=  0.000000  0.000000  1.000000  0.000000  0.000000 ICntrl=     500 IOpCl=  0
         NMat0=    1 NMatS0=    1 NMatT0=    0 NMatD0=    1 NMtDS0=    0 NMtDT0=    0
         I1Cent=           4 NGrid=           0.
 Petite list used in FoFCou.
 Requested convergence on RMS density matrix=1.00D-08 within 128 cycles.
 Requested convergence on MAX density matrix=1.00D-06.
 Requested convergence on             energy=1.00D-06.
 No special actions if energy rises.
 Keep R1 and R2 ints in memory in canonical form, NReq=86340378.
 Integral accuracy reduced to 1.0D-05 until final iterations.
 Initial convergence to 1.0D-05 achieved.  Increase integral accuracy.
 Rare condition: small coef for last iteration:  0.000D+00
 Rare condition: small coef for last iteration:  0.000D+00
 Rare condition: small coef for last iteration:  0.000D+00
 Rare condition: small coef for last iteration:  0.000D+00
 Rare condition: small coef for last iteration:  0.000D+00
 Rare condition: small coef for last iteration:  0.000D+00
 Rare condition: small coef for last iteration:  0.000D+00
 SCF Done:  E(UM062X) =  -226.632677121     A.U. after   51 cycles
             Convg  =    0.6009D-08             -V/T =  2.0025
 <Sx>= 0.0000 <Sy>= 0.0000 <Sz>= 1.0000 <S**2>= 2.0158 S= 1.0052
 <L.S>= 0.000000000000E+00
 Annihilation of the first spin contaminant:
 S**2 before annihilation     2.0158,   after     2.0001
 Calling FoFJK, ICntrl=      2127 FMM=F ISym2X=0 I1Cent= 0 IOpClX= 1 NMat=1 NMatS=1 NMatT=0.
 ***** Axes restored to original set *****
 -------------------------------------------------------------------
 Center     Atomic                   Forces (Hartrees/Bohr)
 Number     Number              X              Y              Z
 -------------------------------------------------------------------
      1        8          -0.014639092   -0.009997192    0.009158770
      2        8           0.008748852    0.000962233   -0.001760199
      3        1           0.002760155    0.009454376   -0.005351905
      4        8           0.003160748   -0.001571415   -0.002018045
      5        1          -0.000030663    0.001151998   -0.000028619
 -------------------------------------------------------------------
 Cartesian Forces:  Max     0.014639092 RMS     0.006440518

 GradGradGradGradGradGradGradGradGradGradGradGradGradGradGradGradGradGrad
 Berny optimization.
 Internal  Forces:  Max     0.021677935 RMS     0.007720398
 Search for a saddle point.
 Step number   3 out of a maximum of   20
 All quantities printed in internal units (Hartrees-Bohrs-Radians)
 Swaping is turned off.
 Update second derivatives using D2CorX and points    2    3
 The second derivative matrix:
                          R1        R2        R3        R4        A1
           R1           0.49257
           R2           0.14922   0.27516
           R3          -0.09567   0.14422  -0.02761
           R4          -0.01454   0.01115  -0.01012   0.52121
           A1           0.07793  -0.01435   0.01927   0.00125   0.21002
           A2           0.02688  -0.00160   0.02780   0.00107   0.00181
           A3          -0.01725   0.01766  -0.00703   0.00628   0.01078
           D1           0.00213  -0.00477   0.00102  -0.00032   0.02087
           D2           0.01186  -0.00236   0.00614   0.00061   0.00343
                          A2        A3        D1        D2
           A2           0.03189
           A3           0.00055   0.05634
           D1           0.00336  -0.00071   0.00153
           D2           0.00226  -0.00338   0.00064   0.00451
 ITU=  0  0  0
     Eigenvalues ---   -0.13454  -0.00091   0.00409   0.03683   0.05685
     Eigenvalues ---    0.19802   0.30176   0.52112   0.58238
 Eigenvectors required to have negative eigenvalues:
                          R3        R2        R1        A2        A1
   1                    0.84565  -0.39945   0.25148  -0.18408  -0.12237
                          A3        D2        R4        D1
   1                    0.09641  -0.05733   0.02508  -0.00014
 RFO step:  Lambda0=6.948045815D-05 Lambda=-3.68164228D-03.
 Linear search not attempted -- option 19 set.
 Iteration  1 RMS(Cart)=  0.13100664 RMS(Int)=  0.26158737
 Iteration  2 RMS(Cart)=  0.07932838 RMS(Int)=  0.19320765
 Iteration  3 RMS(Cart)=  0.06767637 RMS(Int)=  0.12633507
 Iteration  4 RMS(Cart)=  0.06486906 RMS(Int)=  0.05968998
 Iteration  5 RMS(Cart)=  0.05955925 RMS(Int)=  0.00364489
 Iteration  6 RMS(Cart)=  0.00343264 RMS(Int)=  0.00000610
 Iteration  7 RMS(Cart)=  0.00000918 RMS(Int)=  0.00000000
 Iteration  8 RMS(Cart)=  0.00000000 RMS(Int)=  0.00000000
 Variable       Old X    -DE/DX   Delta X   Delta X   Delta X     New X
                                 (Linear)    (Quad)   (Total)
    R1        2.43294   0.00100   0.00000  -0.00303  -0.00303   2.42991
    R2        1.93523  -0.00688   0.00000  -0.05568  -0.05568   1.87955
    R3        2.92960  -0.00357   0.00000   0.05317   0.05317   2.98277
    R4        1.83891  -0.00102   0.00000  -0.00088  -0.00088   1.83803
    A1        1.80636   0.02168   0.00000   0.18971   0.18971   1.99608
    A2        2.87475   0.00176   0.00000   0.09006   0.09006   2.96481
    A3        1.79289   0.00023   0.00000  -0.01885  -0.01885   1.77404
    D1        0.45062   0.00032   0.00000  -0.98101  -0.98101  -0.53039
    D2       -0.75156   0.00105   0.00000   0.03888   0.03888  -0.71267
         Item               Value     Threshold  Converged?
 Maximum Force            0.021678     0.000450     NO 
 RMS     Force            0.007720     0.000300     NO 
 Maximum Displacement     0.547322     0.001800     NO 
 RMS     Displacement     0.371092     0.001200     NO 
 Predicted change in Energy=-3.551458D-03
 GradGradGradGradGradGradGradGradGradGradGradGradGradGradGradGradGradGrad

                          Input orientation:                          
 ---------------------------------------------------------------------
 Center     Atomic      Atomic             Coordinates (Angstroms)
 Number     Number       Type             X           Y           Z
 ---------------------------------------------------------------------
      1          8           0        0.665657    0.263869   -0.511919
      2          8           0        1.433173   -0.154923    0.430922
      3          1           0       -0.285133    0.382240   -0.244998
      4          8           0       -1.744176    0.361706    0.356800
      5          1           0       -1.910321   -0.593335    0.436334
 ---------------------------------------------------------------------
                    Distance matrix (angstroms):
                    1          2          3          4          5
     1  O    0.000000
     2  O    1.285853   0.000000
     3  H    0.994615   1.923015   0.000000
     4  O    2.563501   3.219930   1.578413   0.000000
     5  H    2.875699   3.372119   2.014248   0.972642   0.000000
 Stoichiometry    H2O3(3)
 Framework group  C1[X(H2O3)]
 Deg. of freedom     9
 Full point group                 C1      NOp   1
 Largest Abelian subgroup         C1      NOp   1
 Largest concise Abelian subgroup C1      NOp   1
                         Standard orientation:                         
 ---------------------------------------------------------------------
 Center     Atomic      Atomic             Coordinates (Angstroms)
 Number     Number       Type             X           Y           Z
 ---------------------------------------------------------------------
      1          8           0       -0.671630    0.581771    0.049604
      2          8           0       -1.398693   -0.475592   -0.032756
      3          1           0        0.303965    0.418002   -0.053614
      4          8           0        1.797337   -0.090588   -0.104262
      5          1           0        1.879932   -0.542734    0.752928
 ---------------------------------------------------------------------
 Rotational constants (GHZ):     48.5967056      5.3467791      4.8868044
 Standard basis: 6-311+G(2df,2p) (5D, 7F)
 There are   120 symmetry adapted basis functions of A   symmetry.
 Integral buffers will be    131072 words long.
 Raffenetti 2 integral format.
 Two-electron integral symmetry is turned on.
   120 basis functions,   178 primitive gaussians,   135 cartesian basis functions
    14 alpha electrons       12 beta electrons
       nuclear repulsion energy        66.5504423481 Hartrees.
 NAtoms=    5 NActive=    5 NUniq=    5 SFac= 1.00D+00 NAtFMM=   50 NAOKFM=F Big=F
 One-electron integrals computed using PRISM.
 NBasis=   120 RedAO= T  NBF=   120
 NBsUse=   120 1.00D-06 NBFU=   120
 Initial guess read from the read-write file.
 B after Tr=     0.000000    0.000000    0.000000
         Rot=    1.000000    0.000000    0.000000    0.000000 Ang=   0.00 deg.
 Initial guess orbital symmetries:
 Alpha Orbitals:
       Occupied  (A) (A) (A) (A) (A) (A) (A) (A) (A) (A) (A) (A)
                 (A) (A)
       Virtual   (A) (A) (A) (A) (A) (A) (A) (A) (A) (A) (A) (A)
                 (A) (A) (A) (A) (A) (A) (A) (A) (A) (A) (A) (A)
                 (A) (A) (A) (A) (A) (A) (A) (A) (A) (A) (A) (A)
                 (A) (A) (A) (A) (A) (A) (A) (A) (A) (A) (A) (A)
                 (A) (A) (A) (A) (A) (A) (A) (A) (A) (A) (A) (A)
                 (A) (A) (A) (A) (A) (A) (A) (A) (A) (A) (A) (A)
                 (A) (A) (A) (A) (A) (A) (A) (A) (A) (A) (A) (A)
                 (A) (A) (A) (A) (A) (A) (A) (A) (A) (A) (A) (A)
                 (A) (A) (A) (A) (A) (A) (A) (A) (A) (A)
 Beta  Orbitals:
       Occupied  (A) (A) (A) (A) (A) (A) (A) (A) (A) (A) (A) (A)
       Virtual   (A) (A) (A) (A) (A) (A) (A) (A) (A) (A) (A) (A)
                 (A) (A) (A) (A) (A) (A) (A) (A) (A) (A) (A) (A)
                 (A) (A) (A) (A) (A) (A) (A) (A) (A) (A) (A) (A)
                 (A) (A) (A) (A) (A) (A) (A) (A) (A) (A) (A) (A)
                 (A) (A) (A) (A) (A) (A) (A) (A) (A) (A) (A) (A)
                 (A) (A) (A) (A) (A) (A) (A) (A) (A) (A) (A) (A)
                 (A) (A) (A) (A) (A) (A) (A) (A) (A) (A) (A) (A)
                 (A) (A) (A) (A) (A) (A) (A) (A) (A) (A) (A) (A)
                 (A) (A) (A) (A) (A) (A) (A) (A) (A) (A) (A) (A)
 Initial guess <Sx>= 0.0000 <Sy>= 0.0000 <Sz>= 1.0000 <S**2>= 2.0371 S= 1.0123
 Harris functional with IExCor= 1009 diagonalized for initial guess.
 ExpMin= 8.45D-02 ExpMax= 8.59D+03 ExpMxC= 1.30D+03 IAcc=2 IRadAn=         0 AccDes= 0.00D+00
 HarFok:  IExCor= 1009 AccDes= 0.00D+00 IRadAn=         0 IDoV= 1
 ScaDFX=  1.000000  1.000000  1.000000  1.000000
 FoFCou: FMM=F IPFlag=           0 FMFlag=      100000 FMFlg1=           0
         NFxFlg=           0 DoJE=T BraDBF=F KetDBF=T FulRan=T
         Omega=  0.000000  0.000000  1.000000  0.000000  0.000000 ICntrl=     500 IOpCl=  0
         NMat0=    1 NMatS0=    1 NMatT0=    0 NMatD0=    1 NMtDS0=    0 NMtDT0=    0
         I1Cent=           4 NGrid=           0.
 Petite list used in FoFCou.
 Requested convergence on RMS density matrix=1.00D-08 within 128 cycles.
 Requested convergence on MAX density matrix=1.00D-06.
 Requested convergence on             energy=1.00D-06.
 No special actions if energy rises.
 Keep R1 and R2 ints in memory in canonical form, NReq=86340670.
 Integral accuracy reduced to 1.0D-05 until final iterations.
 Initial convergence to 1.0D-05 achieved.  Increase integral accuracy.
 >>>>>>>>>> Convergence criterion not met.
 SCF Done:  E(UM062X) =  -226.631737448     A.U. after  129 cycles
             Convg  =    0.1082D-03             -V/T =  2.0024
 <Sx>= 0.0000 <Sy>= 0.0000 <Sz>= 1.0000 <S**2>= 2.0160 S= 1.0053
 <L.S>= 0.000000000000E+00
 Annihilation of the first spin contaminant:
 S**2 before annihilation     2.0160,   after     2.0001
 Convergence failure -- run terminated.
 Error termination via Lnk1e in /shared/apps/gaussian/G09_LINUX_LINDA/g09/l502.exe at Mon Jul 31 10:19:12 2017.
 Job cpu time:  0 days  2 hours 22 minutes 22.1 seconds.
 File lengths (MBytes):  RWF=   1376 Int=      0 D2E=      0 Chk=     32 Scr=     32
