 Entering Gaussian System, Link 0=/shared/apps/gaussian/G09_LINUX_LINDA/g09/g09
 Input=/gss_gpfs_scratch/harms.n/QMscratch/[OH]+[O]C1C=CC=CC=1_OC1C=CC=CC=1+[O]Est.gjf
 Output=/gss_gpfs_scratch/harms.n/QMscratch/[OH]+[O]C1C=CC=CC=1_OC1C=CC=CC=1+[O]Est.log
 Initial command:
 /shared/apps/gaussian/G09_LINUX_LINDA/g09/l1.exe /gss_gpfs_scratch/harms.n/comparerTST/Gau-34812.inp -scrdir=/gss_gpfs_scratch/harms.n/comparerTST/
 Entering Link 1 = /shared/apps/gaussian/G09_LINUX_LINDA/g09/l1.exe PID=     34813.
  
 Copyright (c) 1988,1990,1992,1993,1995,1998,2003,2009,2010,
            Gaussian, Inc.  All Rights Reserved.
  
 This is part of the Gaussian(R) 09 program.  It is based on
 the Gaussian(R) 03 system (copyright 2003, Gaussian, Inc.),
 the Gaussian(R) 98 system (copyright 1998, Gaussian, Inc.),
 the Gaussian(R) 94 system (copyright 1995, Gaussian, Inc.),
 the Gaussian 92(TM) system (copyright 1992, Gaussian, Inc.),
 the Gaussian 90(TM) system (copyright 1990, Gaussian, Inc.),
 the Gaussian 88(TM) system (copyright 1988, Gaussian, Inc.),
 the Gaussian 86(TM) system (copyright 1986, Carnegie Mellon
 University), and the Gaussian 82(TM) system (copyright 1983,
 Carnegie Mellon University). Gaussian is a federally registered
 trademark of Gaussian, Inc.
  
 This software contains proprietary and confidential information,
 including trade secrets, belonging to Gaussian, Inc.
  
 This software is provided under written license and may be
 used, copied, transmitted, or stored only in accord with that
 written license.
  
 The following legend is applicable only to US Government
 contracts under FAR:
  
                    RESTRICTED RIGHTS LEGEND
  
 Use, reproduction and disclosure by the US Government is
 subject to restrictions as set forth in subparagraphs (a)
 and (c) of the Commercial Computer Software - Restricted
 Rights clause in FAR 52.227-19.
  
 Gaussian, Inc.
 340 Quinnipiac St., Bldg. 40, Wallingford CT 06492
  
  
 ---------------------------------------------------------------
 Warning -- This program may not be used in any manner that
 competes with the business of Gaussian, Inc. or will provide
 assistance to any competitor of Gaussian, Inc.  The licensee
 of this program is prohibited from giving any competitor of
 Gaussian, Inc. access to this program.  By using this program,
 the user acknowledges that Gaussian, Inc. is engaged in the
 business of creating and licensing software in the field of
 computational chemistry and represents and warrants to the
 licensee that it is not a competitor of Gaussian, Inc. and that
 it will not use this program in any manner prohibited above.
 ---------------------------------------------------------------
  

 Cite this work as:
 Gaussian 09, Revision B.01,
 M. J. Frisch, G. W. Trucks, H. B. Schlegel, G. E. Scuseria, 
 M. A. Robb, J. R. Cheeseman, G. Scalmani, V. Barone, B. Mennucci, 
 G. A. Petersson, H. Nakatsuji, M. Caricato, X. Li, H. P. Hratchian, 
 A. F. Izmaylov, J. Bloino, G. Zheng, J. L. Sonnenberg, M. Hada, 
 M. Ehara, K. Toyota, R. Fukuda, J. Hasegawa, M. Ishida, T. Nakajima, 
 Y. Honda, O. Kitao, H. Nakai, T. Vreven, J. A. Montgomery, Jr., 
 J. E. Peralta, F. Ogliaro, M. Bearpark, J. J. Heyd, E. Brothers, 
 K. N. Kudin, V. N. Staroverov, T. Keith, R. Kobayashi, J. Normand, 
 K. Raghavachari, A. Rendell, J. C. Burant, S. S. Iyengar, J. Tomasi, 
 M. Cossi, N. Rega, J. M. Millam, M. Klene, J. E. Knox, J. B. Cross, 
 V. Bakken, C. Adamo, J. Jaramillo, R. Gomperts, R. E. Stratmann, 
 O. Yazyev, A. J. Austin, R. Cammi, C. Pomelli, J. W. Ochterski, 
 R. L. Martin, K. Morokuma, V. G. Zakrzewski, G. A. Voth, 
 P. Salvador, J. J. Dannenberg, S. Dapprich, A. D. Daniels, 
 O. Farkas, J. B. Foresman, J. V. Ortiz, J. Cioslowski, 
 and D. J. Fox, Gaussian, Inc., Wallingford CT, 2010.
 
 ******************************************
 Gaussian 09:  EM64L-G09RevB.01 12-Aug-2010
                20-Aug-2017 
 ******************************************
 %nprocshared=20
 Will use up to   20 processors via shared memory.
 %mem=5GB
 ----------------------------------------------------------
 # m062x/6-311+g(2df,2p) Opt=(ModRedun,Loose) Int(Grid=SG1)
 ----------------------------------------------------------
 1/7=-1,14=-1,18=120,19=15,26=2,38=1/1,3;
 2/9=110,12=2,17=6,18=5,40=1/2;
 3/5=4,6=6,7=214,11=2,16=1,25=1,30=1,71=1,74=-55,75=1/1,2,3;
 4//1;
 5/5=2,38=5/2;
 6/7=2,8=2,9=2,10=2,28=1/1;
 7//1,2,3,16;
 1/7=-1,14=-1,18=20,19=15/3(2);
 2/9=110/2;
 99//99;
 2/9=110/2;
 3/5=4,6=6,7=214,11=2,16=1,25=1,30=1,71=1,74=-55,75=1/1,2,3;
 4/5=5,16=3/1;
 5/5=2,38=5/2;
 7//1,2,3,16;
 1/7=-1,14=-1,18=20,19=15/3(-5);
 2/9=110/2;
 6/7=2,8=2,9=2,10=2,19=2,28=1/1;
 99/9=1/99;
 ------------------------------------
 [OH]+[O]C1C=CC=CC=1_OC1C=CC=CC=1+[O]
 ------------------------------------
 Symbolic Z-matrix:
 Charge =  0 Multiplicity = 3
 O                     4.0723    0.3053    0.421 
 H                     2.981     0.0822   -0.0156 
 C                     0.621     0.1833   -0.6629 
 C                    -0.1405    1.2487   -0.2015 
 C                    -1.384     1.0155    0.3672 
 C                    -1.8026   -0.2716    0.6797 
 C                    -1.1983   -1.2876   -0.0505 
 C                    -0.0113   -1.0492   -0.7309 
 O                     2.015     0.27     -0.6017 
 H                     0.2614    2.2628   -0.2117 
 H                    -2.0269    1.8279    0.6977 
 H                    -2.2735   -0.4992    1.6349 
 H                    -1.5966   -2.2821   -0.0135 
 H                     0.4831   -1.8059   -1.3122 
 
 The following ModRedundant input section has been read:
 B       1       2 F                                                           
 B       1       9 F                                                           
 B       2       9 F                                                           

 GradGradGradGradGradGradGradGradGradGradGradGradGradGradGradGradGradGrad
 Berny optimization.
 Initialization pass.
                           ----------------------------
                           !    Initial Parameters    !
                           ! (Angstroms and Degrees)  !
 --------------------------                            --------------------------
 ! Name  Definition              Value          Derivative Info.                !
 --------------------------------------------------------------------------------
 ! R1    R(1,2)                  1.1964         Frozen                          !
 ! R2    R(1,9)                  2.2977         Frozen                          !
 ! R3    R(2,9)                  1.1454         Frozen                          !
 ! R4    R(3,4)                  1.3885         estimate D2E/DX2                !
 ! R5    R(3,8)                  1.3869         estimate D2E/DX2                !
 ! R6    R(3,9)                  1.398          estimate D2E/DX2                !
 ! R7    R(4,5)                  1.3871         estimate D2E/DX2                !
 ! R8    R(4,10)                 1.0909         estimate D2E/DX2                !
 ! R9    R(5,6)                  1.3891         estimate D2E/DX2                !
 ! R10   R(5,11)                 1.0874         estimate D2E/DX2                !
 ! R11   R(6,7)                  1.3895         estimate D2E/DX2                !
 ! R12   R(6,12)                 1.089          estimate D2E/DX2                !
 ! R13   R(7,8)                  1.3888         estimate D2E/DX2                !
 ! R14   R(7,13)                 1.0719         estimate D2E/DX2                !
 ! R15   R(8,14)                 1.0747         estimate D2E/DX2                !
 ! A1    A(1,2,9)              157.7378         estimate D2E/DX2                !
 ! A2    A(4,3,8)              116.625          estimate D2E/DX2                !
 ! A3    A(4,3,9)              118.9948         estimate D2E/DX2                !
 ! A4    A(8,3,9)              120.7873         estimate D2E/DX2                !
 ! A5    A(3,4,5)              119.9274         estimate D2E/DX2                !
 ! A6    A(3,4,10)             120.5405         estimate D2E/DX2                !
 ! A7    A(5,4,10)             119.3663         estimate D2E/DX2                !
 ! A8    A(4,5,6)              121.2092         estimate D2E/DX2                !
 ! A9    A(4,5,11)             121.9378         estimate D2E/DX2                !
 ! A10   A(6,5,11)             116.4679         estimate D2E/DX2                !
 ! A11   A(5,6,7)              115.3564         estimate D2E/DX2                !
 ! A12   A(5,6,12)             121.4188         estimate D2E/DX2                !
 ! A13   A(7,6,12)             119.7482         estimate D2E/DX2                !
 ! A14   A(6,7,8)              120.2428         estimate D2E/DX2                !
 ! A15   A(6,7,13)             119.9108         estimate D2E/DX2                !
 ! A16   A(8,7,13)             119.5875         estimate D2E/DX2                !
 ! A17   A(3,8,7)              121.2112         estimate D2E/DX2                !
 ! A18   A(3,8,14)             116.2643         estimate D2E/DX2                !
 ! A19   A(7,8,14)             122.5022         estimate D2E/DX2                !
 ! A20   A(2,9,3)              148.5585         estimate D2E/DX2                !
 ! D1    D(1,2,9,3)           -138.2781         estimate D2E/DX2                !
 ! D2    D(8,3,4,5)             10.5782         estimate D2E/DX2                !
 ! D3    D(8,3,4,10)          -174.1312         estimate D2E/DX2                !
 ! D4    D(9,3,4,5)           -148.2394         estimate D2E/DX2                !
 ! D5    D(9,3,4,10)            27.0512         estimate D2E/DX2                !
 ! D6    D(4,3,8,7)            -16.7656         estimate D2E/DX2                !
 ! D7    D(4,3,8,14)           164.9105         estimate D2E/DX2                !
 ! D8    D(9,3,8,7)            141.6486         estimate D2E/DX2                !
 ! D9    D(9,3,8,14)           -36.6754         estimate D2E/DX2                !
 ! D10   D(4,3,9,2)             90.597          estimate D2E/DX2                !
 ! D11   D(8,3,9,2)            -67.3161         estimate D2E/DX2                !
 ! D12   D(3,4,5,6)             10.2219         estimate D2E/DX2                !
 ! D13   D(3,4,5,11)          -177.1551         estimate D2E/DX2                !
 ! D14   D(10,4,5,6)          -165.124          estimate D2E/DX2                !
 ! D15   D(10,4,5,11)            7.4989         estimate D2E/DX2                !
 ! D16   D(4,5,6,7)            -24.3171         estimate D2E/DX2                !
 ! D17   D(4,5,6,12)           134.576          estimate D2E/DX2                !
 ! D18   D(11,5,6,7)           162.6743         estimate D2E/DX2                !
 ! D19   D(11,5,6,12)          -38.4326         estimate D2E/DX2                !
 ! D20   D(5,6,7,8)             17.9825         estimate D2E/DX2                !
 ! D21   D(5,6,7,13)          -167.8852         estimate D2E/DX2                !
 ! D22   D(12,6,7,8)          -141.288          estimate D2E/DX2                !
 ! D23   D(12,6,7,13)           32.8443         estimate D2E/DX2                !
 ! D24   D(6,7,8,3)              2.2453         estimate D2E/DX2                !
 ! D25   D(6,7,8,14)          -179.5369         estimate D2E/DX2                !
 ! D26   D(13,7,8,3)          -171.9059         estimate D2E/DX2                !
 ! D27   D(13,7,8,14)            6.3119         estimate D2E/DX2                !
 --------------------------------------------------------------------------------
 Trust Radius=3.00D-01 FncErr=1.00D-05 GrdErr=1.00D-04
 Number of steps in this run=     72 maximum allowed number of steps=    100.
 GradGradGradGradGradGradGradGradGradGradGradGradGradGradGradGradGradGrad

                          Input orientation:                          
 ---------------------------------------------------------------------
 Center     Atomic      Atomic             Coordinates (Angstroms)
 Number     Number       Type             X           Y           Z
 ---------------------------------------------------------------------
      1          8           0        4.072300    0.305300    0.421000
      2          1           0        2.981000    0.082200   -0.015600
      3          6           0        0.621000    0.183300   -0.662900
      4          6           0       -0.140500    1.248700   -0.201500
      5          6           0       -1.384000    1.015500    0.367200
      6          6           0       -1.802600   -0.271600    0.679700
      7          6           0       -1.198300   -1.287600   -0.050500
      8          6           0       -0.011300   -1.049200   -0.730900
      9          8           0        2.015000    0.270000   -0.601700
     10          1           0        0.261400    2.262800   -0.211700
     11          1           0       -2.026900    1.827900    0.697700
     12          1           0       -2.273500   -0.499200    1.634900
     13          1           0       -1.596600   -2.282100   -0.013500
     14          1           0        0.483100   -1.805900   -1.312200
 ---------------------------------------------------------------------
                    Distance matrix (angstroms):
                    1          2          3          4          5
     1  O    0.000000
     2  H    1.196382   0.000000
     3  C    3.619557   2.449249   0.000000
     4  C    4.361788   3.337521   1.388470   0.000000
     5  C    5.502589   4.480046   2.402850   1.387117   0.000000
     6  C    5.908823   4.846797   2.807730   2.418760   1.389068
     7  C    5.526198   4.398195   2.418353   2.752192   2.348026
     8  C    4.453912   3.278045   1.386897   2.361631   2.711663
     9  O    2.297748   1.145399   1.398034   2.400874   3.612165
    10  H    4.330713   3.491374   2.158058   1.090883   2.144347
    11  H    6.292465   5.351199   3.401076   2.168534   1.087449
    12  H    6.510757   5.538226   3.758167   3.313187   2.166239
    13  H    6.246588   5.152120   3.379004   3.823888   3.326304
    14  H    4.510377   3.389041   2.097027   3.309549   3.777134
                    6          7          8          9         10
     6  C    0.000000
     7  C    1.389470   0.000000
     8  C    2.408985   1.388794   0.000000
     9  O    4.063174   3.613203   2.421337   0.000000
    10  H    3.387901   3.842141   3.363522   2.682995   0.000000
    11  H    2.111524   3.309490   3.792261   4.522438   2.500493
    12  H    1.089016   2.149000   3.319195   4.897477   4.179030
    13  H    2.136603   1.071934   2.132576   4.461261   4.914017
    14  H    3.397965   2.165093   1.074679   2.675984   4.220731
                   11         12         13         14
    11  H    0.000000
    12  H    2.520823   0.000000
    13  H    4.193216   2.520744   0.000000
    14  H    4.852247   4.241663   2.497707   0.000000
 Stoichiometry    C6H6O2(3)
 Framework group  C1[X(C6H6O2)]
 Deg. of freedom    36
 Full point group                 C1      NOp   1
 Largest Abelian subgroup         C1      NOp   1
 Largest concise Abelian subgroup C1      NOp   1
                         Standard orientation:                         
 ---------------------------------------------------------------------
 Center     Atomic      Atomic             Coordinates (Angstroms)
 Number     Number       Type             X           Y           Z
 ---------------------------------------------------------------------
      1          8           0        3.647017    0.038833    0.715246
      2          1           0        2.565925   -0.181138    0.252447
      3          6           0        0.269202   -0.024458   -0.583814
      4          6           0       -0.407332    1.177103   -0.421324
      5          6           0       -1.698675    1.181213    0.085143
      6          6           0       -2.261210    0.034648    0.631450
      7          6           0       -1.720362   -1.164615    0.184373
      8          6           0       -0.478169   -1.183418   -0.436394
      9          8           0        1.659013   -0.045296   -0.433843
     10          1           0        0.093861    2.126220   -0.616285
     11          1           0       -2.275138    2.098044    0.183412
     12          1           0       -2.806883    0.063447    1.573452
     13          1           0       -2.217567   -2.089100    0.401531
     14          1           0       -0.029160   -2.088612   -0.802386
 ---------------------------------------------------------------------
 Rotational constants (GHZ):      4.4706423      1.1301126      1.0050149
 Standard basis: 6-311+G(2df,2p) (5D, 7F)
 There are   326 symmetry adapted basis functions of A   symmetry.
 Integral buffers will be    131072 words long.
 Raffenetti 2 integral format.
 Two-electron integral symmetry is turned on.
   326 basis functions,   482 primitive gaussians,   366 cartesian basis functions
    30 alpha electrons       28 beta electrons
       nuclear repulsion energy       324.8483641838 Hartrees.
 NAtoms=   14 NActive=   14 NUniq=   14 SFac= 1.00D+00 NAtFMM=   50 NAOKFM=F Big=F
 One-electron integrals computed using PRISM.
 NBasis=   326 RedAO= T  NBF=   326
 NBsUse=   326 1.00D-06 NBFU=   326
 Harris functional with IExCor= 1009 diagonalized for initial guess.
 ExpMin= 4.38D-02 ExpMax= 8.59D+03 ExpMxC= 1.30D+03 IAcc=2 IRadAn=         1 AccDes= 0.00D+00
 HarFok:  IExCor= 1009 AccDes= 0.00D+00 IRadAn=         1 IDoV= 1
 ScaDFX=  1.000000  1.000000  1.000000  1.000000
 FoFCou: FMM=F IPFlag=           0 FMFlag=      100000 FMFlg1=           0
         NFxFlg=           0 DoJE=T BraDBF=F KetDBF=T FulRan=T
         Omega=  0.000000  0.000000  1.000000  0.000000  0.000000 ICntrl=     500 IOpCl=  0
         NMat0=    1 NMatS0=    1 NMatT0=    0 NMatD0=    1 NMtDS0=    0 NMtDT0=    0
         I1Cent=           4 NGrid=           0.
 Petite list used in FoFCou.
 Initial guess orbital symmetries:
 Alpha Orbitals:
       Occupied  (A) (A) (A) (A) (A) (A) (A) (A) (A) (A) (A) (A)
                 (A) (A) (A) (A) (A) (A) (A) (A) (A) (A) (A) (A)
                 (A) (A) (A) (A) (A) (A)
       Virtual   (A) (A) (A) (A) (A) (A) (A) (A) (A) (A) (A) (A)
                 (A) (A) (A) (A) (A) (A) (A) (A) (A) (A) (A) (A)
                 (A) (A) (A) (A) (A) (A) (A) (A) (A) (A) (A) (A)
                 (A) (A) (A) (A) (A) (A) (A) (A) (A) (A) (A) (A)
                 (A) (A) (A) (A) (A) (A) (A) (A) (A) (A) (A) (A)
                 (A) (A) (A) (A) (A) (A) (A) (A) (A) (A) (A) (A)
                 (A) (A) (A) (A) (A) (A) (A) (A) (A) (A) (A) (A)
                 (A) (A) (A) (A) (A) (A) (A) (A) (A) (A) (A) (A)
                 (A) (A) (A) (A) (A) (A) (A) (A) (A) (A) (A) (A)
                 (A) (A) (A) (A) (A) (A) (A) (A) (A) (A) (A) (A)
                 (A) (A) (A) (A) (A) (A) (A) (A) (A) (A) (A) (A)
                 (A) (A) (A) (A) (A) (A) (A) (A) (A) (A) (A) (A)
                 (A) (A) (A) (A) (A) (A) (A) (A) (A) (A) (A) (A)
                 (A) (A) (A) (A) (A) (A) (A) (A) (A) (A) (A) (A)
                 (A) (A) (A) (A) (A) (A) (A) (A) (A) (A) (A) (A)
                 (A) (A) (A) (A) (A) (A) (A) (A) (A) (A) (A) (A)
                 (A) (A) (A) (A) (A) (A) (A) (A) (A) (A) (A) (A)
                 (A) (A) (A) (A) (A) (A) (A) (A) (A) (A) (A) (A)
                 (A) (A) (A) (A) (A) (A) (A) (A) (A) (A) (A) (A)
                 (A) (A) (A) (A) (A) (A) (A) (A) (A) (A) (A) (A)
                 (A) (A) (A) (A) (A) (A) (A) (A) (A) (A) (A) (A)
                 (A) (A) (A) (A) (A) (A) (A) (A) (A) (A) (A) (A)
                 (A) (A) (A) (A) (A) (A) (A) (A) (A) (A) (A) (A)
                 (A) (A) (A) (A) (A) (A) (A) (A) (A) (A) (A) (A)
                 (A) (A) (A) (A) (A) (A) (A) (A)
 Beta  Orbitals:
       Occupied  (A) (A) (A) (A) (A) (A) (A) (A) (A) (A) (A) (A)
                 (A) (A) (A) (A) (A) (A) (A) (A) (A) (A) (A) (A)
                 (A) (A) (A) (A)
       Virtual   (A) (A) (A) (A) (A) (A) (A) (A) (A) (A) (A) (A)
                 (A) (A) (A) (A) (A) (A) (A) (A) (A) (A) (A) (A)
                 (A) (A) (A) (A) (A) (A) (A) (A) (A) (A) (A) (A)
                 (A) (A) (A) (A) (A) (A) (A) (A) (A) (A) (A) (A)
                 (A) (A) (A) (A) (A) (A) (A) (A) (A) (A) (A) (A)
                 (A) (A) (A) (A) (A) (A) (A) (A) (A) (A) (A) (A)
                 (A) (A) (A) (A) (A) (A) (A) (A) (A) (A) (A) (A)
                 (A) (A) (A) (A) (A) (A) (A) (A) (A) (A) (A) (A)
                 (A) (A) (A) (A) (A) (A) (A) (A) (A) (A) (A) (A)
                 (A) (A) (A) (A) (A) (A) (A) (A) (A) (A) (A) (A)
                 (A) (A) (A) (A) (A) (A) (A) (A) (A) (A) (A) (A)
                 (A) (A) (A) (A) (A) (A) (A) (A) (A) (A) (A) (A)
                 (A) (A) (A) (A) (A) (A) (A) (A) (A) (A) (A) (A)
                 (A) (A) (A) (A) (A) (A) (A) (A) (A) (A) (A) (A)
                 (A) (A) (A) (A) (A) (A) (A) (A) (A) (A) (A) (A)
                 (A) (A) (A) (A) (A) (A) (A) (A) (A) (A) (A) (A)
                 (A) (A) (A) (A) (A) (A) (A) (A) (A) (A) (A) (A)
                 (A) (A) (A) (A) (A) (A) (A) (A) (A) (A) (A) (A)
                 (A) (A) (A) (A) (A) (A) (A) (A) (A) (A) (A) (A)
                 (A) (A) (A) (A) (A) (A) (A) (A) (A) (A) (A) (A)
                 (A) (A) (A) (A) (A) (A) (A) (A) (A) (A) (A) (A)
                 (A) (A) (A) (A) (A) (A) (A) (A) (A) (A) (A) (A)
                 (A) (A) (A) (A) (A) (A) (A) (A) (A) (A) (A) (A)
                 (A) (A) (A) (A) (A) (A) (A) (A) (A) (A) (A) (A)
                 (A) (A) (A) (A) (A) (A) (A) (A) (A) (A)
 The electronic state of the initial guess is 3-A.
 Initial guess <Sx>= 0.0000 <Sy>= 0.0000 <Sz>= 1.0000 <S**2>= 2.0000 S= 1.0000
 Requested convergence on RMS density matrix=1.00D-08 within 128 cycles.
 Requested convergence on MAX density matrix=1.00D-06.
 Requested convergence on             energy=1.00D-06.
 No special actions if energy rises.
 Restarting incremental Fock formation.
 SCF Done:  E(UM062X) =  -382.434787877     A.U. after   30 cycles
             Convg  =    0.9799D-08             -V/T =  2.0036
 <Sx>= 0.0000 <Sy>= 0.0000 <Sz>= 1.0000 <S**2>= 2.0396 S= 1.0132
 <L.S>= 0.000000000000E+00
 Annihilation of the first spin contaminant:
 S**2 before annihilation     2.0396,   after     2.0008

 **********************************************************************

            Population analysis using the SCF density.

 **********************************************************************

 Orbital symmetries:
 Alpha Orbitals:
       Occupied  (A) (A) (A) (A) (A) (A) (A) (A) (A) (A) (A) (A)
                 (A) (A) (A) (A) (A) (A) (A) (A) (A) (A) (A) (A)
                 (A) (A) (A) (A) (A) (A)
       Virtual   (A) (A) (A) (A) (A) (A) (A) (A) (A) (A) (A) (A)
                 (A) (A) (A) (A) (A) (A) (A) (A) (A) (A) (A) (A)
                 (A) (A) (A) (A) (A) (A) (A) (A) (A) (A) (A) (A)
                 (A) (A) (A) (A) (A) (A) (A) (A) (A) (A) (A) (A)
                 (A) (A) (A) (A) (A) (A) (A) (A) (A) (A) (A) (A)
                 (A) (A) (A) (A) (A) (A) (A) (A) (A) (A) (A) (A)
                 (A) (A) (A) (A) (A) (A) (A) (A) (A) (A) (A) (A)
                 (A) (A) (A) (A) (A) (A) (A) (A) (A) (A) (A) (A)
                 (A) (A) (A) (A) (A) (A) (A) (A) (A) (A) (A) (A)
                 (A) (A) (A) (A) (A) (A) (A) (A) (A) (A) (A) (A)
                 (A) (A) (A) (A) (A) (A) (A) (A) (A) (A) (A) (A)
                 (A) (A) (A) (A) (A) (A) (A) (A) (A) (A) (A) (A)
                 (A) (A) (A) (A) (A) (A) (A) (A) (A) (A) (A) (A)
                 (A) (A) (A) (A) (A) (A) (A) (A) (A) (A) (A) (A)
                 (A) (A) (A) (A) (A) (A) (A) (A) (A) (A) (A) (A)
                 (A) (A) (A) (A) (A) (A) (A) (A) (A) (A) (A) (A)
                 (A) (A) (A) (A) (A) (A) (A) (A) (A) (A) (A) (A)
                 (A) (A) (A) (A) (A) (A) (A) (A) (A) (A) (A) (A)
                 (A) (A) (A) (A) (A) (A) (A) (A) (A) (A) (A) (A)
                 (A) (A) (A) (A) (A) (A) (A) (A) (A) (A) (A) (A)
                 (A) (A) (A) (A) (A) (A) (A) (A) (A) (A) (A) (A)
                 (A) (A) (A) (A) (A) (A) (A) (A) (A) (A) (A) (A)
                 (A) (A) (A) (A) (A) (A) (A) (A) (A) (A) (A) (A)
                 (A) (A) (A) (A) (A) (A) (A) (A) (A) (A) (A) (A)
                 (A) (A) (A) (A) (A) (A) (A) (A)
 Beta  Orbitals:
       Occupied  (A) (A) (A) (A) (A) (A) (A) (A) (A) (A) (A) (A)
                 (A) (A) (A) (A) (A) (A) (A) (A) (A) (A) (A) (A)
                 (A) (A) (A) (A)
       Virtual   (A) (A) (A) (A) (A) (A) (A) (A) (A) (A) (A) (A)
                 (A) (A) (A) (A) (A) (A) (A) (A) (A) (A) (A) (A)
                 (A) (A) (A) (A) (A) (A) (A) (A) (A) (A) (A) (A)
                 (A) (A) (A) (A) (A) (A) (A) (A) (A) (A) (A) (A)
                 (A) (A) (A) (A) (A) (A) (A) (A) (A) (A) (A) (A)
                 (A) (A) (A) (A) (A) (A) (A) (A) (A) (A) (A) (A)
                 (A) (A) (A) (A) (A) (A) (A) (A) (A) (A) (A) (A)
                 (A) (A) (A) (A) (A) (A) (A) (A) (A) (A) (A) (A)
                 (A) (A) (A) (A) (A) (A) (A) (A) (A) (A) (A) (A)
                 (A) (A) (A) (A) (A) (A) (A) (A) (A) (A) (A) (A)
                 (A) (A) (A) (A) (A) (A) (A) (A) (A) (A) (A) (A)
                 (A) (A) (A) (A) (A) (A) (A) (A) (A) (A) (A) (A)
                 (A) (A) (A) (A) (A) (A) (A) (A) (A) (A) (A) (A)
                 (A) (A) (A) (A) (A) (A) (A) (A) (A) (A) (A) (A)
                 (A) (A) (A) (A) (A) (A) (A) (A) (A) (A) (A) (A)
                 (A) (A) (A) (A) (A) (A) (A) (A) (A) (A) (A) (A)
                 (A) (A) (A) (A) (A) (A) (A) (A) (A) (A) (A) (A)
                 (A) (A) (A) (A) (A) (A) (A) (A) (A) (A) (A) (A)
                 (A) (A) (A) (A) (A) (A) (A) (A) (A) (A) (A) (A)
                 (A) (A) (A) (A) (A) (A) (A) (A) (A) (A) (A) (A)
                 (A) (A) (A) (A) (A) (A) (A) (A) (A) (A) (A) (A)
                 (A) (A) (A) (A) (A) (A) (A) (A) (A) (A) (A) (A)
                 (A) (A) (A) (A) (A) (A) (A) (A) (A) (A) (A) (A)
                 (A) (A) (A) (A) (A) (A) (A) (A) (A) (A) (A) (A)
                 (A) (A) (A) (A) (A) (A) (A) (A) (A) (A)
 The electronic state is 3-A.
 Alpha  occ. eigenvalues --  -19.67317 -19.61984 -10.64785 -10.60045 -10.59176
 Alpha  occ. eigenvalues --  -10.59007 -10.58831 -10.58705  -1.17098  -1.03883
 Alpha  occ. eigenvalues --   -1.00914  -0.89063  -0.88714  -0.74086  -0.72919
 Alpha  occ. eigenvalues --   -0.65664  -0.61427  -0.57978  -0.55665  -0.53842
 Alpha  occ. eigenvalues --   -0.52856  -0.50511  -0.46293  -0.43841  -0.42991
 Alpha  occ. eigenvalues --   -0.40301  -0.40124  -0.37099  -0.35237  -0.32786
 Alpha virt. eigenvalues --   -0.03976  -0.02013  -0.00087   0.01324   0.02175
 Alpha virt. eigenvalues --    0.03698   0.04027   0.04925   0.06000   0.07496
 Alpha virt. eigenvalues --    0.08080   0.08489   0.09291   0.09473   0.12073
 Alpha virt. eigenvalues --    0.12261   0.13288   0.13529   0.13981   0.14168
 Alpha virt. eigenvalues --    0.15486   0.16578   0.17291   0.17483   0.18970
 Alpha virt. eigenvalues --    0.19474   0.20199   0.20575   0.20983   0.21363
 Alpha virt. eigenvalues --    0.21926   0.23326   0.23763   0.25182   0.26196
 Alpha virt. eigenvalues --    0.26467   0.28721   0.30020   0.31308   0.32016
 Alpha virt. eigenvalues --    0.32896   0.35148   0.35798   0.36718   0.38818
 Alpha virt. eigenvalues --    0.41545   0.45099   0.47053   0.48382   0.49748
 Alpha virt. eigenvalues --    0.51264   0.52041   0.52291   0.52976   0.53400
 Alpha virt. eigenvalues --    0.54698   0.55731   0.56438   0.60014   0.60462
 Alpha virt. eigenvalues --    0.62255   0.62817   0.63243   0.64101   0.64344
 Alpha virt. eigenvalues --    0.65111   0.66572   0.68082   0.68496   0.70456
 Alpha virt. eigenvalues --    0.70883   0.71242   0.72768   0.73578   0.76557
 Alpha virt. eigenvalues --    0.77891   0.80848   0.81546   0.81935   0.84845
 Alpha virt. eigenvalues --    0.85690   0.87853   0.90184   0.90836   0.93084
 Alpha virt. eigenvalues --    0.96615   0.98407   1.00715   1.02919   1.04389
 Alpha virt. eigenvalues --    1.05208   1.07305   1.08543   1.11722   1.13238
 Alpha virt. eigenvalues --    1.15332   1.16281   1.18392   1.18931   1.20563
 Alpha virt. eigenvalues --    1.23367   1.24057   1.25370   1.26199   1.27385
 Alpha virt. eigenvalues --    1.29573   1.30002   1.33511   1.34415   1.35629
 Alpha virt. eigenvalues --    1.36522   1.37102   1.38292   1.40648   1.41747
 Alpha virt. eigenvalues --    1.43557   1.45173   1.47417   1.49912   1.51195
 Alpha virt. eigenvalues --    1.54690   1.55881   1.58152   1.59139   1.62157
 Alpha virt. eigenvalues --    1.64291   1.68268   1.68668   1.69820   1.70080
 Alpha virt. eigenvalues --    1.72183   1.74253   1.82645   1.85028   1.90232
 Alpha virt. eigenvalues --    1.92300   1.94660   1.98523   2.00277   2.10332
 Alpha virt. eigenvalues --    2.27491   2.32733   2.47076   2.49056   2.50830
 Alpha virt. eigenvalues --    2.52720   2.54430   2.54913   2.60648   2.66279
 Alpha virt. eigenvalues --    2.69392   2.70475   2.71797   2.73079   2.73570
 Alpha virt. eigenvalues --    2.74530   2.75565   2.76064   2.77838   2.80134
 Alpha virt. eigenvalues --    2.80288   2.80606   2.82882   2.83469   2.84005
 Alpha virt. eigenvalues --    2.85407   2.86294   2.89853   2.92337   2.98058
 Alpha virt. eigenvalues --    3.02241   3.04064   3.06517   3.08292   3.11042
 Alpha virt. eigenvalues --    3.11933   3.14528   3.16145   3.16552   3.19349
 Alpha virt. eigenvalues --    3.20023   3.21511   3.24009   3.26269   3.28459
 Alpha virt. eigenvalues --    3.30262   3.31511   3.31754   3.32618   3.36286
 Alpha virt. eigenvalues --    3.37187   3.38340   3.39681   3.40588   3.42955
 Alpha virt. eigenvalues --    3.46343   3.47515   3.50266   3.52519   3.54306
 Alpha virt. eigenvalues --    3.58693   3.61708   3.62189   3.64585   3.67206
 Alpha virt. eigenvalues --    3.69773   3.75425   3.76278   3.79234   3.79826
 Alpha virt. eigenvalues --    3.81452   3.84775   3.86317   3.88933   3.90698
 Alpha virt. eigenvalues --    3.93876   3.96209   3.98495   3.99376   4.04096
 Alpha virt. eigenvalues --    4.06195   4.10408   4.11279   4.14487   4.16083
 Alpha virt. eigenvalues --    4.19390   4.20631   4.28074   4.29120   4.31999
 Alpha virt. eigenvalues --    4.33513   4.35549   4.37775   4.43934   4.45821
 Alpha virt. eigenvalues --    4.49367   4.51850   4.52832   4.56054   4.59703
 Alpha virt. eigenvalues --    4.60767   4.63324   4.76048   4.77907   4.89977
 Alpha virt. eigenvalues --    4.91059   4.94692   5.00096   5.03951   5.04594
 Alpha virt. eigenvalues --    5.05323   5.06305   5.06803   5.07092   5.07803
 Alpha virt. eigenvalues --    5.09919   5.11744   5.12142   5.17962   5.19800
 Alpha virt. eigenvalues --    5.22323   5.29661   5.31209   5.37852   5.40393
 Alpha virt. eigenvalues --    5.44014   5.48725   5.55270   5.62593   5.66075
 Alpha virt. eigenvalues --    5.67034   5.77019   5.85940   6.05840   6.13420
 Alpha virt. eigenvalues --    6.40481   6.49575   6.68272   6.68720   6.78873
 Alpha virt. eigenvalues --    6.84468   6.92573   6.94748   7.05185   7.33683
 Alpha virt. eigenvalues --    7.38657   7.69946   7.95355  23.82180  24.37349
 Alpha virt. eigenvalues --   24.44585  24.69244  24.72319  25.08815  49.99624
 Alpha virt. eigenvalues --   50.10499
  Beta  occ. eigenvalues --  -19.66407 -19.59936 -10.64840 -10.59875 -10.59066
  Beta  occ. eigenvalues --  -10.58903 -10.58891 -10.58761  -1.14251  -1.00705
  Beta  occ. eigenvalues --   -0.93800  -0.88879  -0.87466  -0.73823  -0.72240
  Beta  occ. eigenvalues --   -0.64695  -0.60484  -0.57565  -0.55216  -0.52799
  Beta  occ. eigenvalues --   -0.51896  -0.47180  -0.45369  -0.39857  -0.38828
  Beta  occ. eigenvalues --   -0.34803  -0.34698  -0.29585
  Beta virt. eigenvalues --   -0.16160  -0.03309  -0.02288  -0.01000  -0.00013
  Beta virt. eigenvalues --    0.01364   0.02274   0.03751   0.04119   0.04848
  Beta virt. eigenvalues --    0.06241   0.07613   0.08091   0.08625   0.09376
  Beta virt. eigenvalues --    0.10046   0.12473   0.12603   0.13446   0.13650
  Beta virt. eigenvalues --    0.14150   0.14389   0.15203   0.16729   0.17429
  Beta virt. eigenvalues --    0.17721   0.19095   0.19604   0.20421   0.20730
  Beta virt. eigenvalues --    0.21139   0.21732   0.22280   0.23502   0.23915
  Beta virt. eigenvalues --    0.25955   0.26164   0.27016   0.28641   0.30434
  Beta virt. eigenvalues --    0.31587   0.32512   0.34099   0.35446   0.36171
  Beta virt. eigenvalues --    0.37000   0.38739   0.41977   0.45249   0.47433
  Beta virt. eigenvalues --    0.48686   0.50029   0.51603   0.52262   0.52374
  Beta virt. eigenvalues --    0.53227   0.53737   0.55013   0.55956   0.56709
  Beta virt. eigenvalues --    0.60239   0.60671   0.62403   0.63143   0.63440
  Beta virt. eigenvalues --    0.64387   0.64475   0.65409   0.66958   0.68159
  Beta virt. eigenvalues --    0.68514   0.70444   0.71039   0.71293   0.73044
  Beta virt. eigenvalues --    0.73838   0.76755   0.78186   0.81060   0.81494
  Beta virt. eigenvalues --    0.82177   0.84953   0.85745   0.88041   0.90464
  Beta virt. eigenvalues --    0.91615   0.93860   0.96968   0.98382   1.00951
  Beta virt. eigenvalues --    1.02994   1.04630   1.05678   1.07953   1.08650
  Beta virt. eigenvalues --    1.13362   1.15368   1.16880   1.17123   1.18912
  Beta virt. eigenvalues --    1.19235   1.20787   1.24043   1.24346   1.25506
  Beta virt. eigenvalues --    1.26688   1.27816   1.30348   1.30766   1.34082
  Beta virt. eigenvalues --    1.35038   1.36124   1.37172   1.37526   1.38598
  Beta virt. eigenvalues --    1.40985   1.42053   1.43734   1.45696   1.47871
  Beta virt. eigenvalues --    1.50632   1.52066   1.57332   1.59771   1.61134
  Beta virt. eigenvalues --    1.61308   1.63287   1.65322   1.68623   1.69017
  Beta virt. eigenvalues --    1.70463   1.71488   1.72707   1.74754   1.83107
  Beta virt. eigenvalues --    1.85452   1.90510   1.93541   1.95597   2.00343
  Beta virt. eigenvalues --    2.01297   2.11142   2.28544   2.33579   2.47365
  Beta virt. eigenvalues --    2.49709   2.51393   2.53165   2.55080   2.55584
  Beta virt. eigenvalues --    2.61262   2.66854   2.69827   2.71068   2.71913
  Beta virt. eigenvalues --    2.73559   2.74286   2.74744   2.76405   2.76574
  Beta virt. eigenvalues --    2.78380   2.80812   2.80853   2.81918   2.83417
  Beta virt. eigenvalues --    2.84333   2.84917   2.86229   2.87709   2.90572
  Beta virt. eigenvalues --    2.93124   2.98791   3.03070   3.04412   3.06959
  Beta virt. eigenvalues --    3.08917   3.11613   3.12686   3.15056   3.16913
  Beta virt. eigenvalues --    3.17389   3.19885   3.20743   3.22780   3.25007
  Beta virt. eigenvalues --    3.26645   3.28853   3.31052   3.31973   3.32359
  Beta virt. eigenvalues --    3.33315   3.37150   3.37892   3.38925   3.40524
  Beta virt. eigenvalues --    3.41257   3.43691   3.47613   3.49438   3.51166
  Beta virt. eigenvalues --    3.52423   3.54789   3.59482   3.62439   3.62941
  Beta virt. eigenvalues --    3.64996   3.67686   3.70274   3.75884   3.76838
  Beta virt. eigenvalues --    3.79572   3.80994   3.82031   3.85303   3.87116
  Beta virt. eigenvalues --    3.89576   3.91071   3.94471   3.96697   3.98905
  Beta virt. eigenvalues --    3.99920   4.04938   4.06906   4.10887   4.11788
  Beta virt. eigenvalues --    4.14907   4.16983   4.20001   4.21224   4.28717
  Beta virt. eigenvalues --    4.30215   4.32826   4.34272   4.36530   4.38779
  Beta virt. eigenvalues --    4.44986   4.46773   4.50239   4.53126   4.54196
  Beta virt. eigenvalues --    4.57049   4.60861   4.61816   4.64432   4.77005
  Beta virt. eigenvalues --    4.78940   4.91191   4.93043   4.96006   5.01586
  Beta virt. eigenvalues --    5.06689   5.07569   5.10000   5.10247   5.10735
  Beta virt. eigenvalues --    5.12540   5.13092   5.13579   5.13978   5.15678
  Beta virt. eigenvalues --    5.21696   5.22581   5.23724   5.30745   5.32793
  Beta virt. eigenvalues --    5.39174   5.42981   5.45581   5.50171   5.56451
  Beta virt. eigenvalues --    5.64022   5.67595   5.68574   5.77520   5.86813
  Beta virt. eigenvalues --    6.06973   6.14557   6.41323   6.50671   6.84228
  Beta virt. eigenvalues --    6.84446   6.87109   6.91867   7.00676   7.02604
  Beta virt. eigenvalues --    7.11103   7.36455   7.44860   7.74369   7.99039
  Beta virt. eigenvalues --   23.82313  24.37542  24.44891  24.69619  24.72545
  Beta virt. eigenvalues --   25.09226  49.98860  50.09593
          Condensed to atoms (all electrons):
              1          2          3          4          5          6
     1  O    8.261640   0.144022   0.050805  -0.034489   0.004903  -0.003239
     2  H    0.144022   0.326887   0.029295   0.019057   0.005773  -0.003043
     3  C    0.050805   0.029295   6.100729  -0.413939   0.405234  -0.464385
     4  C   -0.034489   0.019057  -0.413939   5.888527   0.188409   0.327972
     5  C    0.004903   0.005773   0.405234   0.188409   5.251251   0.199392
     6  C   -0.003239  -0.003043  -0.464385   0.327972   0.199392   5.161569
     7  C    0.003041  -0.001468   0.339954  -0.502134   0.149798   0.218168
     8  C   -0.011798  -0.028886  -0.163029   0.232290  -0.392434   0.239178
     9  O    0.017504   0.090545   0.357440  -0.189182   0.012929  -0.020496
    10  H   -0.000200  -0.000451   0.020585   0.347912   0.021930  -0.003533
    11  H   -0.000004   0.000002  -0.011767   0.021706   0.354118   0.003875
    12  H    0.000004  -0.000007   0.022457  -0.026702   0.058566   0.295385
    13  H   -0.000003  -0.000003  -0.004471  -0.004385   0.009340   0.004722
    14  H   -0.000180  -0.000178   0.011147  -0.009204   0.001523  -0.007180
              7          8          9         10         11         12
     1  O    0.003041  -0.011798   0.017504  -0.000200  -0.000004   0.000004
     2  H   -0.001468  -0.028886   0.090545  -0.000451   0.000002  -0.000007
     3  C    0.339954  -0.163029   0.357440   0.020585  -0.011767   0.022457
     4  C   -0.502134   0.232290  -0.189182   0.347912   0.021706  -0.026702
     5  C    0.149798  -0.392434   0.012929   0.021930   0.354118   0.058566
     6  C    0.218168   0.239178  -0.020496  -0.003533   0.003875   0.295385
     7  C    5.333640   0.279396   0.005506  -0.002676   0.003707   0.044181
     8  C    0.279396   5.488045  -0.108820  -0.002704   0.001295  -0.025415
     9  O    0.005506  -0.108820   8.190557  -0.000929  -0.000132   0.000191
    10  H   -0.002676  -0.002704  -0.000929   0.445822  -0.005801  -0.000112
    11  H    0.003707   0.001295  -0.000132  -0.005801   0.477925  -0.005469
    12  H    0.044181  -0.025415   0.000191  -0.000112  -0.005469   0.479983
    13  H    0.363165   0.007525  -0.000139   0.000045  -0.000140  -0.005267
    14  H    0.036205   0.349615  -0.001323  -0.000100   0.000050  -0.000088
             13         14
     1  O   -0.000003  -0.000180
     2  H   -0.000003  -0.000178
     3  C   -0.004471   0.011147
     4  C   -0.004385  -0.009204
     5  C    0.009340   0.001523
     6  C    0.004722  -0.007180
     7  C    0.363165   0.036205
     8  C    0.007525   0.349615
     9  O   -0.000139  -0.001323
    10  H    0.000045  -0.000100
    11  H   -0.000140   0.000050
    12  H   -0.005267  -0.000088
    13  H    0.471303  -0.005655
    14  H   -0.005655   0.445518
 Mulliken atomic charges:
              1
     1  O   -0.432005
     2  H    0.418455
     3  C   -0.280056
     4  C    0.154161
     5  C   -0.270732
     6  C    0.051614
     7  C   -0.270483
     8  C    0.135744
     9  O   -0.353650
    10  H    0.180212
    11  H    0.160633
    12  H    0.162292
    13  H    0.163963
    14  H    0.179851
 Sum of Mulliken atomic charges =   0.00000
 Mulliken charges with hydrogens summed into heavy atoms:
              1
     1  O   -0.432005
     3  C   -0.280056
     4  C    0.334373
     5  C   -0.110099
     6  C    0.213906
     7  C   -0.106520
     8  C    0.315595
     9  O    0.064805
 Sum of Mulliken charges with hydrogens summed into heavy atoms =   0.00000
          Atomic-Atomic Spin Densities.
              1          2          3          4          5          6
     1  O    1.222728  -0.000992  -0.000392   0.000086  -0.001132  -0.000162
     2  H   -0.000992  -0.066205  -0.009810   0.008141  -0.001680  -0.000352
     3  C   -0.000392  -0.009810  -0.018259  -0.016846   0.022780  -0.009046
     4  C    0.000086   0.008141  -0.016846   0.309351  -0.024916  -0.010876
     5  C   -0.001132  -0.001680   0.022780  -0.024916  -0.055955   0.005640
     6  C   -0.000162  -0.000352  -0.009046  -0.010876   0.005640   0.289467
     7  C   -0.000704  -0.000782   0.016692  -0.053838   0.006005   0.009921
     8  C    0.004040   0.005520  -0.008598  -0.017555  -0.058397   0.013467
     9  O   -0.013683   0.024671  -0.011471  -0.020037  -0.003174   0.007301
    10  H   -0.000111   0.000222   0.002528  -0.005427   0.003121  -0.001091
    11  H    0.000002  -0.000001   0.000733  -0.003575   0.002568  -0.002417
    12  H   -0.000001  -0.000002   0.000164  -0.001462   0.000024   0.004063
    13  H    0.000000  -0.000001  -0.000778   0.000032   0.000906  -0.001881
    14  H    0.000017   0.000212   0.002947  -0.000160   0.000967  -0.001269
              7          8          9         10         11         12
     1  O   -0.000704   0.004040  -0.013683  -0.000111   0.000002  -0.000001
     2  H   -0.000782   0.005520   0.024671   0.000222  -0.000001  -0.000002
     3  C    0.016692  -0.008598  -0.011471   0.002528   0.000733   0.000164
     4  C   -0.053838  -0.017555  -0.020037  -0.005427  -0.003575  -0.001462
     5  C    0.006005  -0.058397  -0.003174   0.003121   0.002568   0.000024
     6  C    0.009921   0.013467   0.007301  -0.001091  -0.002417   0.004063
     7  C   -0.031430  -0.044230  -0.000816   0.000616   0.001758  -0.000721
     8  C   -0.044230   0.317731  -0.029400  -0.001079  -0.000445  -0.001504
     9  O   -0.000816  -0.029400   0.497509   0.000356   0.000041  -0.000032
    10  H    0.000616  -0.001079   0.000356  -0.010035  -0.000096   0.000018
    11  H    0.001758  -0.000445   0.000041  -0.000096   0.006250   0.000011
    12  H   -0.000721  -0.001504  -0.000032   0.000018   0.000011  -0.019598
    13  H    0.000683  -0.000301   0.000050   0.000001  -0.000005  -0.000004
    14  H    0.002566  -0.006647   0.000585  -0.000012   0.000000   0.000011
             13         14
     1  O    0.000000   0.000017
     2  H   -0.000001   0.000212
     3  C   -0.000778   0.002947
     4  C    0.000032  -0.000160
     5  C    0.000906   0.000967
     6  C   -0.001881  -0.001269
     7  C    0.000683   0.002566
     8  C   -0.000301  -0.006647
     9  O    0.000050   0.000585
    10  H    0.000001  -0.000012
    11  H   -0.000005   0.000000
    12  H   -0.000004   0.000011
    13  H    0.006867  -0.000172
    14  H   -0.000172  -0.011191
 Mulliken atomic spin densities:
              1
     1  O    1.209696
     2  H   -0.041057
     3  C   -0.029357
     4  C    0.162919
     5  C   -0.103243
     6  C    0.302766
     7  C   -0.094280
     8  C    0.172602
     9  O    0.451901
    10  H   -0.010991
    11  H    0.004822
    12  H   -0.019033
    13  H    0.005399
    14  H   -0.012147
 Sum of Mulliken atomic spin densities =   2.00000
 Electronic spatial extent (au):  <R**2>=           1143.8606
 Charge=              0.0000 electrons
 Dipole moment (field-independent basis, Debye):
    X=             -7.5384    Y=             -0.2678    Z=             -0.4077  Tot=              7.5542
 Quadrupole moment (field-independent basis, Debye-Ang):
   XX=            -63.8157   YY=            -39.6539   ZZ=            -48.1746
   XY=             -1.0572   XZ=             -7.0142   YZ=             -0.5124
 Traceless Quadrupole moment (field-independent basis, Debye-Ang):
   XX=            -13.2676   YY=             10.8942   ZZ=              2.3735
   XY=             -1.0572   XZ=             -7.0142   YZ=             -0.5124
 Octapole moment (field-independent basis, Debye-Ang**2):
  XXX=            -76.8723  YYY=              0.2175  ZZZ=              2.1220  XYY=              0.1219
  XXY=             -2.8685  XXZ=             -4.0181  XZZ=             -2.4934  YZZ=             -1.4722
  YYZ=             -2.3681  XYZ=             -1.4551
 Hexadecapole moment (field-independent basis, Debye-Ang**3):
 XXXX=          -1374.6413 YYYY=           -253.4676 ZZZZ=           -126.3175 XXXY=            -14.9156
 XXXZ=            -82.4974 YYYX=              1.2712 YYYZ=             -0.7512 ZZZX=            -14.1447
 ZZZY=              0.0441 XXYY=           -203.5973 XXZZ=           -211.4695 YYZZ=            -70.8770
 XXYZ=             -8.4432 YYXZ=             -2.4442 ZZXY=             -2.2717
 N-N= 3.248483641838D+02 E-N=-2.297667295522D+03  KE= 5.689317366078D+02
                          Isotropic Fermi Contact Couplings
        Atom                 a.u.       MegaHertz       Gauss      10(-4) cm-1
     1  O(17)              0.15570     -47.19262     -16.83950     -15.74176
     2  H(1)              -0.01985     -44.36147     -15.82928     -14.79740
     3  C(13)             -0.03416     -19.20286      -6.85206      -6.40539
     4  C(13)              0.02817      15.83245       5.64941       5.28114
     5  C(13)             -0.02048     -11.51320      -4.10820      -3.84039
     6  C(13)              0.03633      20.42339       7.28757       6.81251
     7  C(13)             -0.01994     -11.20659      -3.99879      -3.73811
     8  C(13)              0.02393      13.45035       4.79942       4.48655
     9  O(17)              0.05659     -17.15352      -6.12080      -5.72180
    10  H(1)              -0.00319      -7.13198      -2.54487      -2.37897
    11  H(1)               0.00131       2.93107       1.04588       0.97770
    12  H(1)              -0.00566     -12.65699      -4.51633      -4.22192
    13  H(1)               0.00155       3.46436       1.23617       1.15559
    14  H(1)              -0.00340      -7.59698      -2.71079      -2.53408
 --------------------------------------------------------
       Center         ----  Spin Dipole Couplings  ----
                      3XX-RR        3YY-RR        3ZZ-RR
 --------------------------------------------------------
     1   Atom       -1.058406      2.471938     -1.413532
     2   Atom        0.159083     -0.093205     -0.065877
     3   Atom        0.022261     -0.002565     -0.019696
     4   Atom       -0.062548     -0.083122      0.145670
     5   Atom        0.015350      0.031200     -0.046550
     6   Atom        0.171785     -0.151420     -0.020365
     7   Atom        0.005299      0.033913     -0.039212
     8   Atom       -0.047409     -0.084689      0.132097
     9   Atom       -0.858684     -0.914013      1.772697
    10   Atom       -0.004737      0.011412     -0.006675
    11   Atom        0.001748      0.001719     -0.003467
    12   Atom        0.004070     -0.020864      0.016794
    13   Atom        0.002210      0.001689     -0.003899
    14   Atom       -0.005761      0.010193     -0.004432
 --------------------------------------------------------
                        XY            XZ            YZ
 --------------------------------------------------------
     1   Atom       -0.648329     -0.284583     -1.779348
     2   Atom        0.031854      0.136116      0.002834
     3   Atom        0.000985      0.012986      0.006677
     4   Atom       -0.009628      0.077146     -0.023216
     5   Atom       -0.010880     -0.049991     -0.026270
     6   Atom        0.016868      0.200268      0.011089
     7   Atom        0.004568     -0.050773      0.012805
     8   Atom       -0.005801      0.099613     -0.019567
     9   Atom        0.004475     -0.525964      0.132643
    10   Atom        0.003159      0.002501     -0.005878
    11   Atom        0.001903     -0.001375     -0.003212
    12   Atom       -0.000102     -0.010181      0.001543
    13   Atom       -0.001173     -0.001575      0.002950
    14   Atom       -0.003101      0.002326      0.008563
 --------------------------------------------------------


 ---------------------------------------------------------------------------------
              Anisotropic Spin Dipole Couplings in Principal Axis System
 ---------------------------------------------------------------------------------

       Atom             a.u.   MegaHertz   Gauss  10(-4) cm-1        Axes

              Baa    -2.3123   167.318    59.703    55.811  0.3823  0.3672  0.8480
     1 O(17)  Bbb    -0.9106    65.894    23.513    21.980  0.9165 -0.0340 -0.3985
              Bcc     3.2230  -233.211   -83.216   -77.791 -0.1175  0.9295 -0.3495
 
              Baa    -0.1332   -71.073   -25.361   -23.707 -0.4301  0.2817  0.8577
     2 H(1)   Bbb    -0.0928   -49.513   -17.668   -16.516  0.0384  0.9549 -0.2944
              Bcc     0.2260   120.586    43.028    40.223  0.9020  0.0937  0.4215
 
              Baa    -0.0251    -3.366    -1.201    -1.123 -0.2499 -0.2652  0.9312
     3 C(13)  Bbb    -0.0011    -0.154    -0.055    -0.051 -0.1670  0.9592  0.2283
              Bcc     0.0262     3.520     1.256     1.174  0.9538  0.0985  0.2840
 
              Baa    -0.0890   -11.945    -4.262    -3.984  0.8504  0.4719 -0.2329
     4 C(13)  Bbb    -0.0846   -11.348    -4.049    -3.785 -0.4232  0.8763  0.2302
              Bcc     0.1736    23.293     8.312     7.770  0.3127 -0.0972  0.9449
 
              Baa    -0.0815   -10.934    -3.902    -3.647  0.4664  0.2433  0.8505
     5 C(13)  Bbb     0.0367     4.927     1.758     1.644 -0.4924  0.8701  0.0211
              Bcc     0.0448     6.007     2.143     2.004  0.7349  0.4286 -0.5256
 
              Baa    -0.1524   -20.444    -7.295    -6.819 -0.0021  0.9967 -0.0806
     6 C(13)  Bbb    -0.1464   -19.643    -7.009    -6.552 -0.5340  0.0670  0.8428
              Bcc     0.2987    40.087    14.304    13.372  0.8455  0.0448  0.5322
 
              Baa    -0.0740    -9.932    -3.544    -3.313  0.5401 -0.1217  0.8328
     7 C(13)  Bbb     0.0335     4.498     1.605     1.500  0.5067  0.8370 -0.2064
              Bcc     0.0405     5.434     1.939     1.812  0.6719 -0.5334 -0.5138
 
              Baa    -0.0928   -12.454    -4.444    -4.154  0.8358 -0.3732 -0.4027
     8 C(13)  Bbb    -0.0852   -11.430    -4.079    -3.813  0.3710  0.9246 -0.0868
              Bcc     0.1780    23.884     8.522     7.967  0.4047 -0.0768  0.9112
 
              Baa    -0.9755    70.588    25.188    23.546  0.8636 -0.4679  0.1879
     9 O(17)  Bbb    -0.9044    65.442    23.351    21.829  0.4677  0.8826  0.0482
              Bcc     1.8799  -136.030   -48.539   -45.375 -0.1883  0.0463  0.9810
 
              Baa    -0.0104    -5.555    -1.982    -1.853 -0.5171  0.2916  0.8047
    10 H(1)   Bbb    -0.0030    -1.625    -0.580    -0.542  0.8460  0.0315  0.5322
              Bcc     0.0135     7.181     2.562     2.395  0.1298  0.9560 -0.2630
 
              Baa    -0.0050    -2.684    -0.958    -0.895  0.0684  0.4129  0.9082
    11 H(1)   Bbb     0.0001     0.050     0.018     0.017  0.8056 -0.5599  0.1939
              Bcc     0.0049     2.634     0.940     0.879  0.5886  0.7184 -0.3709
 
              Baa    -0.0209   -11.168    -3.985    -3.725 -0.0141  0.9989 -0.0447
    12 H(1)   Bbb    -0.0016    -0.828    -0.295    -0.276  0.8751  0.0340  0.4828
              Bcc     0.0225    11.996     4.280     4.001 -0.4838  0.0323  0.8746
 
              Baa    -0.0053    -2.830    -1.010    -0.944  0.1359 -0.3657  0.9208
    13 H(1)   Bbb     0.0009     0.500     0.179     0.167  0.7594  0.6354  0.1402
              Bcc     0.0044     2.329     0.831     0.777 -0.6363  0.6801  0.3640
 
              Baa    -0.0108    -5.746    -2.050    -1.917 -0.5731 -0.3811  0.7255
    14 H(1)   Bbb    -0.0035    -1.892    -0.675    -0.631  0.8141 -0.1635  0.5572
              Bcc     0.0143     7.638     2.725     2.548 -0.0937  0.9099  0.4040
 

 ---------------------------------------------------------------------------------

 Calling FoFJK, ICntrl=      2127 FMM=F ISym2X=0 I1Cent= 0 IOpClX= 1 NMat=1 NMatS=1 NMatT=0.
 ***** Axes restored to original set *****
 -------------------------------------------------------------------
 Center     Atomic                   Forces (Hartrees/Bohr)
 Number     Number              X              Y              Z
 -------------------------------------------------------------------
      1        8          -0.029533428   -0.011487190   -0.004907046
      2        1           0.066752333    0.005185695    0.029854102
      3        6           0.090921292    0.003944801    0.041694330
      4        6          -0.019242176    0.030457472    0.000425900
      5        6          -0.001675992    0.020496948    0.008831243
      6        6           0.020182742   -0.006507220    0.003123333
      7        6           0.015359864   -0.006321908   -0.007831541
      8        6          -0.014023298   -0.026049074   -0.010781445
      9        8          -0.123135330    0.007567015   -0.055065072
     10        1          -0.001008554   -0.006560498   -0.000636726
     11        1           0.011192519    0.002931315    0.003966735
     12        1          -0.019120586    0.003361510   -0.014345140
     13        1           0.000947688   -0.007458210    0.001175314
     14        1           0.002382925   -0.009560655    0.004496014
 -------------------------------------------------------------------
 Cartesian Forces:  Max     0.123135330 RMS     0.030555869

 GradGradGradGradGradGradGradGradGradGradGradGradGradGradGradGradGradGrad
 Berny optimization.
 Internal  Forces:  Max     0.086905872 RMS     0.015844077
 Search for a local minimum.
 Step number   1 out of a maximum of   72
 All quantities printed in internal units (Hartrees-Bohrs-Radians)
 Mixed Optimization -- RFO/linear search
 Second derivative matrix not updated -- first step.
 ITU=  0
     Eigenvalues ---    0.00230   0.01718   0.02240   0.02251   0.02252
     Eigenvalues ---    0.02260   0.02264   0.02281   0.02319   0.02619
     Eigenvalues ---    0.02828   0.14885   0.15888   0.15927   0.15956
     Eigenvalues ---    0.15994   0.16000   0.21500   0.21669   0.23126
     Eigenvalues ---    0.23256   0.34711   0.34927   0.35109   0.36645
     Eigenvalues ---    0.36987   0.42447   0.43059   0.45948   0.47106
     Eigenvalues ---    0.47537   0.47596   0.477831000.000001000.00000
     Eigenvalues --- 1000.000001000.000001000.000001000.000001000.00000
     Eigenvalues --- 1000.000001000.000001000.000001000.000001000.00000
     Eigenvalues --- 1000.000001000.000001000.000001000.000001000.00000
     Eigenvalues --- 1000.000001000.000001000.000001000.000001000.00000
     Eigenvalues --- 1000.000001000.000001000.000001000.000001000.00000
     Eigenvalues --- 1000.000001000.00000
 RFO step:  Lambda=-4.32233939D-02 EMin= 2.30000000D-03
 Linear search not attempted -- first point.
 Iteration  1 RMS(Cart)=  0.08949339 RMS(Int)=  0.00576952
 Iteration  2 RMS(Cart)=  0.00609934 RMS(Int)=  0.00098894
 Iteration  3 RMS(Cart)=  0.00002685 RMS(Int)=  0.00098851
 Iteration  4 RMS(Cart)=  0.00000002 RMS(Int)=  0.00098851
 Iteration  1 RMS(Cart)=  0.00000000 RMS(Int)=  0.00000000
 Variable       Old X    -DE/DX   Delta X   Delta X   Delta X     New X
                                 (Linear)    (Quad)   (Total)
    R1        2.26083  -0.03775   0.00000   0.00000   0.00000   2.26083
    R2        4.34211   0.00700   0.00000   0.00000   0.00000   4.34211
    R3        2.16449   0.03834   0.00000   0.00000   0.00000   2.16449
    R4        2.62383   0.02243   0.00000   0.04327   0.04357   2.66740
    R5        2.62086   0.02640   0.00000   0.05039   0.05075   2.67160
    R6        2.64190  -0.08691   0.00000  -0.17288  -0.17288   2.46902
    R7        2.62127  -0.01244   0.00000  -0.02355  -0.02365   2.59763
    R8        2.06147  -0.00646   0.00000  -0.01655  -0.01655   2.04492
    R9        2.62496   0.01687   0.00000   0.03287   0.03246   2.65742
   R10        2.05498  -0.00322   0.00000  -0.00817  -0.00817   2.04681
   R11        2.62572   0.01646   0.00000   0.03169   0.03143   2.65715
   R12        2.05794  -0.00502   0.00000  -0.01280  -0.01280   2.04514
   R13        2.62444  -0.01473   0.00000  -0.02874  -0.02864   2.59580
   R14        2.02566   0.00660   0.00000   0.01599   0.01599   2.04165
   R15        2.03085   0.00539   0.00000   0.01317   0.01317   2.04402
    A1        2.75304   0.01519   0.00000   0.00000   0.00000   2.75304
    A2        2.03549   0.01198   0.00000   0.05571   0.05330   2.08879
    A3        2.07685  -0.00281   0.00000   0.00166  -0.00188   2.07498
    A4        2.10814  -0.00585   0.00000  -0.00889  -0.01257   2.09556
    A5        2.09313  -0.00514   0.00000  -0.01623  -0.01608   2.07705
    A6        2.10383   0.00051   0.00000  -0.00155  -0.00166   2.10217
    A7        2.08333   0.00468   0.00000   0.01877   0.01865   2.10198
    A8        2.11550  -0.00638   0.00000  -0.01963  -0.02069   2.09481
    A9        2.12822  -0.00445   0.00000  -0.02561  -0.02586   2.10236
   A10        2.03275   0.01123   0.00000   0.05152   0.05137   2.08411
   A11        2.01335   0.01428   0.00000   0.06293   0.06049   2.07384
   A12        2.11916  -0.00734   0.00000  -0.02161  -0.02348   2.09568
   A13        2.09000  -0.00407   0.00000  -0.00524  -0.00676   2.08324
   A14        2.09863  -0.00170   0.00000  -0.00418  -0.00449   2.09414
   A15        2.09284   0.00296   0.00000   0.01366   0.01344   2.10628
   A16        2.08720  -0.00101   0.00000  -0.00588  -0.00606   2.08114
   A17        2.11553  -0.00997   0.00000  -0.03628  -0.03577   2.07976
   A18        2.02920   0.01046   0.00000   0.04525   0.04495   2.07414
   A19        2.13807  -0.00047   0.00000  -0.00855  -0.00886   2.12920
   A20        2.59283  -0.02132   0.00000  -0.10493  -0.10493   2.48791
    D1       -2.41341   0.00283   0.00000   0.06227   0.06227  -2.35114
    D2        0.18462  -0.00093   0.00000  -0.00579  -0.00466   0.17997
    D3       -3.03916   0.00002   0.00000   0.00912   0.01015  -3.02902
    D4       -2.58727  -0.00909   0.00000  -0.14092  -0.14169  -2.72896
    D5        0.47213  -0.00814   0.00000  -0.12601  -0.12688   0.34525
    D6       -0.29261   0.00288   0.00000   0.04340   0.04306  -0.24955
    D7        2.87823   0.00199   0.00000   0.02787   0.02706   2.90529
    D8        2.47223   0.01198   0.00000   0.18382   0.18436   2.65660
    D9       -0.64011   0.01108   0.00000   0.16829   0.16836  -0.47174
   D10        1.58122   0.00820   0.00000   0.11062   0.10908   1.69030
   D11       -1.17489  -0.00420   0.00000  -0.04436  -0.04281  -1.21770
   D12        0.17841  -0.00559   0.00000  -0.07595  -0.07511   0.10330
   D13       -3.09194  -0.00094   0.00000  -0.01240  -0.01299  -3.10493
   D14       -2.88196  -0.00634   0.00000  -0.08974  -0.08895  -2.97091
   D15        0.13088  -0.00169   0.00000  -0.02620  -0.02684   0.10404
   D16       -0.42441   0.00633   0.00000   0.10669   0.10741  -0.31700
   D17        2.34879   0.01408   0.00000   0.21168   0.21171   2.56051
   D18        2.83920   0.00294   0.00000   0.05161   0.05132   2.89053
   D19       -0.67078   0.01070   0.00000   0.15660   0.15563  -0.51515
   D20        0.31385  -0.00432   0.00000  -0.06753  -0.06778   0.24608
   D21       -2.93015  -0.00166   0.00000  -0.02712  -0.02711  -2.95726
   D22       -2.46594  -0.01111   0.00000  -0.16661  -0.16741  -2.63335
   D23        0.57324  -0.00844   0.00000  -0.12620  -0.12674   0.44650
   D24        0.03919  -0.00014   0.00000  -0.00454  -0.00503   0.03416
   D25       -3.13351   0.00099   0.00000   0.01284   0.01239  -3.12112
   D26       -3.00032  -0.00302   0.00000  -0.04596  -0.04625  -3.04658
   D27        0.11016  -0.00190   0.00000  -0.02858  -0.02883   0.08133
         Item               Value     Threshold  Converged?
 Maximum Force            0.086906     0.002500     NO 
 RMS     Force            0.014491     0.001667     NO 
 Maximum Displacement     0.292549     0.010000     NO 
 RMS     Displacement     0.090810     0.006667     NO 
 Predicted change in Energy=-2.886933D-02
 GradGradGradGradGradGradGradGradGradGradGradGradGradGradGradGradGradGrad

                          Input orientation:                          
 ---------------------------------------------------------------------
 Center     Atomic      Atomic             Coordinates (Angstroms)
 Number     Number       Type             X           Y           Z
 ---------------------------------------------------------------------
      1          8           0        4.002058    0.296033    0.344755
      2          1           0        2.913162    0.088782   -0.105445
      3          6           0        0.643134    0.182115   -0.588456
      4          6           0       -0.118837    1.280703   -0.135780
      5          6           0       -1.356394    1.051095    0.416734
      6          6           0       -1.794275   -0.266642    0.638887
      7          6           0       -1.154190   -1.317479   -0.041672
      8          6           0        0.046591   -1.096936   -0.671247
      9          8           0        1.941194    0.305604   -0.671312
     10          1           0        0.291073    2.281746   -0.165402
     11          1           0       -1.975180    1.878944    0.740669
     12          1           0       -2.428310   -0.491798    1.486563
     13          1           0       -1.567792   -2.315484   -0.028678
     14          1           0        0.557866   -1.876584   -1.219616
 ---------------------------------------------------------------------
                    Distance matrix (angstroms):
                    1          2          3          4          5
     1  O    0.000000
     2  H    1.196382   0.000000
     3  C    3.488013   2.322722   0.000000
     4  C    4.264067   3.258007   1.411527   0.000000
     5  C    5.411867   4.407700   2.400759   1.374604   0.000000
     6  C    5.831003   4.779154   2.765631   2.408625   1.406244
     7  C    5.416608   4.304066   2.403773   2.798456   2.420984
     8  C    4.314898   3.153298   1.413751   2.442797   2.786774
     9  O    2.297748   1.145399   1.306551   2.341227   3.551575
    10  H    4.239662   3.418777   2.170570   1.082124   2.137178
    11  H    6.195945   5.274132   3.391367   2.138238   1.083128
    12  H    6.578301   5.603828   3.767444   3.332779   2.161957
    13  H    6.163011   5.085797   3.382240   3.878595   3.402490
    14  H    4.362336   3.263657   2.154965   3.406037   3.861779
                    6          7          8          9         10
     6  C    0.000000
     7  C    1.406104   0.000000
     8  C    2.407203   1.373637   0.000000
     9  O    3.999727   3.551372   2.357253   0.000000
    10  H    3.389666   3.880530   3.425076   2.623735   0.000000
    11  H    2.155604   3.391637   3.864833   4.450514   2.473684
    12  H    1.082243   2.154213   3.338783   4.938101   4.220969
    13  H    2.166724   1.080394   2.122260   4.426744   4.960706
    14  H    3.402722   2.152042   1.081647   2.641245   4.298169
                   11         12         13         14
    11  H    0.000000
    12  H    2.526283   0.000000
    13  H    4.283818   2.522356   0.000000
    14  H    4.935892   4.261254   2.475760   0.000000
 Stoichiometry    C6H6O2(3)
 Framework group  C1[X(C6H6O2)]
 Deg. of freedom    36
 Full point group                 C1      NOp   1
 Largest Abelian subgroup         C1      NOp   1
 Largest concise Abelian subgroup C1      NOp   1
                         Standard orientation:                         
 ---------------------------------------------------------------------
 Center     Atomic      Atomic             Coordinates (Angstroms)
 Number     Number       Type             X           Y           Z
 ---------------------------------------------------------------------
      1          8           0        3.568929    0.024032    0.707583
      2          1           0        2.502984   -0.184080    0.205807
      3          6           0        0.298296   -0.009491   -0.504055
      4          6           0       -0.382089    1.219031   -0.361857
      5          6           0       -1.675634    1.214645    0.103180
      6          6           0       -2.259846    0.014841    0.546676
      7          6           0       -1.677849   -1.205649    0.160916
      8          6           0       -0.415707   -1.223461   -0.380894
      9          8           0        1.604687   -0.013499   -0.484050
     10          1           0        0.127548    2.153735   -0.555742
     11          1           0       -2.231243    2.140417    0.189270
     12          1           0       -2.977250    0.028002    1.356867
     13          1           0       -2.189550   -2.140628    0.337625
     14          1           0        0.055551   -2.141208   -0.705884
 ---------------------------------------------------------------------
 Rotational constants (GHZ):      4.4153051      1.1794464      1.0249566
 Standard basis: 6-311+G(2df,2p) (5D, 7F)
 There are   326 symmetry adapted basis functions of A   symmetry.
 Integral buffers will be    131072 words long.
 Raffenetti 2 integral format.
 Two-electron integral symmetry is turned on.
   326 basis functions,   482 primitive gaussians,   366 cartesian basis functions
    30 alpha electrons       28 beta electrons
       nuclear repulsion energy       326.7757038472 Hartrees.
 NAtoms=   14 NActive=   14 NUniq=   14 SFac= 1.00D+00 NAtFMM=   50 NAOKFM=F Big=F
 One-electron integrals computed using PRISM.
 NBasis=   326 RedAO= T  NBF=   326
 NBsUse=   326 1.00D-06 NBFU=   326
 Initial guess read from the read-write file.
 B after Tr=     0.000000    0.000000    0.000000
         Rot=    1.000000    0.000000    0.000000    0.000000 Ang=   0.00 deg.
 Initial guess orbital symmetries:
 Alpha Orbitals:
       Occupied  (A) (A) (A) (A) (A) (A) (A) (A) (A) (A) (A) (A)
                 (A) (A) (A) (A) (A) (A) (A) (A) (A) (A) (A) (A)
                 (A) (A) (A) (A) (A) (A)
       Virtual   (A) (A) (A) (A) (A) (A) (A) (A) (A) (A) (A) (A)
                 (A) (A) (A) (A) (A) (A) (A) (A) (A) (A) (A) (A)
                 (A) (A) (A) (A) (A) (A) (A) (A) (A) (A) (A) (A)
                 (A) (A) (A) (A) (A) (A) (A) (A) (A) (A) (A) (A)
                 (A) (A) (A) (A) (A) (A) (A) (A) (A) (A) (A) (A)
                 (A) (A) (A) (A) (A) (A) (A) (A) (A) (A) (A) (A)
                 (A) (A) (A) (A) (A) (A) (A) (A) (A) (A) (A) (A)
                 (A) (A) (A) (A) (A) (A) (A) (A) (A) (A) (A) (A)
                 (A) (A) (A) (A) (A) (A) (A) (A) (A) (A) (A) (A)
                 (A) (A) (A) (A) (A) (A) (A) (A) (A) (A) (A) (A)
                 (A) (A) (A) (A) (A) (A) (A) (A) (A) (A) (A) (A)
                 (A) (A) (A) (A) (A) (A) (A) (A) (A) (A) (A) (A)
                 (A) (A) (A) (A) (A) (A) (A) (A) (A) (A) (A) (A)
                 (A) (A) (A) (A) (A) (A) (A) (A) (A) (A) (A) (A)
                 (A) (A) (A) (A) (A) (A) (A) (A) (A) (A) (A) (A)
                 (A) (A) (A) (A) (A) (A) (A) (A) (A) (A) (A) (A)
                 (A) (A) (A) (A) (A) (A) (A) (A) (A) (A) (A) (A)
                 (A) (A) (A) (A) (A) (A) (A) (A) (A) (A) (A) (A)
                 (A) (A) (A) (A) (A) (A) (A) (A) (A) (A) (A) (A)
                 (A) (A) (A) (A) (A) (A) (A) (A) (A) (A) (A) (A)
                 (A) (A) (A) (A) (A) (A) (A) (A) (A) (A) (A) (A)
                 (A) (A) (A) (A) (A) (A) (A) (A) (A) (A) (A) (A)
                 (A) (A) (A) (A) (A) (A) (A) (A) (A) (A) (A) (A)
                 (A) (A) (A) (A) (A) (A) (A) (A) (A) (A) (A) (A)
                 (A) (A) (A) (A) (A) (A) (A) (A)
 Beta  Orbitals:
       Occupied  (A) (A) (A) (A) (A) (A) (A) (A) (A) (A) (A) (A)
                 (A) (A) (A) (A) (A) (A) (A) (A) (A) (A) (A) (A)
                 (A) (A) (A) (A)
       Virtual   (A) (A) (A) (A) (A) (A) (A) (A) (A) (A) (A) (A)
                 (A) (A) (A) (A) (A) (A) (A) (A) (A) (A) (A) (A)
                 (A) (A) (A) (A) (A) (A) (A) (A) (A) (A) (A) (A)
                 (A) (A) (A) (A) (A) (A) (A) (A) (A) (A) (A) (A)
                 (A) (A) (A) (A) (A) (A) (A) (A) (A) (A) (A) (A)
                 (A) (A) (A) (A) (A) (A) (A) (A) (A) (A) (A) (A)
                 (A) (A) (A) (A) (A) (A) (A) (A) (A) (A) (A) (A)
                 (A) (A) (A) (A) (A) (A) (A) (A) (A) (A) (A) (A)
                 (A) (A) (A) (A) (A) (A) (A) (A) (A) (A) (A) (A)
                 (A) (A) (A) (A) (A) (A) (A) (A) (A) (A) (A) (A)
                 (A) (A) (A) (A) (A) (A) (A) (A) (A) (A) (A) (A)
                 (A) (A) (A) (A) (A) (A) (A) (A) (A) (A) (A) (A)
                 (A) (A) (A) (A) (A) (A) (A) (A) (A) (A) (A) (A)
                 (A) (A) (A) (A) (A) (A) (A) (A) (A) (A) (A) (A)
                 (A) (A) (A) (A) (A) (A) (A) (A) (A) (A) (A) (A)
                 (A) (A) (A) (A) (A) (A) (A) (A) (A) (A) (A) (A)
                 (A) (A) (A) (A) (A) (A) (A) (A) (A) (A) (A) (A)
                 (A) (A) (A) (A) (A) (A) (A) (A) (A) (A) (A) (A)
                 (A) (A) (A) (A) (A) (A) (A) (A) (A) (A) (A) (A)
                 (A) (A) (A) (A) (A) (A) (A) (A) (A) (A) (A) (A)
                 (A) (A) (A) (A) (A) (A) (A) (A) (A) (A) (A) (A)
                 (A) (A) (A) (A) (A) (A) (A) (A) (A) (A) (A) (A)
                 (A) (A) (A) (A) (A) (A) (A) (A) (A) (A) (A) (A)
                 (A) (A) (A) (A) (A) (A) (A) (A) (A) (A) (A) (A)
                 (A) (A) (A) (A) (A) (A) (A) (A) (A) (A)
 Initial guess <Sx>= 0.0000 <Sy>= 0.0000 <Sz>= 1.0000 <S**2>= 2.0387 S= 1.0128
 Harris functional with IExCor= 1009 diagonalized for initial guess.
 ExpMin= 4.38D-02 ExpMax= 8.59D+03 ExpMxC= 1.30D+03 IAcc=2 IRadAn=         1 AccDes= 0.00D+00
 HarFok:  IExCor= 1009 AccDes= 0.00D+00 IRadAn=         1 IDoV= 1
 ScaDFX=  1.000000  1.000000  1.000000  1.000000
 FoFCou: FMM=F IPFlag=           0 FMFlag=      100000 FMFlg1=           0
         NFxFlg=           0 DoJE=T BraDBF=F KetDBF=T FulRan=T
         Omega=  0.000000  0.000000  1.000000  0.000000  0.000000 ICntrl=     500 IOpCl=  0
         NMat0=    1 NMatS0=    1 NMatT0=    0 NMatD0=    1 NMtDS0=    0 NMtDT0=    0
         I1Cent=           4 NGrid=           0.
 Petite list used in FoFCou.
 Requested convergence on RMS density matrix=1.00D-08 within 128 cycles.
 Requested convergence on MAX density matrix=1.00D-06.
 Requested convergence on             energy=1.00D-06.
 No special actions if energy rises.
 Restarting incremental Fock formation.
 SCF Done:  E(UM062X) =  -382.467701791     A.U. after   28 cycles
             Convg  =    0.7389D-08             -V/T =  2.0034
 <Sx>= 0.0000 <Sy>= 0.0000 <Sz>= 1.0000 <S**2>= 2.0420 S= 1.0139
 <L.S>= 0.000000000000E+00
 Annihilation of the first spin contaminant:
 S**2 before annihilation     2.0420,   after     2.0008
 Calling FoFJK, ICntrl=      2127 FMM=F ISym2X=0 I1Cent= 0 IOpClX= 1 NMat=1 NMatS=1 NMatT=0.
 ***** Axes restored to original set *****
 -------------------------------------------------------------------
 Center     Atomic                   Forces (Hartrees/Bohr)
 Number     Number              X              Y              Z
 -------------------------------------------------------------------
      1        8          -0.028697665   -0.011724747   -0.005338073
      2        1           0.071470322    0.004581854    0.031243337
      3        6           0.054596407   -0.000639887    0.022553410
      4        6          -0.017892252    0.009239588   -0.001900668
      5        6          -0.001635241    0.002659586    0.002515451
      6        6           0.014098858   -0.001937999    0.001995351
      7        6           0.003632637   -0.001108364   -0.000984484
      8        6          -0.012948727   -0.008354013   -0.007549904
      9        8          -0.078563669    0.009734423   -0.045225817
     10        1           0.002529962   -0.002429575   -0.001004508
     11        1           0.004614971   -0.000574643    0.005621873
     12        1          -0.013939090    0.001855497   -0.010076916
     13        1           0.000052086   -0.000631346    0.003039131
     14        1           0.002681402   -0.000670374    0.005111818
 -------------------------------------------------------------------
 Cartesian Forces:  Max     0.078563669 RMS     0.021956495

 GradGradGradGradGradGradGradGradGradGradGradGradGradGradGradGradGradGrad
 Berny optimization.
 Using GEDIIS/GDIIS optimizer.
 Internal  Forces:  Max     0.041662696 RMS     0.009838680
 Search for a local minimum.
 Step number   2 out of a maximum of   72
 All quantities printed in internal units (Hartrees-Bohrs-Radians)
 Mixed Optimization -- RFO/linear search
 Update second derivatives using D2CorX and points    1    2
 DE= -3.29D-02 DEPred=-2.89D-02 R= 1.14D+00
 SS=  1.41D+00  RLast= 5.78D-01 DXNew= 5.0454D-01 1.7338D+00
 Trust test= 1.14D+00 RLast= 5.78D-01 DXMaxT set to 5.05D-01
 ITU=  1  0
 Use linear search instead of GDIIS.
     Eigenvalues ---    0.00230   0.01709   0.02147   0.02239   0.02247
     Eigenvalues ---    0.02251   0.02253   0.02263   0.02316   0.02386
     Eigenvalues ---    0.02535   0.13969   0.15479   0.15961   0.15974
     Eigenvalues ---    0.15989   0.16386   0.21624   0.21809   0.24323
     Eigenvalues ---    0.25356   0.34576   0.34947   0.34989   0.35663
     Eigenvalues ---    0.36768   0.37067   0.42951   0.44297   0.47262
     Eigenvalues ---    0.47494   0.47765   0.480311000.000001000.00000
     Eigenvalues --- 1000.000001000.000001000.000001000.000001000.00000
     Eigenvalues --- 1000.000001000.000001000.000001000.000001000.00000
     Eigenvalues --- 1000.000001000.000001000.000001000.000001000.00000
     Eigenvalues --- 1000.000001000.000001000.000001000.000001000.00000
     Eigenvalues --- 1000.000001000.000001000.000001000.000001000.00000
     Eigenvalues --- 1000.000001000.00000
 RFO step:  Lambda=-9.33123496D-03 EMin= 2.29784271D-03
 Quartic linear search produced a step of  0.77239.
 Iteration  1 RMS(Cart)=  0.10029496 RMS(Int)=  0.01495333
 Iteration  2 RMS(Cart)=  0.01853546 RMS(Int)=  0.00224925
 Iteration  3 RMS(Cart)=  0.00036012 RMS(Int)=  0.00221625
 Iteration  4 RMS(Cart)=  0.00000040 RMS(Int)=  0.00221625
 Iteration  1 RMS(Cart)=  0.00000000 RMS(Int)=  0.00000001
 Variable       Old X    -DE/DX   Delta X   Delta X   Delta X     New X
                                 (Linear)    (Quad)   (Total)
    R1        2.26083  -0.03896   0.00000   0.00000   0.00000   2.26083
    R2        4.34211   0.00896   0.00000   0.00000   0.00000   4.34211
    R3        2.16449   0.04166   0.00000   0.00000   0.00000   2.16449
    R4        2.66740   0.01150   0.03365   0.00965   0.04433   2.71173
    R5        2.67160   0.01147   0.03920   0.00380   0.04414   2.71574
    R6        2.46902  -0.03409  -0.13353   0.00188  -0.13165   2.33737
    R7        2.59763  -0.00267  -0.01826   0.00806  -0.01047   2.58715
    R8        2.04492  -0.00126  -0.01279   0.00643  -0.00635   2.03857
    R9        2.65742   0.00048   0.02507  -0.02241   0.00136   2.65878
   R10        2.04681  -0.00139  -0.00631  -0.00044  -0.00675   2.04006
   R11        2.65715   0.00054   0.02428  -0.02165   0.00171   2.65886
   R12        2.04514  -0.00011  -0.00989   0.00909  -0.00080   2.04435
   R13        2.59580  -0.00261  -0.02212   0.01129  -0.01056   2.58523
   R14        2.04165   0.00060   0.01235  -0.00923   0.00311   2.04476
   R15        2.04402  -0.00084   0.01017  -0.01364  -0.00347   2.04054
    A1        2.75304   0.01492   0.00000   0.00000   0.00000   2.75304
    A2        2.08879  -0.00489   0.04117  -0.05896  -0.02357   2.06523
    A3        2.07498   0.00393  -0.00145   0.03956   0.02909   2.10407
    A4        2.09556   0.00224  -0.00971   0.03646   0.01767   2.11323
    A5        2.07705   0.00162  -0.01242   0.02873   0.01722   2.09426
    A6        2.10217  -0.00451  -0.00128  -0.04255  -0.04436   2.05781
    A7        2.10198   0.00291   0.01440   0.01406   0.02793   2.12991
    A8        2.09481  -0.00020  -0.01598   0.01681  -0.00123   2.09358
    A9        2.10236  -0.00077  -0.01997   0.01603  -0.00396   2.09840
   A10        2.08411   0.00110   0.03968  -0.03276   0.00692   2.09103
   A11        2.07384   0.00353   0.04672  -0.01622   0.02446   2.09830
   A12        2.09568  -0.00198  -0.01813   0.01329  -0.00863   2.08705
   A13        2.08324  -0.00029  -0.00522   0.01637   0.00774   2.09099
   A14        2.09414   0.00071  -0.00347   0.00902   0.00476   2.09890
   A15        2.10628  -0.00191   0.01038  -0.02890  -0.01898   2.08730
   A16        2.08114   0.00131  -0.00468   0.02090   0.01579   2.09693
   A17        2.07976   0.00050  -0.02763   0.03451   0.00870   2.08846
   A18        2.07414  -0.00073   0.03472  -0.04555  -0.01177   2.06237
   A19        2.12920   0.00023  -0.00685   0.01084   0.00302   2.13222
   A20        2.48791  -0.01769  -0.08104  -0.08625  -0.16730   2.32061
    D1       -2.35114   0.00286   0.04810   0.17186   0.21996  -2.13117
    D2        0.17997  -0.00035  -0.00360  -0.00806  -0.01065   0.16931
    D3       -3.02902   0.00019   0.00784  -0.00328   0.00529  -3.02373
    D4       -2.72896  -0.00680  -0.10944  -0.09499  -0.20483  -2.93379
    D5        0.34525  -0.00625  -0.09800  -0.09021  -0.18889   0.15636
    D6       -0.24955   0.00181   0.03326   0.01129   0.04452  -0.20503
    D7        2.90529   0.00169   0.02090   0.02783   0.04790   2.95319
    D8        2.65660   0.00854   0.14240   0.09947   0.24127   2.89786
    D9       -0.47174   0.00842   0.13004   0.11601   0.24464  -0.22710
   D10        1.69030   0.00474   0.08425   0.09555   0.18102   1.87132
   D11       -1.21770  -0.00075  -0.03307   0.02128  -0.01301  -1.23071
   D12        0.10330  -0.00358  -0.05801  -0.02634  -0.08298   0.02032
   D13       -3.10493  -0.00130  -0.01003  -0.02613  -0.03648  -3.14141
   D14       -2.97091  -0.00383  -0.06871  -0.02888  -0.09673  -3.06764
   D15        0.10404  -0.00155  -0.02073  -0.02867  -0.05023   0.05381
   D16       -0.31700   0.00440   0.08296   0.05338   0.13715  -0.17985
   D17        2.56051   0.00972   0.16352   0.11295   0.27552   2.83603
   D18        2.89053   0.00222   0.03964   0.05132   0.09127   2.98179
   D19       -0.51515   0.00754   0.12021   0.11089   0.22964  -0.28551
   D20        0.24608  -0.00297  -0.05235  -0.04954  -0.10253   0.14355
   D21       -2.95726  -0.00094  -0.02094  -0.02926  -0.05133  -3.00859
   D22       -2.63335  -0.00798  -0.12930  -0.10825  -0.23870  -2.87205
   D23        0.44650  -0.00595  -0.09789  -0.08797  -0.18750   0.25900
   D24        0.03416   0.00075  -0.00388   0.02189   0.01658   0.05074
   D25       -3.12112   0.00086   0.00957   0.00437   0.01295  -3.10816
   D26       -3.04658  -0.00114  -0.03573   0.00366  -0.03367  -3.08025
   D27        0.08133  -0.00103  -0.02227  -0.01387  -0.03730   0.04403
         Item               Value     Threshold  Converged?
 Maximum Force            0.034088     0.002500     NO 
 RMS     Force            0.006437     0.001667     NO 
 Maximum Displacement     0.422028     0.010000     NO 
 RMS     Displacement     0.114694     0.006667     NO 
 Predicted change in Energy=-1.797256D-02
 GradGradGradGradGradGradGradGradGradGradGradGradGradGradGradGradGradGrad

                          Input orientation:                          
 ---------------------------------------------------------------------
 Center     Atomic      Atomic             Coordinates (Angstroms)
 Number     Number       Type             X           Y           Z
 ---------------------------------------------------------------------
      1          8           0        3.938155    0.230842    0.266048
      2          1           0        2.873930    0.078039   -0.258744
      3          6           0        0.707043    0.197834   -0.509902
      4          6           0       -0.104828    1.293559   -0.063325
      5          6           0       -1.343421    1.055143    0.469009
      6          6           0       -1.809175   -0.265986    0.600318
[...]
 Harris functional with IExCor= 1009 diagonalized for initial guess.
 ExpMin= 4.38D-02 ExpMax= 8.59D+03 ExpMxC= 1.30D+03 IAcc=2 IRadAn=         1 AccDes= 0.00D+00
 HarFok:  IExCor= 1009 AccDes= 0.00D+00 IRadAn=         1 IDoV= 1
 ScaDFX=  1.000000  1.000000  1.000000  1.000000
 FoFCou: FMM=F IPFlag=           0 FMFlag=      100000 FMFlg1=           0
         NFxFlg=           0 DoJE=T BraDBF=F KetDBF=T FulRan=T
         Omega=  0.000000  0.000000  1.000000  0.000000  0.000000 ICntrl=     500 IOpCl=  0
         NMat0=    1 NMatS0=    1 NMatT0=    0 NMatD0=    1 NMtDS0=    0 NMtDT0=    0
         I1Cent=           4 NGrid=           0.
 Petite list used in FoFCou.
 Requested convergence on RMS density matrix=1.00D-08 within 128 cycles.
 Requested convergence on MAX density matrix=1.00D-06.
 Requested convergence on             energy=1.00D-06.
 No special actions if energy rises.
 Restarting incremental Fock formation.
 SCF Done:  E(UM062X) =  -382.494188458     A.U. after   32 cycles
             Convg  =    0.7369D-08             -V/T =  2.0031
 <Sx>= 0.0000 <Sy>= 0.0000 <Sz>= 1.0000 <S**2>= 2.0325 S= 1.0108
 <L.S>= 0.000000000000E+00
 Annihilation of the first spin contaminant:
 S**2 before annihilation     2.0325,   after     2.0005
 Calling FoFJK, ICntrl=      2127 FMM=F ISym2X=0 I1Cent= 0 IOpClX= 1 NMat=1 NMatS=1 NMatT=0.
 ***** Axes restored to original set *****
 -------------------------------------------------------------------
 Center     Atomic                   Forces (Hartrees/Bohr)
 Number     Number              X              Y              Z
 -------------------------------------------------------------------
      1        8           0.007418332    0.012344311   -0.000475114
      2        1           0.026437829   -0.047896487    0.005490038
      3        6           0.034932720    0.015062342   -0.016840279
      4        6          -0.020332767    0.006750233    0.006401027
      5        6           0.007853501    0.006643423   -0.000382923
      6        6          -0.003608895   -0.002750602   -0.000299022
      7        6           0.006661865   -0.000963494   -0.000929172
      8        6          -0.015341371   -0.020151886    0.005008492
      9        8          -0.043931264    0.028935321    0.006502483
     10        1          -0.000097807    0.000645939   -0.001286153
     11        1          -0.000495976    0.000758790   -0.000521943
     12        1           0.001146870    0.000750174    0.000610895
     13        1           0.000089248    0.000815563   -0.000829855
     14        1          -0.000732286   -0.000943627   -0.002448474
 -------------------------------------------------------------------
 Cartesian Forces:  Max     0.047896487 RMS     0.014739475

 GradGradGradGradGradGradGradGradGradGradGradGradGradGradGradGradGradGrad
 Berny optimization.
 Using GEDIIS/GDIIS optimizer.
 Internal  Forces:  Max     0.033424743 RMS     0.008423831
 Search for a local minimum.
 Step number   7 out of a maximum of   72
 All quantities printed in internal units (Hartrees-Bohrs-Radians)
 Mixed Optimization -- RFO/linear search
 Update second derivatives using D2CorX and points    5    7    6
 DE=  3.66D-03 DEPred=-1.47D-03 R=-2.50D+00
 Trust test=-2.50D+00 RLast= 1.31D+00 DXMaxT set to 9.93D-01
 ITU= -1  1  1  1  1  1  0
 Use linear search instead of GDIIS.
 Quartic linear search produced a step of -0.68250.
 Iteration  1 RMS(Cart)=  0.11774963 RMS(Int)=  0.08354205
 Iteration  2 RMS(Cart)=  0.05564720 RMS(Int)=  0.05537499
 Iteration  3 RMS(Cart)=  0.01874902 RMS(Int)=  0.02973233
 Iteration  4 RMS(Cart)=  0.01908341 RMS(Int)=  0.00448202
 Iteration  5 RMS(Cart)=  0.00381202 RMS(Int)=  0.00007112
 Iteration  6 RMS(Cart)=  0.00008169 RMS(Int)=  0.00003753
 Iteration  7 RMS(Cart)=  0.00000001 RMS(Int)=  0.00003753
 Iteration  1 RMS(Cart)=  0.00000008 RMS(Int)=  0.00000016
 Variable       Old X    -DE/DX   Delta X   Delta X   Delta X     New X
                                 (Linear)    (Quad)   (Total)
    R1        2.26083  -0.02442   0.00000   0.00000   0.00000   2.26083
    R2        4.34211   0.01606   0.00000   0.00000   0.00000   4.34211
    R3        2.16449   0.03342   0.00000   0.00000   0.00000   2.16449
    R4        2.65241   0.01679   0.02271   0.00000   0.02271   2.67513
    R5        2.65545   0.02092   0.02240   0.00000   0.02240   2.67785
    R6        2.46262  -0.01509  -0.01853   0.00000  -0.01853   2.44408
    R7        2.60786  -0.00795  -0.00852   0.00000  -0.00851   2.59935
    R8        2.04007   0.00062   0.00152   0.00000   0.00152   2.04159
    R9        2.63934   0.00440   0.00173   0.00000   0.00174   2.64108
   R10        2.04044   0.00072   0.00119   0.00000   0.00119   2.04163
   R11        2.64050   0.00366   0.00314   0.00000   0.00313   2.64363
   R12        2.04600  -0.00110  -0.00127   0.00000  -0.00127   2.04473
   R13        2.60387  -0.00486  -0.00756   0.00000  -0.00757   2.59630
   R14        2.04442  -0.00088  -0.00182   0.00000  -0.00182   2.04260
   R15        2.04367   0.00065   0.00025   0.00000   0.00025   2.04392
    A1        2.75303   0.01703   0.00000   0.00000   0.00001   2.75304
    A2        2.11189  -0.00711  -0.02098   0.00000  -0.02094   2.09096
    A3        2.07316  -0.00514   0.00908   0.00000   0.00906   2.08221
    A4        2.09794   0.01223   0.01178   0.00000   0.01176   2.10970
    A5        2.07898   0.00263   0.00986   0.00000   0.00990   2.08888
    A6        2.06771  -0.00150  -0.01159   0.00000  -0.01161   2.05610
    A7        2.13638  -0.00113   0.00179   0.00000   0.00177   2.13815
    A8        2.09092   0.00082   0.00265   0.00000   0.00271   2.09363
    A9        2.10099  -0.00076  -0.00115   0.00000  -0.00117   2.09982
   A10        2.09094  -0.00005  -0.00131   0.00000  -0.00133   2.08961
   A11        2.10984   0.00238  -0.00109   0.00000  -0.00105   2.10878
   A12        2.08941  -0.00175  -0.00233   0.00000  -0.00234   2.08706
   A13        2.08394  -0.00063   0.00341   0.00000   0.00339   2.08734
   A14        2.09235   0.00199   0.00195   0.00000   0.00198   2.09433
   A15        2.09467  -0.00088  -0.00377   0.00000  -0.00377   2.09090
   A16        2.09607  -0.00111   0.00188   0.00000   0.00187   2.09794
   A17        2.07896  -0.00061   0.00956   0.00000   0.00960   2.08856
   A18        2.07231   0.00103  -0.01023   0.00000  -0.01023   2.06209
   A19        2.13146  -0.00040   0.00096   0.00000   0.00096   2.13242
   A20        1.89033   0.02765   0.11834   0.00000   0.11834   2.00867
    D1        0.17502  -0.00380  -0.79263   0.00000  -0.79263  -0.61761
    D2       -0.09248   0.00146   0.03746   0.00000   0.03749  -0.05499
    D3        3.06501   0.00140   0.03207   0.00000   0.03214   3.09715
    D4        3.02795   0.00045   0.03209   0.00000   0.03207   3.06002
    D5       -0.09775   0.00038   0.02671   0.00000   0.02672  -0.07104
    D6        0.06831  -0.00133  -0.02646   0.00000  -0.02650   0.04181
    D7       -3.04148  -0.00219  -0.04209   0.00000  -0.04218  -3.08366
    D8       -3.05181  -0.00009  -0.02097   0.00000  -0.02095  -3.07276
    D9        0.12158  -0.00095  -0.03659   0.00000  -0.03663   0.08495
   D10        2.64679  -0.00235  -0.26211   0.00000  -0.26210   2.38469
   D11       -0.51580  -0.00359  -0.26799   0.00000  -0.26799  -0.78379
   D12        0.05097  -0.00051  -0.02123   0.00000  -0.02113   0.02983
   D13       -3.11838  -0.00002  -0.01013   0.00000  -0.01006  -3.12843
   D14       -3.10717  -0.00045  -0.01569   0.00000  -0.01564  -3.12281
   D15        0.00667   0.00004  -0.00459   0.00000  -0.00456   0.00210
   D16        0.01319  -0.00013  -0.00473   0.00000  -0.00467   0.00851
   D17       -3.12956  -0.00006  -0.00072   0.00000  -0.00073  -3.13029
   D18       -3.10082  -0.00060  -0.01576   0.00000  -0.01569  -3.11650
   D19        0.03962  -0.00053  -0.01176   0.00000  -0.01174   0.02788
   D20       -0.03767   0.00032   0.01589   0.00000   0.01585  -0.02182
   D21        3.08895   0.00080   0.02466   0.00000   0.02459   3.11354
   D22        3.10507   0.00025   0.01188   0.00000   0.01190   3.11698
   D23       -0.05149   0.00073   0.02065   0.00000   0.02064  -0.03085
   D24       -0.00305   0.00006  -0.00058   0.00000  -0.00067  -0.00372
   D25        3.10562   0.00098   0.01554   0.00000   0.01546   3.12108
   D26       -3.12966  -0.00042  -0.00935   0.00000  -0.00940  -3.13905
   D27       -0.02099   0.00050   0.00677   0.00000   0.00673  -0.01426
         Item               Value     Threshold  Converged?
 Maximum Force            0.027647     0.002500     NO 
 RMS     Force            0.006020     0.001667     NO 
 Maximum Displacement     0.844210     0.010000     NO 
 RMS     Displacement     0.204491     0.006667     NO 
 Predicted change in Energy=-2.058947D-03
 GradGradGradGradGradGradGradGradGradGradGradGradGradGradGradGradGradGrad

                          Input orientation:                          
 ---------------------------------------------------------------------
 Center     Atomic      Atomic             Coordinates (Angstroms)
 Number     Number       Type             X           Y           Z
 ---------------------------------------------------------------------
      1          8           0        3.425033   -0.623500    0.105023
      2          1           0        2.753245    0.041590   -0.628248
      3          6           0        0.728163    0.367599   -0.444552
      4          6           0       -0.133274    1.387341    0.026641
      5          6           0       -1.387856    1.060701    0.486399
      6          6           0       -1.792558   -0.276601    0.519860
      7          6           0       -0.932285   -1.296609    0.099652
      8          6           0        0.318521   -0.987285   -0.377221
      9          8           0        1.869753    0.691072   -0.959237
     10          1           0        0.228085    2.405093   -0.001238
     11          1           0       -2.058069    1.832164    0.836954
     12          1           0       -2.784595   -0.525765    0.872792
     13          1           0       -1.252814   -2.327296    0.156985
     14          1           0        1.018751   -1.748404   -0.693810
 ---------------------------------------------------------------------
                    Distance matrix (angstroms):
                    1          2          3          4          5
     1  O    0.000000
     2  H    1.196382   0.000000
     3  C    2.925306   2.059365   0.000000
     4  C    4.087930   3.251449   1.415617   0.000000
     5  C    5.113304   4.407919   2.413420   1.375516   0.000000
     6  C    5.245540   4.699333   2.774729   2.401081   1.397598
     7  C    4.409005   3.987951   2.413056   2.801310   2.431878
     8  C    3.164698   2.655086   1.417057   2.450728   2.802108
     9  O    2.297747   1.145399   1.293353   2.338560   3.583086
    10  H    4.405013   3.515071   2.144292   1.080360   2.157880
    11  H    6.052306   5.338700   3.398572   2.135253   1.080383
    12  H    6.257675   5.765647   3.856548   3.377194   2.148733
    13  H    4.978742   4.719823   3.398320   3.881866   3.406651
    14  H    2.773758   2.493360   2.150358   3.417471   3.882747
                    6          7          8          9         10
     6  C    0.000000
     7  C    1.398950   0.000000
     8  C    2.401350   1.373902   0.000000
     9  O    4.066527   3.594933   2.358377   0.000000
    10  H    3.397944   3.880624   3.414348   2.559435   0.000000
    11  H    2.148937   3.405910   3.882227   4.467233   2.501462
    12  H    1.082025   2.150115   3.377108   5.147812   4.293029
    13  H    2.151361   1.080898   2.133097   4.484074   4.961210
    14  H    3.397450   2.154123   1.081598   2.597248   4.284431
                   11         12         13         14
    11  H    0.000000
    12  H    2.467580   0.000000
    13  H    4.290908   2.470677   0.000000
    14  H    4.962915   4.291215   2.493788   0.000000
 Stoichiometry    C6H6O2(3)
 Framework group  C1[X(C6H6O2)]
 Deg. of freedom    36
 Full point group                 C1      NOp   1
 Largest Abelian subgroup         C1      NOp   1
 Largest concise Abelian subgroup C1      NOp   1
                         Standard orientation:                         
 ---------------------------------------------------------------------
 Center     Atomic      Atomic             Coordinates (Angstroms)
 Number     Number       Type             X           Y           Z
 ---------------------------------------------------------------------
      1          8           0       -3.018966    0.496881    0.688294
      2          1           0       -2.444029   -0.169862   -0.121787
      3          6           0       -0.401371   -0.376042   -0.283106
      4          6           0        0.590569   -1.320944    0.073526
      5          6           0        1.882911   -0.902868    0.290573
      6          6           0        2.203011    0.454112    0.193506
      7          6           0        1.221022    1.402105   -0.113202
      8          6           0       -0.071652    1.000569   -0.348506
      9          8           0       -1.592354   -0.787860   -0.574188
     10          1           0        0.294089   -2.356674    0.154413
     11          1           0        2.650512   -1.617036    0.551299
     12          1           0        3.223638    0.775030    0.355095
     13          1           0        1.481658    2.450130   -0.158509
     14          1           0       -0.862235    1.704651   -0.570094
 ---------------------------------------------------------------------
 Rotational constants (GHZ):      4.2129355      1.4221598      1.1487074
 Standard basis: 6-311+G(2df,2p) (5D, 7F)
 There are   326 symmetry adapted basis functions of A   symmetry.
 Integral buffers will be    131072 words long.
 Raffenetti 2 integral format.
 Two-electron integral symmetry is turned on.
   326 basis functions,   482 primitive gaussians,   366 cartesian basis functions
    30 alpha electrons       28 beta electrons
       nuclear repulsion energy       333.4813557839 Hartrees.
 NAtoms=   14 NActive=   14 NUniq=   14 SFac= 1.00D+00 NAtFMM=   50 NAOKFM=F Big=F
 One-electron integrals computed using PRISM.
 NBasis=   326 RedAO= T  NBF=   326
 NBsUse=   326 1.00D-06 NBFU=   326
 Initial guess read from the read-write file.
 B after Tr=     0.000000    0.000000    0.000000
         Rot=    1.000000    0.000000    0.000000    0.000000 Ang=   0.00 deg.
 Initial guess orbital symmetries:
 Alpha Orbitals:
       Occupied  (A) (A) (A) (A) (A) (A) (A) (A) (A) (A) (A) (A)
                 (A) (A) (A) (A) (A) (A) (A) (A) (A) (A) (A) (A)
                 (A) (A) (A) (A) (A) (A)
       Virtual   (A) (A) (A) (A) (A) (A) (A) (A) (A) (A) (A) (A)
                 (A) (A) (A) (A) (A) (A) (A) (A) (A) (A) (A) (A)
                 (A) (A) (A) (A) (A) (A) (A) (A) (A) (A) (A) (A)
                 (A) (A) (A) (A) (A) (A) (A) (A) (A) (A) (A) (A)
                 (A) (A) (A) (A) (A) (A) (A) (A) (A) (A) (A) (A)
                 (A) (A) (A) (A) (A) (A) (A) (A) (A) (A) (A) (A)
                 (A) (A) (A) (A) (A) (A) (A) (A) (A) (A) (A) (A)
                 (A) (A) (A) (A) (A) (A) (A) (A) (A) (A) (A) (A)
                 (A) (A) (A) (A) (A) (A) (A) (A) (A) (A) (A) (A)
                 (A) (A) (A) (A) (A) (A) (A) (A) (A) (A) (A) (A)
                 (A) (A) (A) (A) (A) (A) (A) (A) (A) (A) (A) (A)
                 (A) (A) (A) (A) (A) (A) (A) (A) (A) (A) (A) (A)
                 (A) (A) (A) (A) (A) (A) (A) (A) (A) (A) (A) (A)
                 (A) (A) (A) (A) (A) (A) (A) (A) (A) (A) (A) (A)
                 (A) (A) (A) (A) (A) (A) (A) (A) (A) (A) (A) (A)
                 (A) (A) (A) (A) (A) (A) (A) (A) (A) (A) (A) (A)
                 (A) (A) (A) (A) (A) (A) (A) (A) (A) (A) (A) (A)
                 (A) (A) (A) (A) (A) (A) (A) (A) (A) (A) (A) (A)
                 (A) (A) (A) (A) (A) (A) (A) (A) (A) (A) (A) (A)
                 (A) (A) (A) (A) (A) (A) (A) (A) (A) (A) (A) (A)
                 (A) (A) (A) (A) (A) (A) (A) (A) (A) (A) (A) (A)
                 (A) (A) (A) (A) (A) (A) (A) (A) (A) (A) (A) (A)
                 (A) (A) (A) (A) (A) (A) (A) (A) (A) (A) (A) (A)
                 (A) (A) (A) (A) (A) (A) (A) (A) (A) (A) (A) (A)
                 (A) (A) (A) (A) (A) (A) (A) (A)
 Beta  Orbitals:
       Occupied  (A) (A) (A) (A) (A) (A) (A) (A) (A) (A) (A) (A)
                 (A) (A) (A) (A) (A) (A) (A) (A) (A) (A) (A) (A)
                 (A) (A) (A) (A)
       Virtual   (A) (A) (A) (A) (A) (A) (A) (A) (A) (A) (A) (A)
                 (A) (A) (A) (A) (A) (A) (A) (A) (A) (A) (A) (A)
                 (A) (A) (A) (A) (A) (A) (A) (A) (A) (A) (A) (A)
                 (A) (A) (A) (A) (A) (A) (A) (A) (A) (A) (A) (A)
                 (A) (A) (A) (A) (A) (A) (A) (A) (A) (A) (A) (A)
                 (A) (A) (A) (A) (A) (A) (A) (A) (A) (A) (A) (A)
                 (A) (A) (A) (A) (A) (A) (A) (A) (A) (A) (A) (A)
                 (A) (A) (A) (A) (A) (A) (A) (A) (A) (A) (A) (A)
                 (A) (A) (A) (A) (A) (A) (A) (A) (A) (A) (A) (A)
                 (A) (A) (A) (A) (A) (A) (A) (A) (A) (A) (A) (A)
                 (A) (A) (A) (A) (A) (A) (A) (A) (A) (A) (A) (A)
                 (A) (A) (A) (A) (A) (A) (A) (A) (A) (A) (A) (A)
                 (A) (A) (A) (A) (A) (A) (A) (A) (A) (A) (A) (A)
                 (A) (A) (A) (A) (A) (A) (A) (A) (A) (A) (A) (A)
                 (A) (A) (A) (A) (A) (A) (A) (A) (A) (A) (A) (A)
                 (A) (A) (A) (A) (A) (A) (A) (A) (A) (A) (A) (A)
                 (A) (A) (A) (A) (A) (A) (A) (A) (A) (A) (A) (A)
                 (A) (A) (A) (A) (A) (A) (A) (A) (A) (A) (A) (A)
                 (A) (A) (A) (A) (A) (A) (A) (A) (A) (A) (A) (A)
                 (A) (A) (A) (A) (A) (A) (A) (A) (A) (A) (A) (A)
                 (A) (A) (A) (A) (A) (A) (A) (A) (A) (A) (A) (A)
                 (A) (A) (A) (A) (A) (A) (A) (A) (A) (A) (A) (A)
                 (A) (A) (A) (A) (A) (A) (A) (A) (A) (A) (A) (A)
                 (A) (A) (A) (A) (A) (A) (A) (A) (A) (A) (A) (A)
                 (A) (A) (A) (A) (A) (A) (A) (A) (A) (A)
 Initial guess <Sx>= 0.0000 <Sy>= 0.0000 <Sz>= 1.0000 <S**2>= 2.0337 S= 1.0112
 Harris functional with IExCor= 1009 diagonalized for initial guess.
 ExpMin= 4.38D-02 ExpMax= 8.59D+03 ExpMxC= 1.30D+03 IAcc=2 IRadAn=         1 AccDes= 0.00D+00
 HarFok:  IExCor= 1009 AccDes= 0.00D+00 IRadAn=         1 IDoV= 1
 ScaDFX=  1.000000  1.000000  1.000000  1.000000
 FoFCou: FMM=F IPFlag=           0 FMFlag=      100000 FMFlg1=           0
         NFxFlg=           0 DoJE=T BraDBF=F KetDBF=T FulRan=T
         Omega=  0.000000  0.000000  1.000000  0.000000  0.000000 ICntrl=     500 IOpCl=  0
         NMat0=    1 NMatS0=    1 NMatT0=    0 NMatD0=    1 NMtDS0=    0 NMtDT0=    0
         I1Cent=           4 NGrid=           0.
 Petite list used in FoFCou.
 Requested convergence on RMS density matrix=1.00D-08 within 128 cycles.
 Requested convergence on MAX density matrix=1.00D-06.
 Requested convergence on             energy=1.00D-06.
 No special actions if energy rises.
 Restarting incremental Fock formation.
 Restarting incremental Fock formation.
 Restarting incremental Fock formation.
 Restarting incremental Fock formation.
 Restarting incremental Fock formation.
 Restarting incremental Fock formation.
 >>>>>>>>>> Convergence criterion not met.
 SCF Done:  E(UM062X) =  -382.498576149     A.U. after  129 cycles
             Convg  =    0.2712D-06             -V/T =  2.0033
 <Sx>= 0.0000 <Sy>= 0.0000 <Sz>= 1.0000 <S**2>= 2.0318 S= 1.0106
 <L.S>= 0.000000000000E+00
 Annihilation of the first spin contaminant:
 S**2 before annihilation     2.0318,   after     2.0005
 Convergence failure -- run terminated.
 Error termination via Lnk1e in /shared/apps/gaussian/G09_LINUX_LINDA/g09/l502.exe at Sun Aug 20 02:18:45 2017.
 Job cpu time:  0 days 15 hours 49 minutes 48.2 seconds.
 File lengths (MBytes):  RWF=   1312 Int=      0 D2E=      0 Chk=     32 Scr=     32
