 Entering Gaussian System, Link 0=/shared/apps/gaussian/G09_LINUX_LINDA/g09/g09
 Input=/gss_gpfs_scratch/harms.n/QMscratch/[OH]+[O]OC=O_O=COO+[O]Est.gjf
 Output=/gss_gpfs_scratch/harms.n/QMscratch/[OH]+[O]OC=O_O=COO+[O]Est.log
 Initial command:
 /shared/apps/gaussian/G09_LINUX_LINDA/g09/l1.exe /gss_gpfs_scratch/harms.n/comparerTST/Gau-605.inp -scrdir=/gss_gpfs_scratch/harms.n/comparerTST/
 Entering Link 1 = /shared/apps/gaussian/G09_LINUX_LINDA/g09/l1.exe PID=       606.
  
 Copyright (c) 1988,1990,1992,1993,1995,1998,2003,2009,2010,
            Gaussian, Inc.  All Rights Reserved.
  
 This is part of the Gaussian(R) 09 program.  It is based on
 the Gaussian(R) 03 system (copyright 2003, Gaussian, Inc.),
 the Gaussian(R) 98 system (copyright 1998, Gaussian, Inc.),
 the Gaussian(R) 94 system (copyright 1995, Gaussian, Inc.),
 the Gaussian 92(TM) system (copyright 1992, Gaussian, Inc.),
 the Gaussian 90(TM) system (copyright 1990, Gaussian, Inc.),
 the Gaussian 88(TM) system (copyright 1988, Gaussian, Inc.),
 the Gaussian 86(TM) system (copyright 1986, Carnegie Mellon
 University), and the Gaussian 82(TM) system (copyright 1983,
 Carnegie Mellon University). Gaussian is a federally registered
 trademark of Gaussian, Inc.
  
 This software contains proprietary and confidential information,
 including trade secrets, belonging to Gaussian, Inc.
  
 This software is provided under written license and may be
 used, copied, transmitted, or stored only in accord with that
 written license.
  
 The following legend is applicable only to US Government
 contracts under FAR:
  
                    RESTRICTED RIGHTS LEGEND
  
 Use, reproduction and disclosure by the US Government is
 subject to restrictions as set forth in subparagraphs (a)
 and (c) of the Commercial Computer Software - Restricted
 Rights clause in FAR 52.227-19.
  
 Gaussian, Inc.
 340 Quinnipiac St., Bldg. 40, Wallingford CT 06492
  
  
 ---------------------------------------------------------------
 Warning -- This program may not be used in any manner that
 competes with the business of Gaussian, Inc. or will provide
 assistance to any competitor of Gaussian, Inc.  The licensee
 of this program is prohibited from giving any competitor of
 Gaussian, Inc. access to this program.  By using this program,
 the user acknowledges that Gaussian, Inc. is engaged in the
 business of creating and licensing software in the field of
 computational chemistry and represents and warrants to the
 licensee that it is not a competitor of Gaussian, Inc. and that
 it will not use this program in any manner prohibited above.
 ---------------------------------------------------------------
  

 Cite this work as:
 Gaussian 09, Revision B.01,
 M. J. Frisch, G. W. Trucks, H. B. Schlegel, G. E. Scuseria, 
 M. A. Robb, J. R. Cheeseman, G. Scalmani, V. Barone, B. Mennucci, 
 G. A. Petersson, H. Nakatsuji, M. Caricato, X. Li, H. P. Hratchian, 
 A. F. Izmaylov, J. Bloino, G. Zheng, J. L. Sonnenberg, M. Hada, 
 M. Ehara, K. Toyota, R. Fukuda, J. Hasegawa, M. Ishida, T. Nakajima, 
 Y. Honda, O. Kitao, H. Nakai, T. Vreven, J. A. Montgomery, Jr., 
 J. E. Peralta, F. Ogliaro, M. Bearpark, J. J. Heyd, E. Brothers, 
 K. N. Kudin, V. N. Staroverov, T. Keith, R. Kobayashi, J. Normand, 
 K. Raghavachari, A. Rendell, J. C. Burant, S. S. Iyengar, J. Tomasi, 
 M. Cossi, N. Rega, J. M. Millam, M. Klene, J. E. Knox, J. B. Cross, 
 V. Bakken, C. Adamo, J. Jaramillo, R. Gomperts, R. E. Stratmann, 
 O. Yazyev, A. J. Austin, R. Cammi, C. Pomelli, J. W. Ochterski, 
 R. L. Martin, K. Morokuma, V. G. Zakrzewski, G. A. Voth, 
 P. Salvador, J. J. Dannenberg, S. Dapprich, A. D. Daniels, 
 O. Farkas, J. B. Foresman, J. V. Ortiz, J. Cioslowski, 
 and D. J. Fox, Gaussian, Inc., Wallingford CT, 2010.
 
 ******************************************
 Gaussian 09:  EM64L-G09RevB.01 12-Aug-2010
                 1-Aug-2017 
 ******************************************
 %nprocshared=20
 Will use up to   20 processors via shared memory.
 %mem=5GB
 ----------------------------------------------------------
 # m062x/6-311+g(2df,2p) Opt=(ModRedun,Loose) Int(Grid=SG1)
 ----------------------------------------------------------
 1/7=-1,14=-1,18=120,19=15,26=2,38=1/1,3;
 2/9=110,12=2,17=6,18=5,40=1/2;
 3/5=4,6=6,7=214,11=2,16=1,25=1,30=1,71=1,74=-55,75=1/1,2,3;
 4//1;
 5/5=2,38=5/2;
 6/7=2,8=2,9=2,10=2,28=1/1;
 7//1,2,3,16;
 1/7=-1,14=-1,18=20,19=15/3(2);
 2/9=110/2;
 99//99;
 2/9=110/2;
 3/5=4,6=6,7=214,11=2,16=1,25=1,30=1,71=1,74=-55,75=1/1,2,3;
 4/5=5,16=3/1;
 5/5=2,38=5/2;
 7//1,2,3,16;
 1/7=-1,14=-1,18=20,19=15/3(-5);
 2/9=110/2;
 6/7=2,8=2,9=2,10=2,19=2,28=1/1;
 99/9=1/99;
 ----------------------
 [OH]+[O]OC=O_O=COO+[O]
 ----------------------
 Symbolic Z-matrix:
 Charge =  0 Multiplicity = 3
 O                     2.9432    0.149    -0.4904 
 H                     1.7489   -0.1092   -0.0557 
 C                    -1.4799   -0.0304   -0.0087 
 O                    -0.4104   -0.4408    0.7913 
 O                    -1.4471    1.182    -0.3769 
 H                    -2.1987   -0.7432   -0.4163 
 O                     0.844    -0.0073    0.5566 
 
 The following ModRedundant input section has been read:
 B       1       2 F                                                           
 B       1       7 F                                                           
 B       2       7 F                                                           

 GradGradGradGradGradGradGradGradGradGradGradGradGradGradGradGradGradGrad
 Berny optimization.
 Initialization pass.
                           ----------------------------
                           !    Initial Parameters    !
                           ! (Angstroms and Degrees)  !
 --------------------------                            --------------------------
 ! Name  Definition              Value          Derivative Info.                !
 --------------------------------------------------------------------------------
 ! R1    R(1,2)                  1.2969         Frozen                          !
 ! R2    R(1,7)                  2.351          Frozen                          !
 ! R3    R(2,7)                  1.0973         Frozen                          !
 ! R4    R(3,4)                  1.3972         estimate D2E/DX2                !
 ! R5    R(3,5)                  1.2675         estimate D2E/DX2                !
 ! R6    R(3,6)                  1.0913         estimate D2E/DX2                !
 ! R7    R(4,7)                  1.3478         estimate D2E/DX2                !
 ! A1    A(1,2,7)              158.1143         estimate D2E/DX2                !
 ! A2    A(4,3,5)              115.3072         estimate D2E/DX2                !
 ! A3    A(4,3,6)              121.7476         estimate D2E/DX2                !
 ! A4    A(5,3,6)              122.2305         estimate D2E/DX2                !
 ! A5    A(3,4,7)              121.2135         estimate D2E/DX2                !
 ! A6    A(2,7,4)              146.5948         estimate D2E/DX2                !
 ! D1    D(1,2,7,4)            176.505          estimate D2E/DX2                !
 ! D2    D(5,3,4,7)            -38.6462         estimate D2E/DX2                !
 ! D3    D(6,3,4,7)            131.8686         estimate D2E/DX2                !
 ! D4    D(4,3,5,6)            170.4642         estimate D2E/DX2                !
 ! D5    D(3,4,7,2)            -78.5325         estimate D2E/DX2                !
 --------------------------------------------------------------------------------
 Trust Radius=3.00D-01 FncErr=1.00D-05 GrdErr=1.00D-04
 Number of steps in this run=     28 maximum allowed number of steps=    100.
 GradGradGradGradGradGradGradGradGradGradGradGradGradGradGradGradGradGrad

                          Input orientation:                          
 ---------------------------------------------------------------------
 Center     Atomic      Atomic             Coordinates (Angstroms)
 Number     Number       Type             X           Y           Z
 ---------------------------------------------------------------------
      1          8           0        2.943200    0.149000   -0.490400
      2          1           0        1.748900   -0.109200   -0.055700
      3          6           0       -1.479900   -0.030400   -0.008700
      4          8           0       -0.410400   -0.440800    0.791300
      5          8           0       -1.447100    1.182000   -0.376900
      6          1           0       -2.198700   -0.743200   -0.416300
      7          8           0        0.844000   -0.007300    0.556600
 ---------------------------------------------------------------------
                    Distance matrix (angstroms):
                    1          2          3          4          5
     1  O    0.000000
     2  H    1.296913   0.000000
     3  C    4.452868   3.230103   0.000000
     4  O    3.638303   2.343063   1.397232   0.000000
     5  O    4.511619   3.461905   1.267502   2.252314   0.000000
     6  H    5.219257   4.014416   1.091281   2.178936   2.067087
     7  O    2.351017   1.097333   2.391779   1.347785   2.744995
                    6          7
     6  H    0.000000
     7  O    3.278125   0.000000
 Stoichiometry    CH2O4(3)
 Framework group  C1[X(CH2O4)]
 Deg. of freedom    15
 Full point group                 C1      NOp   1
 Largest Abelian subgroup         C1      NOp   1
 Largest concise Abelian subgroup C1      NOp   1
                         Standard orientation:                         
 ---------------------------------------------------------------------
 Center     Atomic      Atomic             Coordinates (Angstroms)
 Number     Number       Type             X           Y           Z
 ---------------------------------------------------------------------
      1          8           0       -2.807512    0.445320    0.187642
      2          1           0       -1.616047   -0.064448    0.137318
      3          6           0        1.608001   -0.112607    0.329061
      4          8           0        0.551247   -0.925705   -0.088553
      5          8           0        1.648100    1.038299   -0.200436
      6          1           0        2.250561   -0.390886    1.166063
      7          8           0       -0.677149   -0.416541   -0.308373
 ---------------------------------------------------------------------
 Rotational constants (GHZ):     11.8370281      2.2362921      1.9610160
 Standard basis: 6-311+G(2df,2p) (5D, 7F)
 There are   188 symmetry adapted basis functions of A   symmetry.
 Integral buffers will be    131072 words long.
 Raffenetti 2 integral format.
 Two-electron integral symmetry is turned on.
   188 basis functions,   282 primitive gaussians,   213 cartesian basis functions
    21 alpha electrons       19 beta electrons
       nuclear repulsion energy       158.5359996015 Hartrees.
 NAtoms=    7 NActive=    7 NUniq=    7 SFac= 1.00D+00 NAtFMM=   50 NAOKFM=F Big=F
 One-electron integrals computed using PRISM.
 NBasis=   188 RedAO= T  NBF=   188
 NBsUse=   188 1.00D-06 NBFU=   188
 Harris functional with IExCor= 1009 diagonalized for initial guess.
 ExpMin= 4.38D-02 ExpMax= 8.59D+03 ExpMxC= 1.30D+03 IAcc=2 IRadAn=         1 AccDes= 0.00D+00
 HarFok:  IExCor= 1009 AccDes= 0.00D+00 IRadAn=         1 IDoV= 1
 ScaDFX=  1.000000  1.000000  1.000000  1.000000
 FoFCou: FMM=F IPFlag=           0 FMFlag=      100000 FMFlg1=           0
         NFxFlg=           0 DoJE=T BraDBF=F KetDBF=T FulRan=T
         Omega=  0.000000  0.000000  1.000000  0.000000  0.000000 ICntrl=     500 IOpCl=  0
         NMat0=    1 NMatS0=    1 NMatT0=    0 NMatD0=    1 NMtDS0=    0 NMtDT0=    0
         I1Cent=           4 NGrid=           0.
 Petite list used in FoFCou.
 Initial guess orbital symmetries:
 Alpha Orbitals:
       Occupied  (A) (A) (A) (A) (A) (A) (A) (A) (A) (A) (A) (A)
                 (A) (A) (A) (A) (A) (A) (A) (A) (A)
       Virtual   (A) (A) (A) (A) (A) (A) (A) (A) (A) (A) (A) (A)
                 (A) (A) (A) (A) (A) (A) (A) (A) (A) (A) (A) (A)
                 (A) (A) (A) (A) (A) (A) (A) (A) (A) (A) (A) (A)
                 (A) (A) (A) (A) (A) (A) (A) (A) (A) (A) (A) (A)
                 (A) (A) (A) (A) (A) (A) (A) (A) (A) (A) (A) (A)
                 (A) (A) (A) (A) (A) (A) (A) (A) (A) (A) (A) (A)
                 (A) (A) (A) (A) (A) (A) (A) (A) (A) (A) (A) (A)
                 (A) (A) (A) (A) (A) (A) (A) (A) (A) (A) (A) (A)
                 (A) (A) (A) (A) (A) (A) (A) (A) (A) (A) (A) (A)
                 (A) (A) (A) (A) (A) (A) (A) (A) (A) (A) (A) (A)
                 (A) (A) (A) (A) (A) (A) (A) (A) (A) (A) (A) (A)
                 (A) (A) (A) (A) (A) (A) (A) (A) (A) (A) (A) (A)
                 (A) (A) (A) (A) (A) (A) (A) (A) (A) (A) (A) (A)
                 (A) (A) (A) (A) (A) (A) (A) (A) (A) (A) (A)
 Beta  Orbitals:
       Occupied  (A) (A) (A) (A) (A) (A) (A) (A) (A) (A) (A) (A)
                 (A) (A) (A) (A) (A) (A) (A)
       Virtual   (A) (A) (A) (A) (A) (A) (A) (A) (A) (A) (A) (A)
                 (A) (A) (A) (A) (A) (A) (A) (A) (A) (A) (A) (A)
                 (A) (A) (A) (A) (A) (A) (A) (A) (A) (A) (A) (A)
                 (A) (A) (A) (A) (A) (A) (A) (A) (A) (A) (A) (A)
                 (A) (A) (A) (A) (A) (A) (A) (A) (A) (A) (A) (A)
                 (A) (A) (A) (A) (A) (A) (A) (A) (A) (A) (A) (A)
                 (A) (A) (A) (A) (A) (A) (A) (A) (A) (A) (A) (A)
                 (A) (A) (A) (A) (A) (A) (A) (A) (A) (A) (A) (A)
                 (A) (A) (A) (A) (A) (A) (A) (A) (A) (A) (A) (A)
                 (A) (A) (A) (A) (A) (A) (A) (A) (A) (A) (A) (A)
                 (A) (A) (A) (A) (A) (A) (A) (A) (A) (A) (A) (A)
                 (A) (A) (A) (A) (A) (A) (A) (A) (A) (A) (A) (A)
                 (A) (A) (A) (A) (A) (A) (A) (A) (A) (A) (A) (A)
                 (A) (A) (A) (A) (A) (A) (A) (A) (A) (A) (A) (A)
                 (A)
 The electronic state of the initial guess is 3-A.
 Initial guess <Sx>= 0.0000 <Sy>= 0.0000 <Sz>= 1.0000 <S**2>= 2.0000 S= 1.0000
 Requested convergence on RMS density matrix=1.00D-08 within 128 cycles.
 Requested convergence on MAX density matrix=1.00D-06.
 Requested convergence on             energy=1.00D-06.
 No special actions if energy rises.
 Keep R1 and R2 ints in memory in canonical form, NReq=524537020.
 EnCoef did     6 forward-backward iterations
 SCF Done:  E(UM062X) =  -339.853930151     A.U. after   38 cycles
             Convg  =    0.6547D-08             -V/T =  2.0037
 <Sx>= 0.0000 <Sy>= 0.0000 <Sz>= 1.0000 <S**2>= 2.0284 S= 1.0094
 <L.S>= 0.000000000000E+00
 Annihilation of the first spin contaminant:
 S**2 before annihilation     2.0284,   after     2.0002

 **********************************************************************

            Population analysis using the SCF density.

 **********************************************************************

 Orbital symmetries:
 Alpha Orbitals:
       Occupied  (A) (A) (A) (A) (A) (A) (A) (A) (A) (A) (A) (A)
                 (A) (A) (A) (A) (A) (A) (A) (A) (A)
       Virtual   (A) (A) (A) (A) (A) (A) (A) (A) (A) (A) (A) (A)
                 (A) (A) (A) (A) (A) (A) (A) (A) (A) (A) (A) (A)
                 (A) (A) (A) (A) (A) (A) (A) (A) (A) (A) (A) (A)
                 (A) (A) (A) (A) (A) (A) (A) (A) (A) (A) (A) (A)
                 (A) (A) (A) (A) (A) (A) (A) (A) (A) (A) (A) (A)
                 (A) (A) (A) (A) (A) (A) (A) (A) (A) (A) (A) (A)
                 (A) (A) (A) (A) (A) (A) (A) (A) (A) (A) (A) (A)
                 (A) (A) (A) (A) (A) (A) (A) (A) (A) (A) (A) (A)
                 (A) (A) (A) (A) (A) (A) (A) (A) (A) (A) (A) (A)
                 (A) (A) (A) (A) (A) (A) (A) (A) (A) (A) (A) (A)
                 (A) (A) (A) (A) (A) (A) (A) (A) (A) (A) (A) (A)
                 (A) (A) (A) (A) (A) (A) (A) (A) (A) (A) (A) (A)
                 (A) (A) (A) (A) (A) (A) (A) (A) (A) (A) (A) (A)
                 (A) (A) (A) (A) (A) (A) (A) (A) (A) (A) (A)
 Beta  Orbitals:
       Occupied  (A) (A) (A) (A) (A) (A) (A) (A) (A) (A) (A) (A)
                 (A) (A) (A) (A) (A) (A) (A)
       Virtual   (A) (A) (A) (A) (A) (A) (A) (A) (A) (A) (A) (A)
                 (A) (A) (A) (A) (A) (A) (A) (A) (A) (A) (A) (A)
                 (A) (A) (A) (A) (A) (A) (A) (A) (A) (A) (A) (A)
                 (A) (A) (A) (A) (A) (A) (A) (A) (A) (A) (A) (A)
                 (A) (A) (A) (A) (A) (A) (A) (A) (A) (A) (A) (A)
                 (A) (A) (A) (A) (A) (A) (A) (A) (A) (A) (A) (A)
                 (A) (A) (A) (A) (A) (A) (A) (A) (A) (A) (A) (A)
                 (A) (A) (A) (A) (A) (A) (A) (A) (A) (A) (A) (A)
                 (A) (A) (A) (A) (A) (A) (A) (A) (A) (A) (A) (A)
                 (A) (A) (A) (A) (A) (A) (A) (A) (A) (A) (A) (A)
                 (A) (A) (A) (A) (A) (A) (A) (A) (A) (A) (A) (A)
                 (A) (A) (A) (A) (A) (A) (A) (A) (A) (A) (A) (A)
                 (A) (A) (A) (A) (A) (A) (A) (A) (A) (A) (A) (A)
                 (A) (A) (A) (A) (A) (A) (A) (A) (A) (A) (A) (A)
                 (A)
 The electronic state is 3-A.
 Alpha  occ. eigenvalues --  -19.77988 -19.74778 -19.73711 -19.67988 -10.73529
 Alpha  occ. eigenvalues --   -1.35998  -1.19475  -1.14397  -1.06718  -0.79645
 Alpha  occ. eigenvalues --   -0.68904  -0.64599  -0.62109  -0.56170  -0.53252
 Alpha  occ. eigenvalues --   -0.51792  -0.48816  -0.47587  -0.44419  -0.41260
 Alpha  occ. eigenvalues --   -0.40065
 Alpha virt. eigenvalues --   -0.05944   0.00681   0.02880   0.03918   0.04571
 Alpha virt. eigenvalues --    0.06643   0.13195   0.14568   0.15137   0.17435
 Alpha virt. eigenvalues --    0.18158   0.18627   0.19486   0.21813   0.22411
 Alpha virt. eigenvalues --    0.24768   0.26099   0.26810   0.27122   0.27873
 Alpha virt. eigenvalues --    0.29931   0.30339   0.34724   0.39161   0.40384
 Alpha virt. eigenvalues --    0.41805   0.50853   0.53427   0.58624   0.61407
 Alpha virt. eigenvalues --    0.63130   0.67144   0.74063   0.76314   0.80513
 Alpha virt. eigenvalues --    0.82517   0.90448   0.95846   0.96310   0.98604
 Alpha virt. eigenvalues --    1.00813   1.03246   1.04860   1.06475   1.07340
 Alpha virt. eigenvalues --    1.07992   1.11104   1.13907   1.14445   1.19829
 Alpha virt. eigenvalues --    1.21143   1.22556   1.34631   1.39571   1.41758
 Alpha virt. eigenvalues --    1.43241   1.45226   1.46790   1.47473   1.49824
 Alpha virt. eigenvalues --    1.52557   1.55046   1.60067   1.64424   1.67308
 Alpha virt. eigenvalues --    1.79526   1.83502   1.87139   1.92163   1.97953
 Alpha virt. eigenvalues --    2.01875   2.06856   2.15266   2.27847   2.32892
 Alpha virt. eigenvalues --    2.38740   2.46086   2.49729   2.63004   2.71110
 Alpha virt. eigenvalues --    2.76757   2.82975   2.92997   2.96754   3.00908
 Alpha virt. eigenvalues --    3.09772   3.18680   3.25948   3.26873   3.35763
 Alpha virt. eigenvalues --    3.39796   3.43564   3.49301   3.64204   3.69676
 Alpha virt. eigenvalues --    3.73753   3.86551   3.90048   4.00554   4.05486
 Alpha virt. eigenvalues --    4.27515   4.60183   4.61651   4.77876   4.86702
 Alpha virt. eigenvalues --    4.91352   4.92663   4.95569   4.95810   4.96135
 Alpha virt. eigenvalues --    4.96851   4.98252   4.98655   4.99462   5.01750
 Alpha virt. eigenvalues --    5.02512   5.04362   5.05483   5.06495   5.07808
 Alpha virt. eigenvalues --    5.10514   5.12502   5.13654   5.16424   5.18298
 Alpha virt. eigenvalues --    5.23816   5.28746   5.30908   5.34693   5.40539
 Alpha virt. eigenvalues --    5.42262   5.55973   5.67237   5.78239   5.98267
 Alpha virt. eigenvalues --    6.00304   6.20767   6.32650   6.55096   6.57169
 Alpha virt. eigenvalues --    6.57361   6.63310   6.68953   6.71095   6.74869
 Alpha virt. eigenvalues --    6.77339   6.80496   6.81490   6.84903   6.95096
 Alpha virt. eigenvalues --    6.97563   7.11734   7.14412   7.18956   7.23758
 Alpha virt. eigenvalues --    7.34580   7.41465   7.51831   7.56658   7.65208
 Alpha virt. eigenvalues --    7.95681   7.98320  24.51346  49.86156  49.90157
 Alpha virt. eigenvalues --   49.99233  50.10805
  Beta  occ. eigenvalues --  -19.77662 -19.73883 -19.70959 -19.67918 -10.73555
  Beta  occ. eigenvalues --   -1.34327  -1.18910  -1.06446  -0.99185  -0.78482
  Beta  occ. eigenvalues --   -0.68279  -0.63267  -0.58771  -0.54173  -0.46805
  Beta  occ. eigenvalues --   -0.44845  -0.41982  -0.39561  -0.34959
  Beta virt. eigenvalues --   -0.18402  -0.11017  -0.05268   0.00754   0.03310
  Beta virt. eigenvalues --    0.04059   0.04690   0.07511   0.13340   0.15965
  Beta virt. eigenvalues --    0.16042   0.18221   0.18586   0.18913   0.20030
  Beta virt. eigenvalues --    0.22231   0.22627   0.25164   0.25996   0.26966
  Beta virt. eigenvalues --    0.27721   0.28072   0.30023   0.30503   0.35213
  Beta virt. eigenvalues --    0.38909   0.40855   0.42420   0.50891   0.53449
  Beta virt. eigenvalues --    0.58745   0.61719   0.63065   0.67383   0.74119
  Beta virt. eigenvalues --    0.76966   0.81185   0.83267   0.90886   0.96443
  Beta virt. eigenvalues --    0.97206   0.99112   1.02521   1.04445   1.05981
  Beta virt. eigenvalues --    1.08003   1.09454   1.09828   1.12024   1.14417
  Beta virt. eigenvalues --    1.15804   1.20410   1.22237   1.22901   1.35059
  Beta virt. eigenvalues --    1.39917   1.43188   1.45216   1.47354   1.51791
  Beta virt. eigenvalues --    1.51868   1.52504   1.53871   1.56470   1.60728
  Beta virt. eigenvalues --    1.65218   1.67754   1.79937   1.84786   1.88601
  Beta virt. eigenvalues --    1.93391   1.98477   2.02210   2.07431   2.15726
  Beta virt. eigenvalues --    2.27901   2.33365   2.39063   2.46194   2.50045
  Beta virt. eigenvalues --    2.63145   2.69932   2.74738   2.82318   2.92708
  Beta virt. eigenvalues --    2.96609   3.00755   3.09473   3.18394   3.25657
  Beta virt. eigenvalues --    3.26660   3.35573   3.39627   3.43392   3.49084
  Beta virt. eigenvalues --    3.64006   3.69538   3.73615   3.85597   3.90128
  Beta virt. eigenvalues --    4.00069   4.05242   4.27372   4.60783   4.62239
  Beta virt. eigenvalues --    4.78607   4.87223   4.95138   4.97841   4.98684
  Beta virt. eigenvalues --    4.99615   5.00548   5.01039   5.01862   5.02561
  Beta virt. eigenvalues --    5.03011   5.03764   5.04680   5.06698   5.07840
  Beta virt. eigenvalues --    5.08737   5.09650   5.11008   5.13407   5.15411
  Beta virt. eigenvalues --    5.17573   5.19204   5.24784   5.29459   5.31670
  Beta virt. eigenvalues --    5.35284   5.40831   5.43082   5.56417   5.67508
  Beta virt. eigenvalues --    5.78389   5.99914   6.00487   6.21070   6.32703
  Beta virt. eigenvalues --    6.55791   6.70157   6.71089   6.75368   6.75415
  Beta virt. eigenvalues --    6.76691   6.77959   6.79429   6.85302   6.87508
  Beta virt. eigenvalues --    6.90434   6.97423   7.00835   7.13072   7.14986
  Beta virt. eigenvalues --    7.20560   7.24552   7.35437   7.47000   7.53586
  Beta virt. eigenvalues --    7.59278   7.64766   7.95740   7.99625  24.51229
  Beta virt. eigenvalues --   49.85132  49.89451  49.98977  50.10686
          Condensed to atoms (all electrons):
              1          2          3          4          5          6
     1  O    8.086541   0.080320   0.000741  -0.000270  -0.000230   0.000033
     2  H    0.080320   0.309389  -0.000538  -0.038457  -0.001354   0.000357
     3  C    0.000741  -0.000538   4.780772   0.160389   0.441025   0.440203
     4  O   -0.000270  -0.038457   0.160389   7.875505  -0.048664  -0.048766
     5  O   -0.000230  -0.001354   0.441025  -0.048664   7.934591  -0.034765
     6  H    0.000033   0.000357   0.440203  -0.048766  -0.034765   0.445810
     7  O    0.065315   0.189766  -0.022971   0.124283   0.006962   0.004618
              7
     1  O    0.065315
     2  H    0.189766
     3  C   -0.022971
     4  O    0.124283
     5  O    0.006962
     6  H    0.004618
     7  O    7.931399
 Mulliken atomic charges:
              1
     1  O   -0.232450
     2  H    0.460516
     3  C    0.200380
     4  O   -0.024019
     5  O   -0.297565
     6  H    0.192510
     7  O   -0.299372
 Sum of Mulliken atomic charges =   0.00000
 Mulliken charges with hydrogens summed into heavy atoms:
              1
     1  O   -0.232450
     3  C    0.392889
     4  O   -0.024019
     5  O   -0.297565
     7  O    0.161144
 Sum of Mulliken charges with hydrogens summed into heavy atoms =   0.00000
          Atomic-Atomic Spin Densities.
              1          2          3          4          5          6
     1  O    1.558823  -0.002496   0.000669  -0.000672  -0.000331  -0.000049
     2  H   -0.002496  -0.114821  -0.001037   0.016713   0.000063  -0.000205
     3  C    0.000669  -0.001037  -0.032816   0.006533  -0.001075   0.000086
     4  O   -0.000672   0.016713   0.006533   0.148145  -0.002255   0.000236
     5  O   -0.000331   0.000063  -0.001075  -0.002255   0.044580  -0.000036
     6  H   -0.000049  -0.000205   0.000086   0.000236  -0.000036  -0.000160
     7  O   -0.017979   0.025940  -0.000321  -0.056189   0.001043   0.000356
              7
     1  O   -0.017979
     2  H    0.025940
     3  C   -0.000321
     4  O   -0.056189
     5  O    0.001043
     6  H    0.000356
     7  O    0.458260
 Mulliken atomic spin densities:
              1
     1  O    1.537967
     2  H   -0.075843
     3  C   -0.027961
     4  O    0.112511
     5  O    0.041988
     6  H    0.000228
     7  O    0.411110
 Sum of Mulliken atomic spin densities =   2.00000
 Electronic spatial extent (au):  <R**2>=            550.2183
 Charge=              0.0000 electrons
 Dipole moment (field-independent basis, Debye):
    X=              2.0970    Y=             -1.7344    Z=              2.0629  Tot=              3.4148
 Quadrupole moment (field-independent basis, Debye-Ang):
   XX=            -27.9169   YY=            -30.8525   ZZ=            -27.0051
   XY=             -2.9103   XZ=              3.5261   YZ=             -0.2042
 Traceless Quadrupole moment (field-independent basis, Debye-Ang):
   XX=              0.6746   YY=             -2.2610   ZZ=              1.5864
   XY=             -2.9103   XZ=              3.5261   YZ=             -0.2042
 Octapole moment (field-independent basis, Debye-Ang**2):
  XXX=             16.0914  YYY=             -0.4923  ZZZ=              0.8801  XYY=             -5.4754
  XXY=            -11.9692  XXZ=              3.6264  XZZ=              3.6282  YZZ=             -0.9519
  YYZ=              0.2435  XYZ=              0.0230
 Hexadecapole moment (field-independent basis, Debye-Ang**3):
 XXXX=           -526.9558 YYYY=           -102.9853 ZZZZ=            -35.8188 XXXY=             -4.0612
 XXXZ=             25.7537 YYYX=             -4.9084 YYYZ=              0.4655 ZZZX=              4.1989
 ZZZY=             -0.4720 XXYY=           -105.3551 XXZZ=            -86.6433 YYZZ=            -23.0675
 XXYZ=             -3.1991 YYXZ=             -0.1483 ZZXY=             -0.8596
 N-N= 1.585359996015D+02 E-N=-1.662369638629D+03  KE= 5.047330310720D+02
                          Isotropic Fermi Contact Couplings
        Atom                 a.u.       MegaHertz       Gauss      10(-4) cm-1
     1  O(17)              0.17406     -52.75658     -18.82486     -17.59770
     2  H(1)              -0.03475     -77.65403     -27.70889     -25.90260
     3  C(13)             -0.00822      -4.61999      -1.64853      -1.54106
     4  O(17)              0.01778      -5.39030      -1.92339      -1.79801
     5  O(17)              0.00693      -2.10057      -0.74954      -0.70068
     6  H(1)              -0.00022      -0.48677      -0.17369      -0.16237
     7  O(17)             -0.04437      13.44886       4.79889       4.48606
 --------------------------------------------------------
       Center         ----  Spin Dipole Couplings  ----
                      3XX-RR        3YY-RR        3ZZ-RR
 --------------------------------------------------------
     1   Atom       -0.884131      2.093250     -1.209119
     2   Atom        0.205146     -0.069162     -0.135984
     3   Atom        0.011160      0.009111     -0.020271
     4   Atom       -0.288243     -0.376688      0.664932
     5   Atom        0.007618     -0.003583     -0.004036
     6   Atom        0.005339     -0.002970     -0.002369
     7   Atom       -0.790116     -0.844130      1.634245
 --------------------------------------------------------
                        XY            XZ            YZ
 --------------------------------------------------------
     1   Atom        1.275438      1.836024     -0.040894
     2   Atom       -0.143382     -0.053839      0.026233
     3   Atom        0.010397      0.023063     -0.008684
     4   Atom        0.130116     -0.345936     -0.101407
     5   Atom       -0.074150     -0.086206      0.083321
     6   Atom        0.001311      0.003930      0.000812
     7   Atom        0.068721     -0.604272     -0.429657
 --------------------------------------------------------


 ---------------------------------------------------------------------------------
              Anisotropic Spin Dipole Couplings in Principal Axis System
 ---------------------------------------------------------------------------------

       Atom             a.u.   MegaHertz   Gauss  10(-4) cm-1        Axes

              Baa    -3.0511   220.773    78.777    73.642 -0.6950  0.1778  0.6967
     1 O(17)  Bbb     0.3721   -26.928    -9.608    -8.982  0.5872 -0.4187  0.6927
              Bcc     2.6789  -193.845   -69.169   -64.660  0.4149  0.8905  0.1866
 
              Baa    -0.1453   -77.509   -27.657   -25.854  0.0534 -0.2340  0.9708
     2 H(1)   Bbb    -0.1298   -69.279   -24.720   -23.109  0.4121  0.8907  0.1920
              Bcc     0.2751   146.788    52.377    48.963  0.9096 -0.3898 -0.1440
 
              Baa    -0.0360    -4.829    -1.723    -1.611 -0.4705  0.2702  0.8400
     3 C(13)  Bbb     0.0107     1.433     0.511     0.478 -0.1988  0.8950 -0.3993
              Bcc     0.0253     3.396     1.212     1.133  0.8597  0.3549  0.3674
 
              Baa    -0.4886    35.351    12.614    11.792  0.7099 -0.6876  0.1525
     4 O(17)  Bbb    -0.3047    22.051     7.869     7.356  0.6298  0.7167  0.2996
              Bcc     0.7933   -57.403   -20.483   -19.147 -0.3153 -0.1167  0.9418
 
              Baa    -0.0905     6.547     2.336     2.184  0.3502 -0.4752  0.8072
     5 O(17)  Bbb    -0.0721     5.219     1.862     1.741  0.7267  0.6816  0.0860
              Bcc     0.1626   -11.766    -4.199    -3.925  0.5910 -0.5565 -0.5840
 
              Baa    -0.0041    -2.179    -0.778    -0.727 -0.3412 -0.2575  0.9040
     6 H(1)   Bbb    -0.0031    -1.672    -0.597    -0.558 -0.2331  0.9549  0.1840
              Bcc     0.0072     3.851     1.374     1.284  0.9106  0.1479  0.3858
 
              Baa    -0.9557    69.156    24.677    23.068  0.7575  0.5921  0.2750
     7 O(17)  Bbb    -0.8908    64.456    23.000    21.500 -0.6130  0.7900 -0.0123
              Bcc     1.8465  -133.613   -47.676   -44.568 -0.2245 -0.1593  0.9614
 

 ---------------------------------------------------------------------------------

 Calling FoFJK, ICntrl=      2127 FMM=F ISym2X=0 I1Cent= 0 IOpClX= 1 NMat=1 NMatS=1 NMatT=0.
 ***** Axes restored to original set *****
 -------------------------------------------------------------------
 Center     Atomic                   Forces (Hartrees/Bohr)
 Number     Number              X              Y              Z
 -------------------------------------------------------------------
      1        8          -0.028704246   -0.011085051    0.007783536
      2        1           0.036146971   -0.006210997   -0.033831622
      3        6           0.052907189    0.150221458   -0.049229224
      4        8          -0.012804105   -0.058133949   -0.005450141
      5        8          -0.018166814   -0.110659425    0.027739409
      6        1           0.002247716   -0.007935698    0.017593826
      7        8          -0.031626711    0.043803662    0.035394216
 -------------------------------------------------------------------
 Cartesian Forces:  Max     0.150221458 RMS     0.050120749

 GradGradGradGradGradGradGradGradGradGradGradGradGradGradGradGradGradGrad
 Berny optimization.
 Internal  Forces:  Max     0.114396118 RMS     0.036696325
 Search for a local minimum.
 Step number   1 out of a maximum of   28
 All quantities printed in internal units (Hartrees-Bohrs-Radians)
 Mixed Optimization -- RFO/linear search
 Second derivative matrix not updated -- first step.
 The second derivative matrix:
                          R1        R2        R3        R4        R5
           R1           0.18756
           R2           0.00000   0.04580
           R3           0.00000   0.00000   0.33979
           R4           0.00000   0.00000   0.00000   0.46082
           R5           0.00000   0.00000   0.00000   0.00000   0.77091
           R6           0.00000   0.00000   0.00000   0.00000   0.00000
           R7           0.00000   0.00000   0.00000   0.00000   0.00000
           A1           0.00000   0.00000   0.00000   0.00000   0.00000
           A2           0.00000   0.00000   0.00000   0.00000   0.00000
           A3           0.00000   0.00000   0.00000   0.00000   0.00000
           A4           0.00000   0.00000   0.00000   0.00000   0.00000
           A5           0.00000   0.00000   0.00000   0.00000   0.00000
           A6           0.00000   0.00000   0.00000   0.00000   0.00000
           D1           0.00000   0.00000   0.00000   0.00000   0.00000
           D2           0.00000   0.00000   0.00000   0.00000   0.00000
           D3           0.00000   0.00000   0.00000   0.00000   0.00000
           D4           0.00000   0.00000   0.00000   0.00000   0.00000
           D5           0.00000   0.00000   0.00000   0.00000   0.00000
                          R6        R7        A1        A2        A3
           R6           0.34665
           R7           0.00000   0.55495
           A1           0.00000   0.00000   0.25000
           A2           0.00000   0.00000   0.00000   0.25000
           A3           0.00000   0.00000   0.00000   0.00000   0.16000
           A4           0.00000   0.00000   0.00000   0.00000   0.00000
           A5           0.00000   0.00000   0.00000   0.00000   0.00000
           A6           0.00000   0.00000   0.00000   0.00000   0.00000
           D1           0.00000   0.00000   0.00000   0.00000   0.00000
           D2           0.00000   0.00000   0.00000   0.00000   0.00000
           D3           0.00000   0.00000   0.00000   0.00000   0.00000
           D4           0.00000   0.00000   0.00000   0.00000   0.00000
           D5           0.00000   0.00000   0.00000   0.00000   0.00000
                          A4        A5        A6        D1        D2
           A4           0.16000
           A5           0.00000   0.25000
           A6           0.00000   0.00000   0.16000
           D1           0.00000   0.00000   0.00000   0.00230
           D2           0.00000   0.00000   0.00000   0.00000   0.01728
           D3           0.00000   0.00000   0.00000   0.00000   0.00000
           D4           0.00000   0.00000   0.00000   0.00000   0.00000
           D5           0.00000   0.00000   0.00000   0.00000   0.00000
                          D3        D4        D5
           D3           0.01728
           D4           0.00000   0.03444
           D5           0.00000   0.00000   0.01986
 ITU=  0
     Eigenvalues ---    0.00230   0.01728   0.01986   0.02952   0.15901
     Eigenvalues ---    0.16000   0.22029   0.25000   0.34665   0.46082
     Eigenvalues ---    0.55495   0.770911000.000001000.000001000.00000
     Eigenvalues --- 1000.000001000.000001000.00000
 RFO step:  Lambda=-5.50433195D-02 EMin= 2.30000000D-03
 Linear search not attempted -- first point.
 Maximum step size (   0.300) exceeded in Quadratic search.
    -- Step size scaled by   0.737
 Iteration  1 RMS(Cart)=  0.14879398 RMS(Int)=  0.01249921
 Iteration  2 RMS(Cart)=  0.01600707 RMS(Int)=  0.00097095
 Iteration  3 RMS(Cart)=  0.00004778 RMS(Int)=  0.00096910
 Iteration  4 RMS(Cart)=  0.00000003 RMS(Int)=  0.00096910
 Iteration  1 RMS(Cart)=  0.00000000 RMS(Int)=  0.00000000
 Variable       Old X    -DE/DX   Delta X   Delta X   Delta X     New X
                                 (Linear)    (Quad)   (Total)
    R1        2.45081  -0.03020   0.00000   0.00000   0.00000   2.45081
    R2        4.44278  -0.00106   0.00000   0.00000   0.00000   4.44278
    R3        2.07366   0.02332   0.00000   0.00000   0.00000   2.07366
    R4        2.64039  -0.01681   0.00000  -0.02402  -0.02402   2.61636
    R5        2.39523  -0.11440   0.00000  -0.10209  -0.10209   2.29314
    R6        2.06222  -0.00286   0.00000  -0.00525  -0.00525   2.05698
    R7        2.54695  -0.01559   0.00000  -0.01883  -0.01883   2.52811
    A1        2.75962   0.01374   0.00000   0.00000   0.00000   2.75962
    A2        2.01249   0.03640   0.00000   0.09931   0.09814   2.11063
    A3        2.12490  -0.03358   0.00000  -0.09936  -0.10062   2.02428
    A4        2.13332  -0.00110   0.00000   0.01284   0.01178   2.14510
    A5        2.11557  -0.05051   0.00000  -0.12204  -0.12204   1.99353
    A6        2.55856  -0.06092   0.00000  -0.20881  -0.20881   2.34975
    D1        3.08059   0.00120   0.00000   0.01545   0.01545   3.09604
    D2       -0.67450   0.00184   0.00000   0.03471   0.03679  -0.63771
    D3        2.30154   0.01346   0.00000   0.12127   0.11918   2.42072
    D4        2.97516   0.00830   0.00000   0.07534   0.07737   3.05254
    D5       -1.37065   0.00143   0.00000   0.01406   0.01406  -1.35659
         Item               Value     Threshold  Converged?
 Maximum Force            0.114396     0.002500     NO 
 RMS     Force            0.038810     0.001667     NO 
 Maximum Displacement     0.318901     0.010000     NO 
 RMS     Displacement     0.160044     0.006667     NO 
 Predicted change in Energy=-2.869887D-02
 GradGradGradGradGradGradGradGradGradGradGradGradGradGradGradGradGradGrad

                          Input orientation:                          
 ---------------------------------------------------------------------
 Center     Atomic      Atomic             Coordinates (Angstroms)
 Number     Number       Type             X           Y           Z
 ---------------------------------------------------------------------
      1          8           0        2.774445    0.110026   -0.596081
      2          1           0        1.622982   -0.089140   -0.033542
      3          6           0       -1.367387   -0.002898   -0.042825
      4          8           0       -0.412765   -0.493168    0.831949
      5          8           0       -1.371561    1.165457   -0.370628
      6          1           0       -2.046560   -0.739065   -0.468999
      7          8           0        0.800847    0.048888    0.680027
 ---------------------------------------------------------------------
                    Distance matrix (angstroms):
                    1          2          3          4          5
     1  O    0.000000
     2  H    1.296913   0.000000
     3  C    4.180145   2.991626   0.000000
     4  O    3.544209   2.248684   1.384520   0.000000
     5  O    4.284172   3.264188   1.213476   2.261971   0.000000
     6  H    4.896855   3.752008   1.088505   2.102907   2.022994
     7  O    2.351017   1.097333   2.286139   1.337819   2.658939
                    6          7
     6  H    0.000000
     7  O    3.169993   0.000000
 Stoichiometry    CH2O4(3)
 Framework group  C1[X(CH2O4)]
 Deg. of freedom    15
 Full point group                 C1      NOp   1
 Largest Abelian subgroup         C1      NOp   1
 Largest concise Abelian subgroup C1      NOp   1
                         Standard orientation:                         
 ---------------------------------------------------------------------
 Center     Atomic      Atomic             Coordinates (Angstroms)
 Number     Number       Type             X           Y           Z
 ---------------------------------------------------------------------
      1          8           0       -2.667470    0.487553    0.214667
      2          1           0       -1.499725   -0.063550    0.093661
      3          6           0        1.479633   -0.016409    0.360174
      4          8           0        0.551519   -0.980756    0.005865
      5          8           0        1.556761    1.029265   -0.250680
      6          1           0        2.064609   -0.223340    1.254503
      7          8           0       -0.621146   -0.487893   -0.408504
 ---------------------------------------------------------------------
 Rotational constants (GHZ):     10.6385405      2.4775942      2.1371708
 Standard basis: 6-311+G(2df,2p) (5D, 7F)
 There are   188 symmetry adapted basis functions of A   symmetry.
 Integral buffers will be    131072 words long.
 Raffenetti 2 integral format.
 Two-electron integral symmetry is turned on.
   188 basis functions,   282 primitive gaussians,   213 cartesian basis functions
    21 alpha electrons       19 beta electrons
       nuclear repulsion energy       162.0832342905 Hartrees.
 NAtoms=    7 NActive=    7 NUniq=    7 SFac= 1.00D+00 NAtFMM=   50 NAOKFM=F Big=F
 One-electron integrals computed using PRISM.
 NBasis=   188 RedAO= T  NBF=   188
 NBsUse=   188 1.00D-06 NBFU=   188
 Initial guess read from the read-write file.
 B after Tr=     0.000000    0.000000    0.000000
         Rot=    1.000000    0.000000    0.000000    0.000000 Ang=   0.00 deg.
 Initial guess orbital symmetries:
 Alpha Orbitals:
       Occupied  (A) (A) (A) (A) (A) (A) (A) (A) (A) (A) (A) (A)
                 (A) (A) (A) (A) (A) (A) (A) (A) (A)
       Virtual   (A) (A) (A) (A) (A) (A) (A) (A) (A) (A) (A) (A)
                 (A) (A) (A) (A) (A) (A) (A) (A) (A) (A) (A) (A)
                 (A) (A) (A) (A) (A) (A) (A) (A) (A) (A) (A) (A)
                 (A) (A) (A) (A) (A) (A) (A) (A) (A) (A) (A) (A)
                 (A) (A) (A) (A) (A) (A) (A) (A) (A) (A) (A) (A)
                 (A) (A) (A) (A) (A) (A) (A) (A) (A) (A) (A) (A)
                 (A) (A) (A) (A) (A) (A) (A) (A) (A) (A) (A) (A)
                 (A) (A) (A) (A) (A) (A) (A) (A) (A) (A) (A) (A)
                 (A) (A) (A) (A) (A) (A) (A) (A) (A) (A) (A) (A)
                 (A) (A) (A) (A) (A) (A) (A) (A) (A) (A) (A) (A)
                 (A) (A) (A) (A) (A) (A) (A) (A) (A) (A) (A) (A)
                 (A) (A) (A) (A) (A) (A) (A) (A) (A) (A) (A) (A)
                 (A) (A) (A) (A) (A) (A) (A) (A) (A) (A) (A) (A)
                 (A) (A) (A) (A) (A) (A) (A) (A) (A) (A) (A)
 Beta  Orbitals:
       Occupied  (A) (A) (A) (A) (A) (A) (A) (A) (A) (A) (A) (A)
                 (A) (A) (A) (A) (A) (A) (A)
       Virtual   (A) (A) (A) (A) (A) (A) (A) (A) (A) (A) (A) (A)
                 (A) (A) (A) (A) (A) (A) (A) (A) (A) (A) (A) (A)
                 (A) (A) (A) (A) (A) (A) (A) (A) (A) (A) (A) (A)
                 (A) (A) (A) (A) (A) (A) (A) (A) (A) (A) (A) (A)
                 (A) (A) (A) (A) (A) (A) (A) (A) (A) (A) (A) (A)
                 (A) (A) (A) (A) (A) (A) (A) (A) (A) (A) (A) (A)
                 (A) (A) (A) (A) (A) (A) (A) (A) (A) (A) (A) (A)
                 (A) (A) (A) (A) (A) (A) (A) (A) (A) (A) (A) (A)
                 (A) (A) (A) (A) (A) (A) (A) (A) (A) (A) (A) (A)
                 (A) (A) (A) (A) (A) (A) (A) (A) (A) (A) (A) (A)
                 (A) (A) (A) (A) (A) (A) (A) (A) (A) (A) (A) (A)
                 (A) (A) (A) (A) (A) (A) (A) (A) (A) (A) (A) (A)
                 (A) (A) (A) (A) (A) (A) (A) (A) (A) (A) (A) (A)
                 (A) (A) (A) (A) (A) (A) (A) (A) (A) (A) (A) (A)
                 (A)
 Initial guess <Sx>= 0.0000 <Sy>= 0.0000 <Sz>= 1.0000 <S**2>= 2.0277 S= 1.0092
 Harris functional with IExCor= 1009 diagonalized for initial guess.
 ExpMin= 4.38D-02 ExpMax= 8.59D+03 ExpMxC= 1.30D+03 IAcc=2 IRadAn=         1 AccDes= 0.00D+00
 HarFok:  IExCor= 1009 AccDes= 0.00D+00 IRadAn=         1 IDoV= 1
 ScaDFX=  1.000000  1.000000  1.000000  1.000000
 FoFCou: FMM=F IPFlag=           0 FMFlag=      100000 FMFlg1=           0
         NFxFlg=           0 DoJE=T BraDBF=F KetDBF=T FulRan=T
         Omega=  0.000000  0.000000  1.000000  0.000000  0.000000 ICntrl=     500 IOpCl=  0
         NMat0=    1 NMatS0=    1 NMatT0=    0 NMatD0=    1 NMtDS0=    0 NMtDT0=    0
         I1Cent=           4 NGrid=           0.
 Petite list used in FoFCou.
 Requested convergence on RMS density matrix=1.00D-08 within 128 cycles.
 Requested convergence on MAX density matrix=1.00D-06.
 Requested convergence on             energy=1.00D-06.
 No special actions if energy rises.
 Keep R1 and R2 ints in memory in canonical form, NReq=524536934.
 >>>>>>>>>> Convergence criterion not met.
 SCF Done:  E(UM062X) =  -339.887251802     A.U. after  129 cycles
             Convg  =    0.1276D-03             -V/T =  2.0030
 <Sx>= 0.0000 <Sy>= 0.0000 <Sz>= 1.0000 <S**2>= 2.0262 S= 1.0087
 <L.S>= 0.000000000000E+00
 Annihilation of the first spin contaminant:
 S**2 before annihilation     2.0262,   after     2.0002
 Convergence failure -- run terminated.
 Error termination via Lnk1e in /shared/apps/gaussian/G09_LINUX_LINDA/g09/l502.exe at Tue Aug  1 05:45:59 2017.
 Job cpu time:  0 days  2 hours  7 minutes 43.9 seconds.
 File lengths (MBytes):  RWF=   1216 Int=      0 D2E=      0 Chk=     32 Scr=     32
