 Entering Gaussian System, Link 0=/shared/apps/gaussian/G09_LINUX_LINDA/g09/g09
 Input=/gss_gpfs_scratch/harms.n/QMscratch/[OH]+[O]C1C=CC=CC=1_OC1C=CC=CC=1+[O].gjf
 Output=/gss_gpfs_scratch/harms.n/QMscratch/[OH]+[O]C1C=CC=CC=1_OC1C=CC=CC=1+[O].log
 Initial command:
 /shared/apps/gaussian/G09_LINUX_LINDA/g09/l1.exe /gss_gpfs_scratch/harms.n/comparerTST/Gau-22273.inp -scrdir=/gss_gpfs_scratch/harms.n/comparerTST/
 Entering Link 1 = /shared/apps/gaussian/G09_LINUX_LINDA/g09/l1.exe PID=     22277.
  
 Copyright (c) 1988,1990,1992,1993,1995,1998,2003,2009,2010,
            Gaussian, Inc.  All Rights Reserved.
  
 This is part of the Gaussian(R) 09 program.  It is based on
 the Gaussian(R) 03 system (copyright 2003, Gaussian, Inc.),
 the Gaussian(R) 98 system (copyright 1998, Gaussian, Inc.),
 the Gaussian(R) 94 system (copyright 1995, Gaussian, Inc.),
 the Gaussian 92(TM) system (copyright 1992, Gaussian, Inc.),
 the Gaussian 90(TM) system (copyright 1990, Gaussian, Inc.),
 the Gaussian 88(TM) system (copyright 1988, Gaussian, Inc.),
 the Gaussian 86(TM) system (copyright 1986, Carnegie Mellon
 University), and the Gaussian 82(TM) system (copyright 1983,
 Carnegie Mellon University). Gaussian is a federally registered
 trademark of Gaussian, Inc.
  
 This software contains proprietary and confidential information,
 including trade secrets, belonging to Gaussian, Inc.
  
 This software is provided under written license and may be
 used, copied, transmitted, or stored only in accord with that
 written license.
  
 The following legend is applicable only to US Government
 contracts under FAR:
  
                    RESTRICTED RIGHTS LEGEND
  
 Use, reproduction and disclosure by the US Government is
 subject to restrictions as set forth in subparagraphs (a)
 and (c) of the Commercial Computer Software - Restricted
 Rights clause in FAR 52.227-19.
  
 Gaussian, Inc.
 340 Quinnipiac St., Bldg. 40, Wallingford CT 06492
  
  
 ---------------------------------------------------------------
 Warning -- This program may not be used in any manner that
 competes with the business of Gaussian, Inc. or will provide
 assistance to any competitor of Gaussian, Inc.  The licensee
 of this program is prohibited from giving any competitor of
 Gaussian, Inc. access to this program.  By using this program,
 the user acknowledges that Gaussian, Inc. is engaged in the
 business of creating and licensing software in the field of
 computational chemistry and represents and warrants to the
 licensee that it is not a competitor of Gaussian, Inc. and that
 it will not use this program in any manner prohibited above.
 ---------------------------------------------------------------
  

 Cite this work as:
 Gaussian 09, Revision B.01,
 M. J. Frisch, G. W. Trucks, H. B. Schlegel, G. E. Scuseria, 
 M. A. Robb, J. R. Cheeseman, G. Scalmani, V. Barone, B. Mennucci, 
 G. A. Petersson, H. Nakatsuji, M. Caricato, X. Li, H. P. Hratchian, 
 A. F. Izmaylov, J. Bloino, G. Zheng, J. L. Sonnenberg, M. Hada, 
 M. Ehara, K. Toyota, R. Fukuda, J. Hasegawa, M. Ishida, T. Nakajima, 
 Y. Honda, O. Kitao, H. Nakai, T. Vreven, J. A. Montgomery, Jr., 
 J. E. Peralta, F. Ogliaro, M. Bearpark, J. J. Heyd, E. Brothers, 
 K. N. Kudin, V. N. Staroverov, T. Keith, R. Kobayashi, J. Normand, 
 K. Raghavachari, A. Rendell, J. C. Burant, S. S. Iyengar, J. Tomasi, 
 M. Cossi, N. Rega, J. M. Millam, M. Klene, J. E. Knox, J. B. Cross, 
 V. Bakken, C. Adamo, J. Jaramillo, R. Gomperts, R. E. Stratmann, 
 O. Yazyev, A. J. Austin, R. Cammi, C. Pomelli, J. W. Ochterski, 
 R. L. Martin, K. Morokuma, V. G. Zakrzewski, G. A. Voth, 
 P. Salvador, J. J. Dannenberg, S. Dapprich, A. D. Daniels, 
 O. Farkas, J. B. Foresman, J. V. Ortiz, J. Cioslowski, 
 and D. J. Fox, Gaussian, Inc., Wallingford CT, 2010.
 
 ******************************************
 Gaussian 09:  EM64L-G09RevB.01 12-Aug-2010
                20-Aug-2017 
 ******************************************
 %nprocshared=20
 Will use up to   20 processors via shared memory.
 %mem=5GB
 %chk=/gss_gpfs_scratch/harms.n/QMscratch/[OH]+[O]C1C=CC=CC=1_OC1C=CC=CC=1+[O]
 --------------------------------------------------------
 # m062x/6-311+g(2df,2p) opt=(ts,calcfc,noeigentest) freq
 --------------------------------------------------------
 1/5=1,10=4,11=1,14=-1,18=20,26=3,38=1/1,3;
 2/9=110,12=2,17=6,18=5,40=1/2;
 3/5=4,6=6,7=214,11=2,16=1,25=1,30=1,71=2,74=-55/1,2,3;
 4//1;
 5/5=2,38=5/2;
 8/6=4,10=90,11=11/1;
 11/6=1,8=1,9=11,15=111,16=1/1,2,10;
 10/6=1,7=6,13=1/2;
 6/7=2,8=2,9=2,10=2,28=1/1;
 7/10=1,18=20,25=1/1,2,3,16;
 1/5=1,10=4,11=1,14=-1,18=20/3(2);
 2/9=110/2;
 99//99;
 2/9=110/2;
 3/5=4,6=6,7=214,11=2,16=1,25=1,30=1,71=1,74=-55/1,2,3;
 4/5=5,16=3/1;
 5/5=2,38=5/2;
 7//1,2,3,16;
 1/5=1,11=1,14=-1,18=20/3(-5);
 2/9=110/2;
 6/7=2,8=2,9=2,10=2,19=2,28=1/1;
 99/9=1/99;
 ------------------------------------
 [OH]+[O]C1C=CC=CC=1_OC1C=CC=CC=1+[O]
 ------------------------------------
 Symbolic Z-matrix:
 Charge =  0 Multiplicity = 3
 O                    -2.97408   0.54745   0.72181 
 H                    -2.35435  -0.13997  -0.20644 
 C                    -0.3988   -0.39216  -0.28879 
 C                     0.59085  -1.31763   0.07624 
 C                     1.87978  -0.88349   0.30389 
 C                     2.19194   0.4717    0.20721 
 C                     1.20747   1.3949   -0.13305 
 C                    -0.08232   0.97401  -0.39027 
 O                    -1.61794  -0.83663  -0.5587 
 H                     0.31297  -2.35891   0.15916 
 H                     2.64867  -1.59574   0.56961 
 H                     3.2018    0.80712   0.39837 
 H                     1.4535    2.44525  -0.20516 
 H                    -0.86      1.67171  -0.67179 
 

 GradGradGradGradGradGradGradGradGradGradGradGradGradGradGradGradGradGrad
 Berny optimization.
 Initialization pass.
                           ----------------------------
                           !    Initial Parameters    !
                           ! (Angstroms and Degrees)  !
 --------------------------                            --------------------------
 ! Name  Definition              Value          Derivative Info.                !
 --------------------------------------------------------------------------------
 ! R1    R(1,2)                  1.3108         calculate D2E/DX2 analytically  !
 ! R2    R(2,9)                  1.0732         calculate D2E/DX2 analytically  !
 ! R3    R(3,4)                  1.4033         calculate D2E/DX2 analytically  !
 ! R4    R(3,8)                  1.406          calculate D2E/DX2 analytically  !
 ! R5    R(3,9)                  1.3254         calculate D2E/DX2 analytically  !
 ! R6    R(4,5)                  1.379          calculate D2E/DX2 analytically  !
 ! R7    R(4,10)                 1.0809         calculate D2E/DX2 analytically  !
 ! R8    R(5,6)                  1.394          calculate D2E/DX2 analytically  !
 ! R9    R(5,11)                 1.0812         calculate D2E/DX2 analytically  !
 ! R10   R(6,7)                  1.3919         calculate D2E/DX2 analytically  !
 ! R11   R(6,12)                 1.0811         calculate D2E/DX2 analytically  !
 ! R12   R(7,8)                  1.3809         calculate D2E/DX2 analytically  !
 ! R13   R(7,13)                 1.0812         calculate D2E/DX2 analytically  !
 ! R14   R(8,14)                 1.0821         calculate D2E/DX2 analytically  !
 ! A1    A(1,2,9)              153.8032         calculate D2E/DX2 analytically  !
 ! A2    A(4,3,8)              120.0565         calculate D2E/DX2 analytically  !
 ! A3    A(4,3,9)              118.719          calculate D2E/DX2 analytically  !
 ! A4    A(8,3,9)              121.2105         calculate D2E/DX2 analytically  !
 ! A5    A(3,4,5)              119.6366         calculate D2E/DX2 analytically  !
 ! A6    A(3,4,10)             118.2932         calculate D2E/DX2 analytically  !
 ! A7    A(5,4,10)             122.0668         calculate D2E/DX2 analytically  !
 ! A8    A(4,5,6)              120.2583         calculate D2E/DX2 analytically  !
 ! A9    A(4,5,11)             119.858          calculate D2E/DX2 analytically  !
 ! A10   A(6,5,11)             119.8799         calculate D2E/DX2 analytically  !
 ! A11   A(5,6,7)              120.2234         calculate D2E/DX2 analytically  !
 ! A12   A(5,6,12)             119.9005         calculate D2E/DX2 analytically  !
 ! A13   A(7,6,12)             119.8761         calculate D2E/DX2 analytically  !
 ! A14   A(6,7,8)              120.2662         calculate D2E/DX2 analytically  !
 ! A15   A(6,7,13)             119.9811         calculate D2E/DX2 analytically  !
 ! A16   A(8,7,13)             119.7506         calculate D2E/DX2 analytically  !
 ! A17   A(3,8,7)              119.5349         calculate D2E/DX2 analytically  !
 ! A18   A(3,8,14)             118.9159         calculate D2E/DX2 analytically  !
 ! A19   A(7,8,14)             121.5491         calculate D2E/DX2 analytically  !
 ! A20   A(2,9,3)              110.2823         calculate D2E/DX2 analytically  !
 ! D1    D(1,2,9,3)            -61.7117         calculate D2E/DX2 analytically  !
 ! D2    D(8,3,4,5)             -1.4982         calculate D2E/DX2 analytically  !
 ! D3    D(8,3,4,10)           179.1543         calculate D2E/DX2 analytically  !
 ! D4    D(9,3,4,5)            177.1596         calculate D2E/DX2 analytically  !
 ! D5    D(9,3,4,10)            -2.1879         calculate D2E/DX2 analytically  !
 ! D6    D(4,3,8,7)              0.2252         calculate D2E/DX2 analytically  !
 ! D7    D(4,3,8,14)          -179.9152         calculate D2E/DX2 analytically  !
 ! D8    D(9,3,8,7)           -178.3985         calculate D2E/DX2 analytically  !
 ! D9    D(9,3,8,14)             1.4611         calculate D2E/DX2 analytically  !
 ! D10   D(4,3,9,2)            143.3651         calculate D2E/DX2 analytically  !
 ! D11   D(8,3,9,2)            -37.9933         calculate D2E/DX2 analytically  !
 ! D12   D(3,4,5,6)              1.7036         calculate D2E/DX2 analytically  !
 ! D13   D(3,4,5,11)          -179.0062         calculate D2E/DX2 analytically  !
 ! D14   D(10,4,5,6)          -178.9744         calculate D2E/DX2 analytically  !
 ! D15   D(10,4,5,11)            0.3158         calculate D2E/DX2 analytically  !
 ! D16   D(4,5,6,7)             -0.6468         calculate D2E/DX2 analytically  !
 ! D17   D(4,5,6,12)           179.2741         calculate D2E/DX2 analytically  !
 ! D18   D(11,5,6,7)          -179.9369         calculate D2E/DX2 analytically  !
 ! D19   D(11,5,6,12)           -0.016          calculate D2E/DX2 analytically  !
 ! D20   D(5,6,7,8)             -0.6436         calculate D2E/DX2 analytically  !
 ! D21   D(5,6,7,13)           179.8884         calculate D2E/DX2 analytically  !
 ! D22   D(12,6,7,8)           179.4355         calculate D2E/DX2 analytically  !
 ! D23   D(12,6,7,13)           -0.0326         calculate D2E/DX2 analytically  !
 ! D24   D(6,7,8,3)              0.8401         calculate D2E/DX2 analytically  !
 ! D25   D(6,7,8,14)          -179.0157         calculate D2E/DX2 analytically  !
 ! D26   D(13,7,8,3)          -179.6906         calculate D2E/DX2 analytically  !
 ! D27   D(13,7,8,14)            0.4536         calculate D2E/DX2 analytically  !
 --------------------------------------------------------------------------------
 Trust Radius=3.00D-01 FncErr=1.00D-07 GrdErr=1.00D-06
 Number of steps in this run=     71 maximum allowed number of steps=    100.
 Search for a saddle point of order  1.
 GradGradGradGradGradGradGradGradGradGradGradGradGradGradGradGradGradGrad

                          Input orientation:                          
 ---------------------------------------------------------------------
 Center     Atomic      Atomic             Coordinates (Angstroms)
 Number     Number       Type             X           Y           Z
 ---------------------------------------------------------------------
      1          8           0       -2.974078    0.547449    0.721814
      2          1           0       -2.354349   -0.139971   -0.206442
      3          6           0       -0.398798   -0.392160   -0.288788
      4          6           0        0.590848   -1.317630    0.076243
      5          6           0        1.879783   -0.883490    0.303887
      6          6           0        2.191942    0.471701    0.207205
      7          6           0        1.207467    1.394896   -0.133048
      8          6           0       -0.082317    0.974007   -0.390272
      9          8           0       -1.617940   -0.836625   -0.558702
     10          1           0        0.312967   -2.358910    0.159155
     11          1           0        2.648671   -1.595740    0.569607
     12          1           0        3.201803    0.807116    0.398372
     13          1           0        1.453504    2.445251   -0.205158
     14          1           0       -0.860004    1.671710   -0.671787
 ---------------------------------------------------------------------
                    Distance matrix (angstroms):
                    1          2          3          4          5
     1  O    0.000000
     2  H    1.310828   0.000000
     3  C    2.921686   1.973464   0.000000
     4  C    4.074798   3.184490   1.403261   0.000000
     5  C    5.077619   4.329103   2.405120   1.379004   0.000000
     6  C    5.192140   4.605867   2.775644   2.404654   1.394035
     7  C    4.351353   3.879141   2.407885   2.789591   2.415360
     8  C    3.127454   2.537099   1.406013   2.433596   2.789622
     9  O    2.322605   1.073179   1.325409   2.348034   3.602821
    10  H    4.423593   3.488829   2.139011   1.080905   2.157017
    11  H    6.019280   5.267991   3.387110   2.134336   1.081247
    12  H    6.189794   5.668651   3.856784   3.381627   2.148212
    13  H    4.905549   4.602512   3.389531   3.870741   3.394312
    14  H    2.770450   2.394118   2.149176   3.405976   3.871359
                    6          7          8          9         10
     6  C    0.000000
     7  C    1.391852   0.000000
     8  C    2.404484   1.380889   0.000000
     9  O    4.100431   3.625437   2.380104   0.000000
    10  H    3.397825   3.869958   3.400949   2.561459   0.000000
    11  H    2.148080   3.393331   3.870822   4.478092   2.491267
    12  H    1.081142   2.145989   3.381606   5.181486   4.292589
    13  H    2.147145   1.081194   2.134847   4.508822   4.951112
    14  H    3.395147   2.154368   1.082052   2.622785   4.279278
                   11         12         13         14
    11  H    0.000000
    12  H    2.471638   0.000000
    13  H    4.284658   2.470685   0.000000
    14  H    4.952584   4.288477   2.483632   0.000000
 Stoichiometry    C6H6O2(3)
 Framework group  C1[X(C6H6O2)]
 Deg. of freedom    36
 Full point group                 C1      NOp   1
 Largest Abelian subgroup         C1      NOp   1
 Largest concise Abelian subgroup C1      NOp   1
                         Standard orientation:                         
 ---------------------------------------------------------------------
 Center     Atomic      Atomic             Coordinates (Angstroms)
 Number     Number       Type             X           Y           Z
 ---------------------------------------------------------------------
      1          8           0       -2.974078    0.547449    0.721814
      2          1           0       -2.354349   -0.139971   -0.206442
      3          6           0       -0.398798   -0.392160   -0.288788
      4          6           0        0.590848   -1.317630    0.076243
      5          6           0        1.879783   -0.883490    0.303887
      6          6           0        2.191942    0.471701    0.207205
      7          6           0        1.207467    1.394896   -0.133048
      8          6           0       -0.082317    0.974007   -0.390272
      9          8           0       -1.617940   -0.836625   -0.558702
     10          1           0        0.312967   -2.358910    0.159155
     11          1           0        2.648671   -1.595740    0.569607
     12          1           0        3.201803    0.807116    0.398372
     13          1           0        1.453504    2.445251   -0.205158
     14          1           0       -0.860004    1.671710   -0.671787
 ---------------------------------------------------------------------
 Rotational constants (GHZ):      4.1357494      1.4361119      1.1588262
 Standard basis: 6-311+G(2df,2p) (5D, 7F)
 There are   326 symmetry adapted basis functions of A   symmetry.
 Integral buffers will be    131072 words long.
 Raffenetti 2 integral format.
 Two-electron integral symmetry is turned on.
   326 basis functions,   482 primitive gaussians,   366 cartesian basis functions
    30 alpha electrons       28 beta electrons
       nuclear repulsion energy       333.4304049761 Hartrees.
 NAtoms=   14 NActive=   14 NUniq=   14 SFac= 1.00D+00 NAtFMM=   50 NAOKFM=F Big=F
 One-electron integrals computed using PRISM.
 NBasis=   326 RedAO= T  NBF=   326
 NBsUse=   326 1.00D-06 NBFU=   326
 Harris functional with IExCor= 1009 diagonalized for initial guess.
 ExpMin= 4.38D-02 ExpMax= 8.59D+03 ExpMxC= 1.30D+03 IAcc=2 IRadAn=         0 AccDes= 0.00D+00
 HarFok:  IExCor= 1009 AccDes= 0.00D+00 IRadAn=         0 IDoV= 1
 ScaDFX=  1.000000  1.000000  1.000000  1.000000
 FoFCou: FMM=F IPFlag=           0 FMFlag=      100000 FMFlg1=           0
         NFxFlg=           0 DoJE=T BraDBF=F KetDBF=T FulRan=T
         Omega=  0.000000  0.000000  1.000000  0.000000  0.000000 ICntrl=     500 IOpCl=  0
         NMat0=    1 NMatS0=    1 NMatT0=    0 NMatD0=    1 NMtDS0=    0 NMtDT0=    0
         I1Cent=           4 NGrid=           0.
 Petite list used in FoFCou.
 Initial guess orbital symmetries:
 Alpha Orbitals:
       Occupied  (A) (A) (A) (A) (A) (A) (A) (A) (A) (A) (A) (A)
                 (A) (A) (A) (A) (A) (A) (A) (A) (A) (A) (A) (A)
                 (A) (A) (A) (A) (A) (A)
       Virtual   (A) (A) (A) (A) (A) (A) (A) (A) (A) (A) (A) (A)
                 (A) (A) (A) (A) (A) (A) (A) (A) (A) (A) (A) (A)
                 (A) (A) (A) (A) (A) (A) (A) (A) (A) (A) (A) (A)
                 (A) (A) (A) (A) (A) (A) (A) (A) (A) (A) (A) (A)
                 (A) (A) (A) (A) (A) (A) (A) (A) (A) (A) (A) (A)
                 (A) (A) (A) (A) (A) (A) (A) (A) (A) (A) (A) (A)
                 (A) (A) (A) (A) (A) (A) (A) (A) (A) (A) (A) (A)
                 (A) (A) (A) (A) (A) (A) (A) (A) (A) (A) (A) (A)
                 (A) (A) (A) (A) (A) (A) (A) (A) (A) (A) (A) (A)
                 (A) (A) (A) (A) (A) (A) (A) (A) (A) (A) (A) (A)
                 (A) (A) (A) (A) (A) (A) (A) (A) (A) (A) (A) (A)
                 (A) (A) (A) (A) (A) (A) (A) (A) (A) (A) (A) (A)
                 (A) (A) (A) (A) (A) (A) (A) (A) (A) (A) (A) (A)
                 (A) (A) (A) (A) (A) (A) (A) (A) (A) (A) (A) (A)
                 (A) (A) (A) (A) (A) (A) (A) (A) (A) (A) (A) (A)
                 (A) (A) (A) (A) (A) (A) (A) (A) (A) (A) (A) (A)
                 (A) (A) (A) (A) (A) (A) (A) (A) (A) (A) (A) (A)
                 (A) (A) (A) (A) (A) (A) (A) (A) (A) (A) (A) (A)
                 (A) (A) (A) (A) (A) (A) (A) (A) (A) (A) (A) (A)
                 (A) (A) (A) (A) (A) (A) (A) (A) (A) (A) (A) (A)
                 (A) (A) (A) (A) (A) (A) (A) (A) (A) (A) (A) (A)
                 (A) (A) (A) (A) (A) (A) (A) (A) (A) (A) (A) (A)
                 (A) (A) (A) (A) (A) (A) (A) (A) (A) (A) (A) (A)
                 (A) (A) (A) (A) (A) (A) (A) (A) (A) (A) (A) (A)
                 (A) (A) (A) (A) (A) (A) (A) (A)
 Beta  Orbitals:
       Occupied  (A) (A) (A) (A) (A) (A) (A) (A) (A) (A) (A) (A)
                 (A) (A) (A) (A) (A) (A) (A) (A) (A) (A) (A) (A)
                 (A) (A) (A) (A)
       Virtual   (A) (A) (A) (A) (A) (A) (A) (A) (A) (A) (A) (A)
                 (A) (A) (A) (A) (A) (A) (A) (A) (A) (A) (A) (A)
                 (A) (A) (A) (A) (A) (A) (A) (A) (A) (A) (A) (A)
                 (A) (A) (A) (A) (A) (A) (A) (A) (A) (A) (A) (A)
                 (A) (A) (A) (A) (A) (A) (A) (A) (A) (A) (A) (A)
                 (A) (A) (A) (A) (A) (A) (A) (A) (A) (A) (A) (A)
                 (A) (A) (A) (A) (A) (A) (A) (A) (A) (A) (A) (A)
                 (A) (A) (A) (A) (A) (A) (A) (A) (A) (A) (A) (A)
                 (A) (A) (A) (A) (A) (A) (A) (A) (A) (A) (A) (A)
                 (A) (A) (A) (A) (A) (A) (A) (A) (A) (A) (A) (A)
                 (A) (A) (A) (A) (A) (A) (A) (A) (A) (A) (A) (A)
                 (A) (A) (A) (A) (A) (A) (A) (A) (A) (A) (A) (A)
                 (A) (A) (A) (A) (A) (A) (A) (A) (A) (A) (A) (A)
                 (A) (A) (A) (A) (A) (A) (A) (A) (A) (A) (A) (A)
                 (A) (A) (A) (A) (A) (A) (A) (A) (A) (A) (A) (A)
                 (A) (A) (A) (A) (A) (A) (A) (A) (A) (A) (A) (A)
                 (A) (A) (A) (A) (A) (A) (A) (A) (A) (A) (A) (A)
                 (A) (A) (A) (A) (A) (A) (A) (A) (A) (A) (A) (A)
                 (A) (A) (A) (A) (A) (A) (A) (A) (A) (A) (A) (A)
                 (A) (A) (A) (A) (A) (A) (A) (A) (A) (A) (A) (A)
                 (A) (A) (A) (A) (A) (A) (A) (A) (A) (A) (A) (A)
                 (A) (A) (A) (A) (A) (A) (A) (A) (A) (A) (A) (A)
                 (A) (A) (A) (A) (A) (A) (A) (A) (A) (A) (A) (A)
                 (A) (A) (A) (A) (A) (A) (A) (A) (A) (A) (A) (A)
                 (A) (A) (A) (A) (A) (A) (A) (A) (A) (A)
 The electronic state of the initial guess is 3-A.
 Initial guess <Sx>= 0.0000 <Sy>= 0.0000 <Sz>= 1.0000 <S**2>= 2.0000 S= 1.0000
 Requested convergence on RMS density matrix=1.00D-08 within 128 cycles.
 Requested convergence on MAX density matrix=1.00D-06.
 Requested convergence on             energy=1.00D-06.
 No special actions if energy rises.
 Restarting incremental Fock formation.
 SCF Done:  E(UM062X) =  -382.495166672     A.U. after   37 cycles
             Convg  =    0.1375D-08             -V/T =  2.0034
 <Sx>= 0.0000 <Sy>= 0.0000 <Sz>= 1.0000 <S**2>= 2.0218 S= 1.0073
 <L.S>= 0.000000000000E+00
 Annihilation of the first spin contaminant:
 S**2 before annihilation     2.0218,   after     2.0002
 Range of M.O.s used for correlation:     1   326
 NBasis=   326 NAE=    30 NBE=    28 NFC=     0 NFV=     0
 NROrb=    326 NOA=    30 NOB=    28 NVA=   296 NVB=   298

 **** Warning!!: The largest alpha MO coefficient is  0.12670205D+03


 **** Warning!!: The largest beta MO coefficient is  0.12454461D+03

 Symmetrizing basis deriv contribution to polar:
 IMax=3 JMax=2 DiffMx= 0.00D+00
 G2DrvN: will do    15 centers at a time, making    1 passes doing MaxLOS=3.
 Calling FoFCou, ICntrl=  3107 FMM=F I1Cent=   0 AccDes= 0.00D+00.
 FoFDir/FoFCou used for L=0 through L=3.
 End of G2Drv Frequency-dependent properties file   721 does not exist.
 End of G2Drv Frequency-dependent properties file   722 does not exist.
          IDoAtm=11111111111111
          Differentiating once with respect to nuclear coordinates.
          There are    45 degrees of freedom in the 1st order CPHF.  IDoFFX=5.
     39 vectors produced by pass  0 Test12= 3.83D-10 2.22D-07 XBig12= 3.73D-01 3.51D-01.
 AX will form    39 AO Fock derivatives at one time.
     39 vectors produced by pass  1 Test12= 3.83D-10 2.22D-07 XBig12= 9.09D-02 5.71D-02.
     39 vectors produced by pass  2 Test12= 3.83D-10 2.22D-07 XBig12= 4.37D-03 1.47D-02.
     39 vectors produced by pass  3 Test12= 3.83D-10 2.22D-07 XBig12= 5.46D-05 2.59D-03.
     39 vectors produced by pass  4 Test12= 3.83D-10 2.22D-07 XBig12= 9.77D-07 2.05D-04.
     32 vectors produced by pass  5 Test12= 3.83D-10 2.22D-07 XBig12= 1.00D-08 9.95D-06.
     10 vectors produced by pass  6 Test12= 3.83D-10 2.22D-07 XBig12= 1.16D-10 1.05D-06.
 Inverted reduced A of dimension   237 with in-core refinement.
 End of Minotr Frequency-dependent properties file   721 does not exist.
 End of Minotr Frequency-dependent properties file   722 does not exist.

 **********************************************************************

            Population analysis using the SCF density.

 **********************************************************************

 Orbital symmetries:
 Alpha Orbitals:
       Occupied  (A) (A) (A) (A) (A) (A) (A) (A) (A) (A) (A) (A)
                 (A) (A) (A) (A) (A) (A) (A) (A) (A) (A) (A) (A)
                 (A) (A) (A) (A) (A) (A)
       Virtual   (A) (A) (A) (A) (A) (A) (A) (A) (A) (A) (A) (A)
                 (A) (A) (A) (A) (A) (A) (A) (A) (A) (A) (A) (A)
                 (A) (A) (A) (A) (A) (A) (A) (A) (A) (A) (A) (A)
                 (A) (A) (A) (A) (A) (A) (A) (A) (A) (A) (A) (A)
                 (A) (A) (A) (A) (A) (A) (A) (A) (A) (A) (A) (A)
                 (A) (A) (A) (A) (A) (A) (A) (A) (A) (A) (A) (A)
                 (A) (A) (A) (A) (A) (A) (A) (A) (A) (A) (A) (A)
                 (A) (A) (A) (A) (A) (A) (A) (A) (A) (A) (A) (A)
                 (A) (A) (A) (A) (A) (A) (A) (A) (A) (A) (A) (A)
                 (A) (A) (A) (A) (A) (A) (A) (A) (A) (A) (A) (A)
                 (A) (A) (A) (A) (A) (A) (A) (A) (A) (A) (A) (A)
                 (A) (A) (A) (A) (A) (A) (A) (A) (A) (A) (A) (A)
                 (A) (A) (A) (A) (A) (A) (A) (A) (A) (A) (A) (A)
                 (A) (A) (A) (A) (A) (A) (A) (A) (A) (A) (A) (A)
                 (A) (A) (A) (A) (A) (A) (A) (A) (A) (A) (A) (A)
                 (A) (A) (A) (A) (A) (A) (A) (A) (A) (A) (A) (A)
                 (A) (A) (A) (A) (A) (A) (A) (A) (A) (A) (A) (A)
                 (A) (A) (A) (A) (A) (A) (A) (A) (A) (A) (A) (A)
                 (A) (A) (A) (A) (A) (A) (A) (A) (A) (A) (A) (A)
                 (A) (A) (A) (A) (A) (A) (A) (A) (A) (A) (A) (A)
                 (A) (A) (A) (A) (A) (A) (A) (A) (A) (A) (A) (A)
                 (A) (A) (A) (A) (A) (A) (A) (A) (A) (A) (A) (A)
                 (A) (A) (A) (A) (A) (A) (A) (A) (A) (A) (A) (A)
                 (A) (A) (A) (A) (A) (A) (A) (A) (A) (A) (A) (A)
                 (A) (A) (A) (A) (A) (A) (A) (A)
 Beta  Orbitals:
       Occupied  (A) (A) (A) (A) (A) (A) (A) (A) (A) (A) (A) (A)
                 (A) (A) (A) (A) (A) (A) (A) (A) (A) (A) (A) (A)
                 (A) (A) (A) (A)
       Virtual   (A) (A) (A) (A) (A) (A) (A) (A) (A) (A) (A) (A)
                 (A) (A) (A) (A) (A) (A) (A) (A) (A) (A) (A) (A)
                 (A) (A) (A) (A) (A) (A) (A) (A) (A) (A) (A) (A)
                 (A) (A) (A) (A) (A) (A) (A) (A) (A) (A) (A) (A)
                 (A) (A) (A) (A) (A) (A) (A) (A) (A) (A) (A) (A)
                 (A) (A) (A) (A) (A) (A) (A) (A) (A) (A) (A) (A)
                 (A) (A) (A) (A) (A) (A) (A) (A) (A) (A) (A) (A)
                 (A) (A) (A) (A) (A) (A) (A) (A) (A) (A) (A) (A)
                 (A) (A) (A) (A) (A) (A) (A) (A) (A) (A) (A) (A)
                 (A) (A) (A) (A) (A) (A) (A) (A) (A) (A) (A) (A)
                 (A) (A) (A) (A) (A) (A) (A) (A) (A) (A) (A) (A)
                 (A) (A) (A) (A) (A) (A) (A) (A) (A) (A) (A) (A)
                 (A) (A) (A) (A) (A) (A) (A) (A) (A) (A) (A) (A)
                 (A) (A) (A) (A) (A) (A) (A) (A) (A) (A) (A) (A)
                 (A) (A) (A) (A) (A) (A) (A) (A) (A) (A) (A) (A)
                 (A) (A) (A) (A) (A) (A) (A) (A) (A) (A) (A) (A)
                 (A) (A) (A) (A) (A) (A) (A) (A) (A) (A) (A) (A)
                 (A) (A) (A) (A) (A) (A) (A) (A) (A) (A) (A) (A)
                 (A) (A) (A) (A) (A) (A) (A) (A) (A) (A) (A) (A)
                 (A) (A) (A) (A) (A) (A) (A) (A) (A) (A) (A) (A)
                 (A) (A) (A) (A) (A) (A) (A) (A) (A) (A) (A) (A)
                 (A) (A) (A) (A) (A) (A) (A) (A) (A) (A) (A) (A)
                 (A) (A) (A) (A) (A) (A) (A) (A) (A) (A) (A) (A)
                 (A) (A) (A) (A) (A) (A) (A) (A) (A) (A) (A) (A)
                 (A) (A) (A) (A) (A) (A) (A) (A) (A) (A)
 The electronic state is 3-A.
 Alpha  occ. eigenvalues --  -19.70407 -19.67360 -10.62544 -10.56824 -10.56667
 Alpha  occ. eigenvalues --  -10.56552 -10.56534 -10.56415  -1.21183  -1.10543
 Alpha  occ. eigenvalues --   -0.98201  -0.87350  -0.85479  -0.72846  -0.71047
 Alpha  occ. eigenvalues --   -0.64884  -0.60541  -0.56702  -0.55025  -0.52689
 Alpha  occ. eigenvalues --   -0.51637  -0.49996  -0.49122  -0.46013  -0.44924
 Alpha  occ. eigenvalues --   -0.44202  -0.43808  -0.39872  -0.33762  -0.30702
 Alpha virt. eigenvalues --   -0.00345   0.00741   0.00839   0.02145   0.02814
 Alpha virt. eigenvalues --    0.04538   0.04709   0.06259   0.07318   0.08638
 Alpha virt. eigenvalues --    0.08729   0.09151   0.09896   0.12891   0.13146
 Alpha virt. eigenvalues --    0.13485   0.13723   0.14472   0.14968   0.15242
 Alpha virt. eigenvalues --    0.17248   0.18015   0.18423   0.19283   0.20319
 Alpha virt. eigenvalues --    0.20545   0.21126   0.21454   0.22127   0.22435
 Alpha virt. eigenvalues --    0.23633   0.24186   0.25326   0.26043   0.27074
 Alpha virt. eigenvalues --    0.28095   0.29468   0.30309   0.31047   0.32851
 Alpha virt. eigenvalues --    0.33765   0.35374   0.36184   0.37952   0.39631
 Alpha virt. eigenvalues --    0.39959   0.46818   0.47614   0.49439   0.52320
 Alpha virt. eigenvalues --    0.53125   0.53555   0.53697   0.54727   0.55350
 Alpha virt. eigenvalues --    0.55867   0.57448   0.60028   0.60479   0.62407
 Alpha virt. eigenvalues --    0.62970   0.63515   0.65568   0.65679   0.66478
 Alpha virt. eigenvalues --    0.67121   0.68539   0.69240   0.70490   0.70759
 Alpha virt. eigenvalues --    0.72565   0.73137   0.73773   0.74774   0.76859
 Alpha virt. eigenvalues --    0.79006   0.81160   0.82012   0.83091   0.84630
 Alpha virt. eigenvalues --    0.87015   0.87431   0.89115   0.94975   0.97993
 Alpha virt. eigenvalues --    0.99404   1.00014   1.02076   1.04895   1.05987
 Alpha virt. eigenvalues --    1.07910   1.08637   1.09123   1.09973   1.12078
 Alpha virt. eigenvalues --    1.14037   1.15916   1.18195   1.18987   1.19657
 Alpha virt. eigenvalues --    1.20414   1.22030   1.26320   1.27803   1.29616
 Alpha virt. eigenvalues --    1.31429   1.32518   1.32722   1.34443   1.35172
 Alpha virt. eigenvalues --    1.36089   1.37490   1.38403   1.39815   1.43569
 Alpha virt. eigenvalues --    1.45452   1.46724   1.47346   1.49663   1.52444
 Alpha virt. eigenvalues --    1.54297   1.55350   1.57178   1.61998   1.65621
 Alpha virt. eigenvalues --    1.68076   1.69430   1.71330   1.73184   1.73406
 Alpha virt. eigenvalues --    1.82614   1.84059   1.85637   1.90571   1.99761
 Alpha virt. eigenvalues --    2.00560   2.01601   2.04767   2.09329   2.26698
 Alpha virt. eigenvalues --    2.38839   2.40340   2.47114   2.50024   2.53715
 Alpha virt. eigenvalues --    2.55563   2.58983   2.59134   2.60193   2.67205
 Alpha virt. eigenvalues --    2.69639   2.71366   2.73563   2.75065   2.75308
 Alpha virt. eigenvalues --    2.76530   2.77515   2.77641   2.79009   2.81432
 Alpha virt. eigenvalues --    2.82590   2.83094   2.84599   2.85994   2.86483
 Alpha virt. eigenvalues --    2.88429   2.92375   2.93458   2.95204   3.00104
 Alpha virt. eigenvalues --    3.00600   3.02758   3.07446   3.08427   3.10015
 Alpha virt. eigenvalues --    3.12100   3.14382   3.14958   3.15958   3.18320
 Alpha virt. eigenvalues --    3.21213   3.23862   3.24707   3.29815   3.30491
 Alpha virt. eigenvalues --    3.31467   3.32150   3.34252   3.35509   3.38217
 Alpha virt. eigenvalues --    3.39617   3.40486   3.41410   3.41621   3.44539
 Alpha virt. eigenvalues --    3.46767   3.49944   3.51782   3.55760   3.57739
 Alpha virt. eigenvalues --    3.61048   3.66105   3.68854   3.69409   3.70497
 Alpha virt. eigenvalues --    3.72736   3.74941   3.76666   3.80079   3.81588
 Alpha virt. eigenvalues --    3.82513   3.85508   3.86272   3.89267   3.92163
 Alpha virt. eigenvalues --    3.93192   3.95546   4.02428   4.02990   4.03945
 Alpha virt. eigenvalues --    4.05596   4.07644   4.10606   4.14383   4.17053
 Alpha virt. eigenvalues --    4.24118   4.24770   4.26900   4.34199   4.35784
 Alpha virt. eigenvalues --    4.37852   4.39874   4.40793   4.42251   4.43204
 Alpha virt. eigenvalues --    4.45175   4.48332   4.54980   4.58926   4.60265
 Alpha virt. eigenvalues --    4.63708   4.67825   4.69797   4.88354   4.91724
 Alpha virt. eigenvalues --    4.95666   4.98152   4.98759   4.99389   4.99867
 Alpha virt. eigenvalues --    5.00307   5.02132   5.02442   5.04660   5.05943
 Alpha virt. eigenvalues --    5.07523   5.08988   5.11690   5.19700   5.24287
 Alpha virt. eigenvalues --    5.26931   5.29060   5.34201   5.34910   5.45401
 Alpha virt. eigenvalues --    5.52425   5.58011   5.62809   5.68174   5.71020
 Alpha virt. eigenvalues --    5.76408   5.77920   5.94983   6.10736   6.30703
 Alpha virt. eigenvalues --    6.62306   6.63090   6.64295   6.73362   6.76577
 Alpha virt. eigenvalues --    6.82250   6.91580   7.06922   7.17686   7.28597
 Alpha virt. eigenvalues --    7.44225   7.65298   7.79686  23.85290  24.44108
 Alpha virt. eigenvalues --   24.51258  24.73419  24.73739  25.19649  49.91368
 Alpha virt. eigenvalues --   50.20249
  Beta  occ. eigenvalues --  -19.67664 -19.66762 -10.62571 -10.56750 -10.56626
  Beta  occ. eigenvalues --  -10.56573 -10.56543 -10.56360  -1.19118  -0.98384
  Beta  occ. eigenvalues --   -0.96984  -0.87214  -0.84866  -0.72364  -0.70501
  Beta  occ. eigenvalues --   -0.63436  -0.59242  -0.56308  -0.53078  -0.51515
  Beta  occ. eigenvalues --   -0.50876  -0.46918  -0.44615  -0.43112  -0.40952
  Beta  occ. eigenvalues --   -0.37139  -0.33402  -0.29487
  Beta virt. eigenvalues --   -0.15569  -0.08759   0.00270   0.00853   0.01761
  Beta virt. eigenvalues --    0.02185   0.02928   0.04703   0.04847   0.06178
  Beta virt. eigenvalues --    0.07419   0.08678   0.08950   0.09206   0.09955
  Beta virt. eigenvalues --    0.12979   0.13259   0.13734   0.13851   0.14802
  Beta virt. eigenvalues --    0.15122   0.15197   0.17327   0.18087   0.18646
  Beta virt. eigenvalues --    0.19427   0.20293   0.20768   0.21416   0.21439
  Beta virt. eigenvalues --    0.22187   0.22469   0.23777   0.24168   0.25414
  Beta virt. eigenvalues --    0.26281   0.27165   0.28865   0.29736   0.30645
  Beta virt. eigenvalues --    0.31429   0.33009   0.33941   0.35431   0.36263
  Beta virt. eigenvalues --    0.38271   0.40128   0.40845   0.47035   0.47976
  Beta virt. eigenvalues --    0.49618   0.52482   0.53270   0.53768   0.53973
  Beta virt. eigenvalues --    0.54938   0.55740   0.56064   0.57785   0.60377
  Beta virt. eigenvalues --    0.60942   0.62631   0.63247   0.63718   0.65684
  Beta virt. eigenvalues --    0.65776   0.66744   0.67289   0.68747   0.69430
  Beta virt. eigenvalues --    0.70550   0.70835   0.72622   0.73330   0.73934
  Beta virt. eigenvalues --    0.74843   0.77045   0.79219   0.81434   0.82098
  Beta virt. eigenvalues --    0.83243   0.84811   0.87351   0.87505   0.89423
  Beta virt. eigenvalues --    0.95148   0.98040   0.99651   1.00244   1.02755
  Beta virt. eigenvalues --    1.05244   1.06177   1.08340   1.09174   1.10463
  Beta virt. eigenvalues --    1.12435   1.13081   1.15068   1.16897   1.19016
  Beta virt. eigenvalues --    1.19570   1.20115   1.20682   1.22411   1.26635
  Beta virt. eigenvalues --    1.28172   1.29839   1.31781   1.32724   1.32951
  Beta virt. eigenvalues --    1.34933   1.35608   1.36449   1.37993   1.38805
  Beta virt. eigenvalues --    1.40078   1.44365   1.45962   1.46986   1.47775
  Beta virt. eigenvalues --    1.51444   1.55716   1.57282   1.57580   1.58112
  Beta virt. eigenvalues --    1.64131   1.66619   1.68600   1.69938   1.71802
  Beta virt. eigenvalues --    1.73674   1.74282   1.83257   1.86306   1.86823
  Beta virt. eigenvalues --    1.90856   2.00266   2.00722   2.02150   2.05073
  Beta virt. eigenvalues --    2.10374   2.27325   2.38882   2.41108   2.47681
  Beta virt. eigenvalues --    2.50187   2.54144   2.55735   2.59404   2.60101
  Beta virt. eigenvalues --    2.60663   2.67399   2.69266   2.72553   2.73812
  Beta virt. eigenvalues --    2.75200   2.75583   2.76834   2.77856   2.77932
  Beta virt. eigenvalues --    2.78944   2.81763   2.82896   2.83431   2.85035
  Beta virt. eigenvalues --    2.86488   2.87081   2.88784   2.93298   2.93782
  Beta virt. eigenvalues --    2.95465   3.00366   3.01243   3.02803   3.07934
  Beta virt. eigenvalues --    3.08877   3.10313   3.12335   3.14873   3.15643
  Beta virt. eigenvalues --    3.16466   3.19000   3.21463   3.24186   3.25074
  Beta virt. eigenvalues --    3.30207   3.30776   3.31940   3.32597   3.34634
  Beta virt. eigenvalues --    3.35902   3.38468   3.40165   3.40948   3.42027
  Beta virt. eigenvalues --    3.42120   3.44893   3.47153   3.51251   3.51997
  Beta virt. eigenvalues --    3.56071   3.58058   3.61445   3.66423   3.69441
  Beta virt. eigenvalues --    3.69886   3.71083   3.73298   3.75272   3.76794
  Beta virt. eigenvalues --    3.80581   3.81916   3.82981   3.85770   3.86570
  Beta virt. eigenvalues --    3.89545   3.92348   3.93257   3.95795   4.02795
  Beta virt. eigenvalues --    4.03399   4.04027   4.05830   4.07587   4.10736
  Beta virt. eigenvalues --    4.14685   4.17403   4.24479   4.25401   4.27085
  Beta virt. eigenvalues --    4.34907   4.36861   4.38893   4.40393   4.41618
  Beta virt. eigenvalues --    4.42814   4.43704   4.45999   4.49073   4.55482
  Beta virt. eigenvalues --    4.59209   4.60851   4.64815   4.68519   4.70243
  Beta virt. eigenvalues --    4.89285   4.92464   4.96838   5.00196   5.02788
  Beta virt. eigenvalues --    5.03322   5.04250   5.05022   5.06334   5.07114
  Beta virt. eigenvalues --    5.07246   5.08842   5.10410   5.13382   5.16018
  Beta virt. eigenvalues --    5.20809   5.25308   5.27701   5.30283   5.34972
  Beta virt. eigenvalues --    5.36970   5.46722   5.53852   5.58954   5.63601
  Beta virt. eigenvalues --    5.69142   5.71745   5.77106   5.78339   5.96200
  Beta virt. eigenvalues --    6.11023   6.31326   6.64256   6.76860   6.79463
  Beta virt. eigenvalues --    6.80546   6.86684   6.92832   6.98464   7.11362
  Beta virt. eigenvalues --    7.21585   7.31135   7.50336   7.68823   7.81791
  Beta virt. eigenvalues --   23.85347  24.44205  24.51451  24.73535  24.73870
  Beta virt. eigenvalues --   25.19860  49.90398  50.19555
          Condensed to atoms (all electrons):
              1          2          3          4          5          6
     1  O    8.095501   0.127555   0.000982  -0.057497  -0.001594   0.001434
     2  H    0.127555   0.335279   0.014958   0.076851   0.005335  -0.001473
     3  C    0.000982   0.014958   6.411217  -0.219945  -0.048112  -0.265931
     4  C   -0.057497   0.076851  -0.219945   6.625583   0.483241   0.068193
     5  C   -0.001594   0.005335  -0.048112   0.483241   5.186270   0.431424
     6  C    0.001434  -0.001473  -0.265931   0.068193   0.431424   5.013034
     7  C    0.041978  -0.006962  -0.183251  -0.232365   0.171316   0.431173
     8  C    0.051823  -0.104419   0.057958  -0.922467  -0.386074   0.074795
     9  O   -0.043003   0.243136   0.497989  -0.302989  -0.013697  -0.011286
    10  H    0.000025  -0.000183   0.046241   0.320397   0.038489  -0.009924
    11  H   -0.000009   0.000015  -0.006585   0.028880   0.332750   0.028547
    12  H    0.000002  -0.000005   0.005141  -0.011566   0.032030   0.332517
    13  H    0.000026  -0.000051  -0.006595  -0.005392  -0.002484   0.027227
    14  H   -0.002661   0.007195   0.030298  -0.014074   0.003685  -0.011662
              7          8          9         10         11         12
     1  O    0.041978   0.051823  -0.043003   0.000025  -0.000009   0.000002
     2  H   -0.006962  -0.104419   0.243136  -0.000183   0.000015  -0.000005
     3  C   -0.183251   0.057958   0.497989   0.046241  -0.006585   0.005141
     4  C   -0.232365  -0.922467  -0.302989   0.320397   0.028880  -0.011566
     5  C    0.171316  -0.386074  -0.013697   0.038489   0.332750   0.032030
     6  C    0.431173   0.074795  -0.011286  -0.009924   0.028547   0.332517
     7  C    5.611729   0.059148  -0.013064   0.001886  -0.005392   0.032798
     8  C    0.059148   6.718613  -0.106607  -0.009310   0.000672  -0.011669
     9  O   -0.013064  -0.106607   8.053157  -0.001670  -0.000197   0.000080
    10  H    0.001886  -0.009310  -0.001670   0.454568  -0.006346  -0.000043
    11  H   -0.005392   0.000672  -0.000197  -0.006346   0.481460  -0.006215
    12  H    0.032798  -0.011669   0.000080  -0.000043  -0.006215   0.479281
    13  H    0.326502   0.039471  -0.000153   0.000040  -0.000068  -0.006333
    14  H    0.040792   0.336204  -0.004766  -0.000062   0.000039  -0.000042
             13         14
     1  O    0.000026  -0.002661
     2  H   -0.000051   0.007195
     3  C   -0.006595   0.030298
     4  C   -0.005392  -0.014074
     5  C   -0.002484   0.003685
     6  C    0.027227  -0.011662
     7  C    0.326502   0.040792
     8  C    0.039471   0.336204
     9  O   -0.000153  -0.004766
    10  H    0.000040  -0.000062
    11  H   -0.000068   0.000039
    12  H   -0.006333  -0.000042
    13  H    0.481771  -0.006472
    14  H   -0.006472   0.451386
 Mulliken atomic charges:
              1
     1  O   -0.214562
     2  H    0.302771
     3  C   -0.334365
     4  C    0.163149
     5  C   -0.232581
     6  C   -0.108071
     7  C   -0.276288
     8  C    0.201863
     9  O   -0.296932
    10  H    0.165893
    11  H    0.152449
    12  H    0.154023
    13  H    0.152510
    14  H    0.170140
 Sum of Mulliken atomic charges =   0.00000
 Mulliken charges with hydrogens summed into heavy atoms:
              1
     1  O   -0.214562
     3  C   -0.334365
     4  C    0.329042
     5  C   -0.080132
     6  C    0.045953
     7  C   -0.123778
     8  C    0.372002
     9  O    0.005840
 Sum of Mulliken charges with hydrogens summed into heavy atoms =   0.00000
          Atomic-Atomic Spin Densities.
              1          2          3          4          5          6
     1  O    1.570881  -0.011667  -0.014205   0.004809   0.001307   0.002567
     2  H   -0.011667  -0.065142  -0.000997   0.012418   0.001715  -0.000032
     3  C   -0.014205  -0.000997   0.118534   0.014616   0.011998  -0.024838
     4  C    0.004809   0.012418   0.014616   0.307047  -0.004642  -0.004890
     5  C    0.001307   0.001715   0.011998  -0.004642  -0.083683   0.016191
     6  C    0.002567  -0.000032  -0.024838  -0.004890   0.016191   0.173210
     7  C   -0.007152  -0.000392  -0.068636  -0.047909  -0.020006   0.023010
     8  C    0.020592  -0.005718  -0.045790  -0.139759   0.028051  -0.027610
     9  O   -0.025578   0.022612  -0.029910  -0.030675  -0.003522   0.000444
    10  H    0.000024   0.000026   0.001270  -0.003251   0.001489  -0.000513
    11  H   -0.000001   0.000001   0.000272   0.000110  -0.000289  -0.000929
    12  H    0.000001   0.000000   0.000235  -0.000810   0.000538  -0.000452
    13  H    0.000003   0.000004  -0.000478   0.000331  -0.000192  -0.000004
    14  H   -0.002317  -0.000249   0.003183   0.001395   0.000639  -0.001055
              7          8          9         10         11         12
     1  O   -0.007152   0.020592  -0.025578   0.000024  -0.000001   0.000001
     2  H   -0.000392  -0.005718   0.022612   0.000026   0.000001   0.000000
     3  C   -0.068636  -0.045790  -0.029910   0.001270   0.000272   0.000235
     4  C   -0.047909  -0.139759  -0.030675  -0.003251   0.000110  -0.000810
     5  C   -0.020006   0.028051  -0.003522   0.001489  -0.000289   0.000538
     6  C    0.023010  -0.027610   0.000444  -0.000513  -0.000929  -0.000452
     7  C   -0.057872   0.115982   0.007680   0.000390   0.000104   0.000483
     8  C    0.115982   0.177779   0.012129  -0.000328  -0.000038  -0.000071
     9  O    0.007680   0.012129   0.319479   0.000333  -0.000008   0.000000
    10  H    0.000390  -0.000328   0.000333  -0.006230  -0.000070   0.000004
    11  H    0.000104  -0.000038  -0.000008  -0.000070   0.003262  -0.000022
    12  H    0.000483  -0.000071   0.000000   0.000004  -0.000022  -0.010189
    13  H   -0.001850   0.001260   0.000010   0.000000  -0.000004  -0.000018
    14  H    0.008560  -0.013953   0.000287  -0.000004   0.000001   0.000003
             13         14
     1  O    0.000003  -0.002317
     2  H    0.000004  -0.000249
     3  C   -0.000478   0.003183
     4  C    0.000331   0.001395
     5  C   -0.000192   0.000639
     6  C   -0.000004  -0.001055
     7  C   -0.001850   0.008560
     8  C    0.001260  -0.013953
     9  O    0.000010   0.000287
    10  H    0.000000  -0.000004
    11  H   -0.000004   0.000001
    12  H   -0.000018   0.000003
    13  H    0.003618  -0.000195
    14  H   -0.000195  -0.002794
 Mulliken atomic spin densities:
              1
     1  O    1.539265
     2  H   -0.047420
     3  C   -0.034744
     4  C    0.108789
     5  C   -0.050405
     6  C    0.155097
     7  C   -0.047608
     8  C    0.122526
     9  O    0.273282
    10  H   -0.006860
    11  H    0.002389
    12  H   -0.010299
    13  H    0.002485
    14  H   -0.006497
 Sum of Mulliken atomic spin densities =   2.00000
 APT atomic charges:
              1
     1  O   -0.144712
     2  H    0.421322
     3  C   -0.313694
     4  C   -0.247810
     5  C   -0.660544
     6  C   -0.541034
     7  C   -0.698629
     8  C   -0.313567
     9  O   -0.532715
    10  H    0.543152
    11  H    0.678126
    12  H    0.722637
    13  H    0.613569
    14  H    0.473897
 Sum of APT charges=   0.00000
 APT Atomic charges with hydrogens summed into heavy atoms:
              1
     1  O   -0.144712
     2  H    0.000000
     3  C   -0.313694
     4  C    0.295342
     5  C    0.017583
     6  C    0.181602
     7  C   -0.085060
     8  C    0.160330
     9  O   -0.111393
    10  H    0.000000
    11  H    0.000000
    12  H    0.000000
    13  H    0.000000
    14  H    0.000000
 Sum of APT charges=   0.00000
 Electronic spatial extent (au):  <R**2>=            996.2117
 Charge=              0.0000 electrons
 Dipole moment (field-independent basis, Debye):
    X=              3.0914    Y=              0.4586    Z=             -0.3859  Tot=              3.1490
 Quadrupole moment (field-independent basis, Debye-Ang):
   XX=            -47.2793   YY=            -42.5807   ZZ=            -50.7960
   XY=             -0.2943   XZ=              3.5614   YZ=             -2.0929
 Traceless Quadrupole moment (field-independent basis, Debye-Ang):
   XX=             -0.3939   YY=              4.3046   ZZ=             -3.9107
   XY=             -0.2943   XZ=              3.5614   YZ=             -2.0929
 Octapole moment (field-independent basis, Debye-Ang**2):
  XXX=              8.8134  YYY=             -0.0158  ZZZ=             -1.0140  XYY=              2.8815
  XXY=             -1.3365  XXZ=             -2.8850  XZZ=             -5.1090  YZZ=             -0.4788
  YYZ=              0.4952  XYZ=              1.4444
 Hexadecapole moment (field-independent basis, Debye-Ang**3):
 XXXX=           -829.1766 YYYY=           -300.7080 ZZZZ=           -102.7410 XXXY=             12.6662
 XXXZ=             35.2027 YYYX=             -0.9070 YYYZ=             -5.2922 ZZZX=              0.1210
 ZZZY=              3.1917 XXYY=           -193.8598 XXZZ=           -176.9205 YYZZ=            -76.0773
 XXYZ=             -6.5978 YYXZ=              1.5417 ZZXY=             -1.8001
 N-N= 3.334304049761D+02 E-N=-2.323405518052D+03  KE= 5.689553881942D+02
  Exact polarizability:   0.000   0.000   0.000   0.000   0.000   0.000
 Approx polarizability: 217.841 -17.659 116.050 -14.981   4.300  74.802
                          Isotropic Fermi Contact Couplings
        Atom                 a.u.       MegaHertz       Gauss      10(-4) cm-1
     1  O(17)              0.16919     -51.28067     -18.29822     -17.10539
     2  H(1)              -0.02228     -49.78409     -17.76420     -16.60618
     3  C(13)             -0.01369      -7.69369      -2.74530      -2.56634
     4  C(13)              0.01153       6.48127       2.31268       2.16192
     5  C(13)             -0.01152      -6.47433      -2.31020      -2.15960
     6  C(13)              0.01766       9.92621       3.54192       3.31103
     7  C(13)             -0.01207      -6.78471      -2.42095      -2.26313
     8  C(13)              0.01341       7.53861       2.68996       2.51461
     9  O(17)              0.02551      -7.73260      -2.75919      -2.57932
    10  H(1)              -0.00174      -3.88739      -1.38712      -1.29670
    11  H(1)               0.00045       1.01335       0.36159       0.33802
    12  H(1)              -0.00221      -4.93976      -1.76263      -1.64773
    13  H(1)               0.00044       0.98464       0.35134       0.32844
    14  H(1)              -0.00140      -3.11941      -1.11308      -1.04052
 --------------------------------------------------------
       Center         ----  Spin Dipole Couplings  ----
                      3XX-RR        3YY-RR        3ZZ-RR
 --------------------------------------------------------
     1   Atom        2.202164      0.304240     -2.506404
     2   Atom       -0.000373     -0.012132      0.012505
     3   Atom        0.038026     -0.006312     -0.031715
     4   Atom       -0.047848     -0.052152      0.099999
     5   Atom        0.018697      0.016548     -0.035245
     6   Atom       -0.056386     -0.073958      0.130344
     7   Atom        0.023460      0.015257     -0.038717
     8   Atom       -0.033991     -0.058024      0.092015
     9   Atom       -0.412054     -0.482738      0.894792
    10   Atom       -0.003608      0.009081     -0.005473
    11   Atom        0.001954      0.001051     -0.003005
    12   Atom        0.011447     -0.009193     -0.002254
    13   Atom        0.004481     -0.000979     -0.003502
    14   Atom        0.005819     -0.001790     -0.004029
 --------------------------------------------------------
                        XY            XZ            YZ
 --------------------------------------------------------
     1   Atom        0.403412      1.006128      1.140308
     2   Atom       -0.118476     -0.105505      0.122495
     3   Atom       -0.001668     -0.015485      0.002211
     4   Atom       -0.007622     -0.017907      0.015756
     5   Atom        0.002029      0.014372     -0.005789
     6   Atom       -0.004005     -0.047216      0.025288
     7   Atom        0.003081      0.012675     -0.007471
     8   Atom       -0.003339     -0.050770      0.018127
     9   Atom       -0.212589     -0.674170      0.550488
    10   Atom       -0.003166     -0.000945     -0.002021
    11   Atom       -0.000047      0.000404     -0.000016
    12   Atom        0.006548      0.001801      0.002274
    13   Atom        0.001250     -0.000055     -0.000846
    14   Atom        0.002281     -0.010288     -0.010037
 --------------------------------------------------------


 ---------------------------------------------------------------------------------
              Anisotropic Spin Dipole Couplings in Principal Axis System
 ---------------------------------------------------------------------------------

       Atom             a.u.   MegaHertz   Gauss  10(-4) cm-1        Axes

              Baa    -3.0404   220.003    78.503    73.385 -0.1573 -0.3016  0.9404
     1 O(17)  Bbb     0.4459   -32.261   -11.512   -10.761 -0.3432  0.9096  0.2344
              Bcc     2.5946  -187.742   -66.991   -62.624  0.9260  0.2859  0.2466
 
              Baa    -0.1316   -70.221   -25.057   -23.423  0.4361  0.8177 -0.3758
     2 H(1)   Bbb    -0.0995   -53.101   -18.948   -17.713  0.7011 -0.0469  0.7115
              Bcc     0.2311   123.322    44.004    41.136 -0.5642  0.5737  0.5937
 
              Baa    -0.0351    -4.712    -1.681    -1.572  0.2053 -0.0631  0.9767
     3 C(13)  Bbb    -0.0063    -0.844    -0.301    -0.281  0.0559  0.9970  0.0526
              Bcc     0.0414     5.556     1.982     1.853  0.9771 -0.0438 -0.2083
 
              Baa    -0.0579    -7.776    -2.775    -2.594  0.5861  0.8101 -0.0144
     4 C(13)  Bbb    -0.0459    -6.166    -2.200    -2.057  0.8011 -0.5767  0.1605
              Bcc     0.1039    13.942     4.975     4.650 -0.1218  0.1056  0.9869
 
              Baa    -0.0395    -5.301    -1.891    -1.768 -0.2419  0.1084  0.9642
     5 C(13)  Bbb     0.0172     2.302     0.821     0.768 -0.0794  0.9882 -0.1310
              Bcc     0.0223     2.999     1.070     1.000  0.9670  0.1083  0.2304
 
              Baa    -0.0773   -10.378    -3.703    -3.462 -0.1663  0.9736 -0.1564
     6 C(13)  Bbb    -0.0673    -9.024    -3.220    -3.010  0.9590  0.1966  0.2040
              Bcc     0.1446    19.402     6.923     6.472 -0.2294  0.1160  0.9664
 
              Baa    -0.0423    -5.675    -2.025    -1.893 -0.1937  0.1365  0.9715
     7 C(13)  Bbb     0.0161     2.160     0.771     0.721 -0.1286  0.9782 -0.1631
              Bcc     0.0262     3.515     1.254     1.173  0.9726  0.1565  0.1719
 
              Baa    -0.0609    -8.171    -2.915    -2.725 -0.2529  0.9474 -0.1963
     8 C(13)  Bbb    -0.0510    -6.842    -2.441    -2.282  0.9098  0.3019  0.2848
              Bcc     0.1119    15.013     5.357     5.008 -0.3290  0.1066  0.9383
 
              Baa    -0.7065    51.124    18.242    17.053  0.7710 -0.4279  0.4717
     9 O(17)  Bbb    -0.6617    47.878    17.084    15.970  0.5191  0.8513 -0.0762
              Bcc     1.3682   -99.002   -35.326   -33.023 -0.3689  0.3036  0.8785
 
              Baa    -0.0065    -3.488    -1.244    -1.163  0.4983  0.2099  0.8412
    10 H(1)   Bbb    -0.0035    -1.862    -0.664    -0.621  0.8393  0.1264 -0.5287
              Bcc     0.0100     5.349     1.909     1.784 -0.2173  0.9695 -0.1132
 
              Baa    -0.0030    -1.621    -0.578    -0.541 -0.0806  0.0029  0.9967
    11 H(1)   Bbb     0.0010     0.559     0.200     0.187  0.0514  0.9987  0.0012
              Bcc     0.0020     1.061     0.379     0.354  0.9954 -0.0513  0.0807
 
              Baa    -0.0114    -6.089    -2.173    -2.031 -0.2571  0.9485 -0.1849
    12 H(1)   Bbb    -0.0023    -1.222    -0.436    -0.408 -0.1928  0.1372  0.9716
              Bcc     0.0137     7.311     2.609     2.439  0.9470  0.2855  0.1476
 
              Baa    -0.0038    -2.013    -0.718    -0.671 -0.0400  0.3061  0.9512
    13 H(1)   Bbb    -0.0010    -0.527    -0.188    -0.176 -0.2149  0.9270 -0.3074
              Bcc     0.0048     2.540     0.906     0.847  0.9758  0.2167 -0.0287
 
              Baa    -0.0151    -8.080    -2.883    -2.695  0.3257  0.5318  0.7817
    14 H(1)   Bbb    -0.0006    -0.308    -0.110    -0.103 -0.6377  0.7340 -0.2337
              Bcc     0.0157     8.388     2.993     2.798  0.6980  0.4223 -0.5782
 

 ---------------------------------------------------------------------------------

 Calling FoFJK, ICntrl=    100147 FMM=F ISym2X=0 I1Cent= 0 IOpClX= 1 NMat=1 NMatS=1 NMatT=0.
 ***** Axes restored to original set *****
 -------------------------------------------------------------------
 Center     Atomic                   Forces (Hartrees/Bohr)
 Number     Number              X              Y              Z
 -------------------------------------------------------------------
      1        8           0.000029858   -0.000003315   -0.000063552
      2        1          -0.000017459    0.000094725    0.000115039
      3        6          -0.000133751   -0.000023749    0.000033008
      4        6           0.000045404   -0.000030158    0.000025813
      5        6          -0.000031246   -0.000051483   -0.000004916
      6        6          -0.000005292    0.000019827   -0.000008783
      7        6           0.000012352   -0.000004542    0.000008410
      8        6           0.000014975    0.000065858   -0.000101070
      9        8           0.000074476   -0.000028595   -0.000024556
     10        1          -0.000013494    0.000001142    0.000017273
     11        1          -0.000008272   -0.000013802   -0.000009505
     12        1           0.000003906   -0.000011866    0.000004066
     13        1           0.000012073   -0.000009208   -0.000011476
     14        1           0.000016471   -0.000004834    0.000020249
 -------------------------------------------------------------------
 Cartesian Forces:  Max     0.000133751 RMS     0.000043326

 GradGradGradGradGradGradGradGradGradGradGradGradGradGradGradGradGradGrad
 Berny optimization.
 Internal  Forces:  Max     0.000088435 RMS     0.000024228
 Search for a saddle point.
 Step number   1 out of a maximum of   71
 All quantities printed in internal units (Hartrees-Bohrs-Radians)
 Swaping is turned off.
 Second derivative matrix not updated -- analytic derivatives used.
 ITU=  0
     Eigenvalues ---   -0.10407   0.00486   0.00997   0.01553   0.01740
     Eigenvalues ---    0.01809   0.02273   0.02323   0.02554   0.02802
     Eigenvalues ---    0.02835   0.03076   0.03559   0.10450   0.10793
     Eigenvalues ---    0.11153   0.12175   0.12310   0.12970   0.17984
     Eigenvalues ---    0.18871   0.19254   0.22424   0.24512   0.28613
     Eigenvalues ---    0.34670   0.35754   0.35872   0.36109   0.36135
     Eigenvalues ---    0.36514   0.42527   0.44055   0.45671   0.51533
     Eigenvalues ---    0.54223
 Eigenvectors required to have negative eigenvalues:
                          R1        R2        R5        A1        R3
   1                   -0.75337   0.57449  -0.21087   0.17520   0.08659
                          R4        D1        R12       R6        A11
   1                    0.08582   0.03927  -0.03750  -0.03703   0.03139
 RFO step:  Lambda0=1.310735115D-07 Lambda=-2.64246831D-07.
 Linear search not attempted -- option 19 set.
 Iteration  1 RMS(Cart)=  0.00078736 RMS(Int)=  0.00000056
 Iteration  2 RMS(Cart)=  0.00000068 RMS(Int)=  0.00000005
 Variable       Old X    -DE/DX   Delta X   Delta X   Delta X     New X
                                 (Linear)    (Quad)   (Total)
    R1        2.47711  -0.00008   0.00000   0.00096   0.00096   2.47807
    R2        2.02801   0.00004   0.00000  -0.00069  -0.00069   2.02732
    R3        2.65178   0.00005   0.00000   0.00006   0.00006   2.65184
    R4        2.65698   0.00005   0.00000   0.00008   0.00008   2.65706
    R5        2.50466  -0.00009   0.00000   0.00002   0.00002   2.50468
    R6        2.60594  -0.00003   0.00000  -0.00005  -0.00005   2.60589
    R7        2.04262   0.00000   0.00000   0.00000   0.00000   2.04262
    R8        2.63434   0.00004   0.00000   0.00007   0.00007   2.63442
    R9        2.04326   0.00000   0.00000   0.00000   0.00000   2.04326
   R10        2.63022   0.00000   0.00000  -0.00007  -0.00007   2.63015
   R11        2.04306   0.00000   0.00000   0.00000   0.00000   2.04306
   R12        2.60950   0.00000   0.00000   0.00005   0.00005   2.60955
   R13        2.04316   0.00000   0.00000   0.00000   0.00000   2.04316
   R14        2.04478  -0.00002   0.00000  -0.00005  -0.00005   2.04473
    A1        2.68437   0.00005   0.00000   0.00058   0.00058   2.68495
    A2        2.09538   0.00000   0.00000   0.00000   0.00000   2.09538
    A3        2.07204   0.00001   0.00000  -0.00002  -0.00002   2.07202
    A4        2.11552  -0.00001   0.00000   0.00002   0.00002   2.11554
    A5        2.08805  -0.00001   0.00000  -0.00001  -0.00001   2.08804
    A6        2.06461   0.00001   0.00000   0.00003   0.00003   2.06464
    A7        2.13047   0.00000   0.00000  -0.00002  -0.00002   2.13045
    A8        2.09890   0.00000   0.00000   0.00002   0.00002   2.09892
    A9        2.09192   0.00000   0.00000  -0.00001  -0.00001   2.09190
   A10        2.09230   0.00000   0.00000  -0.00001  -0.00001   2.09229
   A11        2.09829   0.00001   0.00000  -0.00001  -0.00001   2.09829
   A12        2.09266  -0.00001   0.00000   0.00001   0.00001   2.09267
   A13        2.09223  -0.00001   0.00000   0.00000   0.00000   2.09223
   A14        2.09904   0.00000   0.00000   0.00003   0.00003   2.09907
   A15        2.09407   0.00000   0.00000   0.00001   0.00001   2.09408
   A16        2.09004   0.00000   0.00000  -0.00004  -0.00004   2.09000
   A17        2.08628  -0.00001   0.00000  -0.00003  -0.00003   2.08624
   A18        2.07547   0.00001   0.00000   0.00007   0.00007   2.07555
   A19        2.12143   0.00001   0.00000  -0.00004  -0.00004   2.12139
   A20        1.92479  -0.00008   0.00000  -0.00050  -0.00050   1.92429
    D1       -1.07707   0.00000   0.00000  -0.00073  -0.00073  -1.07780
    D2       -0.02615   0.00001   0.00000   0.00052   0.00052  -0.02563
    D3        3.12683   0.00001   0.00000   0.00044   0.00044   3.12727
    D4        3.09202   0.00000   0.00000   0.00037   0.00037   3.09239
    D5       -0.03819   0.00000   0.00000   0.00029   0.00029  -0.03790
    D6        0.00393  -0.00002   0.00000  -0.00109  -0.00109   0.00284
    D7       -3.14011   0.00001   0.00000   0.00001   0.00001  -3.14010
    D8       -3.11364  -0.00002   0.00000  -0.00093  -0.00093  -3.11457
    D9        0.02550   0.00001   0.00000   0.00017   0.00017   0.02567
   D10        2.50219   0.00001   0.00000   0.00141   0.00141   2.50360
   D11       -0.66311   0.00001   0.00000   0.00125   0.00125  -0.66186
   D12        0.02973   0.00001   0.00000   0.00033   0.00033   0.03006
   D13       -3.12425   0.00000   0.00000   0.00026   0.00026  -3.12399
   D14       -3.12369   0.00001   0.00000   0.00042   0.00042  -3.12328
   D15        0.00551   0.00000   0.00000   0.00035   0.00035   0.00586
   D16       -0.01129  -0.00001   0.00000  -0.00062  -0.00062  -0.01191
   D17        3.12892  -0.00002   0.00000  -0.00073  -0.00073   3.12819
   D18       -3.14049  -0.00001   0.00000  -0.00055  -0.00055  -3.14104
   D19       -0.00028  -0.00001   0.00000  -0.00066  -0.00066  -0.00094
   D20       -0.01123   0.00000   0.00000   0.00005   0.00005  -0.01119
   D21        3.13964   0.00000   0.00000   0.00007   0.00007   3.13971
   D22        3.13174   0.00000   0.00000   0.00016   0.00016   3.13190
   D23       -0.00057   0.00000   0.00000   0.00018   0.00018  -0.00039
   D24        0.01466   0.00002   0.00000   0.00080   0.00080   0.01546
   D25       -3.12441  -0.00001   0.00000  -0.00033  -0.00033  -3.12474
   D26       -3.13619   0.00002   0.00000   0.00078   0.00078  -3.13541
   D27        0.00792  -0.00001   0.00000  -0.00035  -0.00035   0.00757
         Item               Value     Threshold  Converged?
 Maximum Force            0.000088     0.000450     YES
 RMS     Force            0.000024     0.000300     YES
 Maximum Displacement     0.003995     0.001800     NO 
 RMS     Displacement     0.000788     0.001200     YES
 Predicted change in Energy=-6.658658D-08
 GradGradGradGradGradGradGradGradGradGradGradGradGradGradGradGradGradGrad

                          Input orientation:                          
 ---------------------------------------------------------------------
 Center     Atomic      Atomic             Coordinates (Angstroms)
 Number     Number       Type             X           Y           Z
 ---------------------------------------------------------------------
      1          8           0       -2.973759    0.549563    0.720900
      2          1           0       -2.353739   -0.139817   -0.206427
      3          6           0       -0.398869   -0.392558   -0.288521
      4          6           0        0.591057   -1.317916    0.076149
      5          6           0        1.879942   -0.883571    0.303520
      6          6           0        2.191773    0.471771    0.207321
      7          6           0        1.207153    1.394773   -0.132894
      8          6           0       -0.082497    0.973640   -0.390522
      9          8           0       -1.618109   -0.837191   -0.557772
     10          1           0        0.313398   -2.359254    0.159080
     11          1           0        2.649072   -1.595753    0.568718
     12          1           0        3.201472    0.807418    0.398942
     13          1           0        1.452917    2.445212   -0.204691
     14          1           0       -0.860313    1.671286   -0.671717
 ---------------------------------------------------------------------
                    Distance matrix (angstroms):
                    1          2          3          4          5
     1  O    0.000000
     2  H    1.311337   0.000000
     3  C    2.921743   1.972850   0.000000
     4  C    4.075671   3.184273   1.403291   0.000000
     5  C    5.078041   4.328657   2.405117   1.378977   0.000000
     6  C    5.191583   4.605096   2.775670   2.404678   1.394074
     7  C    4.350100   3.878186   2.407920   2.789616   2.415358
     8  C    3.126419   2.536182   1.406055   2.433657   2.789640
     9  O    2.322902   1.072812   1.325422   2.348056   3.602824
    10  H    4.425184   3.488999   2.139057   1.080905   2.156980
    11  H    6.020114   5.267705   3.387105   2.134302   1.081246
    12  H    6.188993   5.667813   3.856813   3.381643   2.148253
    13  H    4.903639   4.601415   3.389554   3.870763   3.394323
    14  H    2.768447   2.393096   2.149237   3.406040   3.871354
                    6          7          8          9         10
     6  C    0.000000
     7  C    1.391817   0.000000
     8  C    2.404494   1.380914   0.000000
     9  O    4.100482   3.625506   2.380166   0.000000
    10  H    3.397840   3.869982   3.401025   2.561498   0.000000
    11  H    2.148112   3.393322   3.870838   4.478084   2.491207
    12  H    1.081143   2.145960   3.381617   5.181545   4.292589
    13  H    2.147122   1.081193   2.134843   4.508885   4.951134
    14  H    3.395110   2.154346   1.082025   2.622918   4.279377
                   11         12         13         14
    11  H    0.000000
    12  H    2.471680   0.000000
    13  H    4.284664   2.470665   0.000000
    14  H    4.952576   4.288435   2.483568   0.000000
 Stoichiometry    C6H6O2(3)
 Framework group  C1[X(C6H6O2)]
 Deg. of freedom    36
 Full point group                 C1      NOp   1
 Largest Abelian subgroup         C1      NOp   1
 Largest concise Abelian subgroup C1      NOp   1
                         Standard orientation:                         
 ---------------------------------------------------------------------
 Center     Atomic      Atomic             Coordinates (Angstroms)
 Number     Number       Type             X           Y           Z
 ---------------------------------------------------------------------
      1          8           0       -2.973932    0.548376    0.720983
      2          1           0       -2.353680   -0.140956   -0.206224
      3          6           0       -0.398707   -0.392880   -0.288390
      4          6           0        0.591639   -1.317730    0.076432
      5          6           0        1.880354   -0.882780    0.303614
      6          6           0        2.191598    0.472672    0.207076
      7          6           0        1.206562    1.395173   -0.133289
      8          6           0       -0.082925    0.973428   -0.390732
      9          8           0       -1.617775   -0.838098   -0.557454
     10          1           0        0.314431   -2.359166    0.159626
     11          1           0        2.649806   -1.594571    0.568928
     12          1           0        3.201167    0.808796    0.398551
     13          1           0        1.451872    2.445701   -0.205350
     14          1           0       -0.861059    1.670676   -0.672038
 ---------------------------------------------------------------------
 Rotational constants (GHZ):      4.1352420      1.4364142      1.1587631
 Standard basis: 6-311+G(2df,2p) (5D, 7F)
 There are   326 symmetry adapted basis functions of A   symmetry.
 Integral buffers will be    131072 words long.
 Raffenetti 2 integral format.
 Two-electron integral symmetry is turned on.
   326 basis functions,   482 primitive gaussians,   366 cartesian basis functions
    30 alpha electrons       28 beta electrons
       nuclear repulsion energy       333.4320434287 Hartrees.
 NAtoms=   14 NActive=   14 NUniq=   14 SFac= 1.00D+00 NAtFMM=   50 NAOKFM=F Big=F
 One-electron integrals computed using PRISM.
 NBasis=   326 RedAO= T  NBF=   326
 NBsUse=   326 1.00D-06 NBFU=   326
 Initial guess read from the read-write file.
 B after Tr=     0.000000    0.000000    0.000000
         Rot=    1.000000    0.000000    0.000000    0.000000 Ang=   0.00 deg.
 Initial guess orbital symmetries:
 Alpha Orbitals:
       Occupied  (A) (A) (A) (A) (A) (A) (A) (A) (A) (A) (A) (A)
                 (A) (A) (A) (A) (A) (A) (A) (A) (A) (A) (A) (A)
                 (A) (A) (A) (A) (A) (A)
       Virtual   (A) (A) (A) (A) (A) (A) (A) (A) (A) (A) (A) (A)
                 (A) (A) (A) (A) (A) (A) (A) (A) (A) (A) (A) (A)
                 (A) (A) (A) (A) (A) (A) (A) (A) (A) (A) (A) (A)
                 (A) (A) (A) (A) (A) (A) (A) (A) (A) (A) (A) (A)
                 (A) (A) (A) (A) (A) (A) (A) (A) (A) (A) (A) (A)
                 (A) (A) (A) (A) (A) (A) (A) (A) (A) (A) (A) (A)
                 (A) (A) (A) (A) (A) (A) (A) (A) (A) (A) (A) (A)
                 (A) (A) (A) (A) (A) (A) (A) (A) (A) (A) (A) (A)
                 (A) (A) (A) (A) (A) (A) (A) (A) (A) (A) (A) (A)
                 (A) (A) (A) (A) (A) (A) (A) (A) (A) (A) (A) (A)
                 (A) (A) (A) (A) (A) (A) (A) (A) (A) (A) (A) (A)
                 (A) (A) (A) (A) (A) (A) (A) (A) (A) (A) (A) (A)
                 (A) (A) (A) (A) (A) (A) (A) (A) (A) (A) (A) (A)
                 (A) (A) (A) (A) (A) (A) (A) (A) (A) (A) (A) (A)
                 (A) (A) (A) (A) (A) (A) (A) (A) (A) (A) (A) (A)
                 (A) (A) (A) (A) (A) (A) (A) (A) (A) (A) (A) (A)
                 (A) (A) (A) (A) (A) (A) (A) (A) (A) (A) (A) (A)
                 (A) (A) (A) (A) (A) (A) (A) (A) (A) (A) (A) (A)
                 (A) (A) (A) (A) (A) (A) (A) (A) (A) (A) (A) (A)
                 (A) (A) (A) (A) (A) (A) (A) (A) (A) (A) (A) (A)
                 (A) (A) (A) (A) (A) (A) (A) (A) (A) (A) (A) (A)
                 (A) (A) (A) (A) (A) (A) (A) (A) (A) (A) (A) (A)
                 (A) (A) (A) (A) (A) (A) (A) (A) (A) (A) (A) (A)
                 (A) (A) (A) (A) (A) (A) (A) (A) (A) (A) (A) (A)
                 (A) (A) (A) (A) (A) (A) (A) (A)
 Beta  Orbitals:
       Occupied  (A) (A) (A) (A) (A) (A) (A) (A) (A) (A) (A) (A)
                 (A) (A) (A) (A) (A) (A) (A) (A) (A) (A) (A) (A)
                 (A) (A) (A) (A)
       Virtual   (A) (A) (A) (A) (A) (A) (A) (A) (A) (A) (A) (A)
                 (A) (A) (A) (A) (A) (A) (A) (A) (A) (A) (A) (A)
                 (A) (A) (A) (A) (A) (A) (A) (A) (A) (A) (A) (A)
                 (A) (A) (A) (A) (A) (A) (A) (A) (A) (A) (A) (A)
                 (A) (A) (A) (A) (A) (A) (A) (A) (A) (A) (A) (A)
                 (A) (A) (A) (A) (A) (A) (A) (A) (A) (A) (A) (A)
                 (A) (A) (A) (A) (A) (A) (A) (A) (A) (A) (A) (A)
                 (A) (A) (A) (A) (A) (A) (A) (A) (A) (A) (A) (A)
                 (A) (A) (A) (A) (A) (A) (A) (A) (A) (A) (A) (A)
                 (A) (A) (A) (A) (A) (A) (A) (A) (A) (A) (A) (A)
                 (A) (A) (A) (A) (A) (A) (A) (A) (A) (A) (A) (A)
                 (A) (A) (A) (A) (A) (A) (A) (A) (A) (A) (A) (A)
                 (A) (A) (A) (A) (A) (A) (A) (A) (A) (A) (A) (A)
                 (A) (A) (A) (A) (A) (A) (A) (A) (A) (A) (A) (A)
                 (A) (A) (A) (A) (A) (A) (A) (A) (A) (A) (A) (A)
                 (A) (A) (A) (A) (A) (A) (A) (A) (A) (A) (A) (A)
                 (A) (A) (A) (A) (A) (A) (A) (A) (A) (A) (A) (A)
                 (A) (A) (A) (A) (A) (A) (A) (A) (A) (A) (A) (A)
                 (A) (A) (A) (A) (A) (A) (A) (A) (A) (A) (A) (A)
                 (A) (A) (A) (A) (A) (A) (A) (A) (A) (A) (A) (A)
                 (A) (A) (A) (A) (A) (A) (A) (A) (A) (A) (A) (A)
                 (A) (A) (A) (A) (A) (A) (A) (A) (A) (A) (A) (A)
                 (A) (A) (A) (A) (A) (A) (A) (A) (A) (A) (A) (A)
                 (A) (A) (A) (A) (A) (A) (A) (A) (A) (A) (A) (A)
                 (A) (A) (A) (A) (A) (A) (A) (A) (A) (A)
 Initial guess <Sx>= 0.0000 <Sy>= 0.0000 <Sz>= 1.0000 <S**2>= 2.0218 S= 1.0073
 Requested convergence on RMS density matrix=1.00D-08 within 128 cycles.
 Requested convergence on MAX density matrix=1.00D-06.
 Requested convergence on             energy=1.00D-06.
 No special actions if energy rises.
 SCF Done:  E(UM062X) =  -382.495166451     A.U. after   17 cycles
             Convg  =    0.4553D-08             -V/T =  2.0034
 <Sx>= 0.0000 <Sy>= 0.0000 <Sz>= 1.0000 <S**2>= 2.0218 S= 1.0072
 <L.S>= 0.000000000000E+00
 Annihilation of the first spin contaminant:
 S**2 before annihilation     2.0218,   after     2.0002
 Calling FoFJK, ICntrl=      2127 FMM=F ISym2X=0 I1Cent= 0 IOpClX= 1 NMat=1 NMatS=1 NMatT=0.
 ***** Axes restored to original set *****
 -------------------------------------------------------------------
 Center     Atomic                   Forces (Hartrees/Bohr)
 Number     Number              X              Y              Z
 -------------------------------------------------------------------
      1        8           0.000002760    0.000025173    0.000003803
      2        1           0.000000781    0.000024839    0.000011972
      3        6          -0.000014785    0.000002326    0.000003688
      4        6          -0.000005977   -0.000002961    0.000009525
      5        6          -0.000007949   -0.000012451    0.000002138
      6        6           0.000003380   -0.000010119   -0.000005126
      7        6           0.000008225   -0.000006333   -0.000008692
      8        6           0.000006726    0.000008016   -0.000005921
      9        8           0.000000787    0.000002619    0.000002949
     10        1          -0.000015035    0.000001459    0.000014629
     11        1          -0.000010033   -0.000011249    0.000005332
     12        1           0.000005689   -0.000015730   -0.000010959
     13        1           0.000015012   -0.000008692   -0.000016679
     14        1           0.000010419    0.000003104   -0.000006660
 -------------------------------------------------------------------
 Cartesian Forces:  Max     0.000025173 RMS     0.000010160

 GradGradGradGradGradGradGradGradGradGradGradGradGradGradGradGradGradGrad
 Berny optimization.
 Internal  Forces:  Max     0.000007762 RMS     0.000001970
 Search for a saddle point.
 Step number   2 out of a maximum of   71
 All quantities printed in internal units (Hartrees-Bohrs-Radians)
 Swaping is turned off.
 Update second derivatives using D2CorX and points    1    2
 ITU=  0  0
     Eigenvalues ---   -0.10312   0.00465   0.01097   0.01547   0.01741
     Eigenvalues ---    0.01812   0.02278   0.02318   0.02567   0.02794
     Eigenvalues ---    0.02836   0.03073   0.03560   0.10450   0.10792
     Eigenvalues ---    0.11151   0.12171   0.12305   0.12902   0.17984
     Eigenvalues ---    0.18869   0.19253   0.22424   0.24501   0.28612
     Eigenvalues ---    0.34654   0.35754   0.35871   0.36109   0.36135
     Eigenvalues ---    0.36512   0.42527   0.44050   0.45671   0.51533
     Eigenvalues ---    0.54223
 Eigenvectors required to have negative eigenvalues:
                          R1        R2        R5        A1        R3
   1                   -0.75438   0.57352  -0.21002   0.17732   0.08601
                          R4        D1        R12       R6        A11
   1                    0.08510   0.03852  -0.03731  -0.03669   0.03120
 RFO step:  Lambda0=3.109668911D-10 Lambda= 0.00000000D+00.
 Linear search not attempted -- option 19 set.
 Iteration  1 RMS(Cart)=  0.00011136 RMS(Int)=  0.00000001
 Iteration  2 RMS(Cart)=  0.00000002 RMS(Int)=  0.00000000
 Variable       Old X    -DE/DX   Delta X   Delta X   Delta X     New X
                                 (Linear)    (Quad)   (Total)
    R1        2.47807   0.00000   0.00000   0.00005   0.00005   2.47812
    R2        2.02732   0.00001   0.00000  -0.00002  -0.00002   2.02730
    R3        2.65184   0.00000   0.00000   0.00000   0.00000   2.65184
    R4        2.65706   0.00000   0.00000   0.00001   0.00001   2.65706
    R5        2.50468  -0.00001   0.00000   0.00001   0.00001   2.50469
    R6        2.60589   0.00000   0.00000   0.00000   0.00000   2.60589
    R7        2.04262   0.00000   0.00000   0.00000   0.00000   2.04261
    R8        2.63442   0.00000   0.00000   0.00000   0.00000   2.63442
    R9        2.04326   0.00000   0.00000   0.00000   0.00000   2.04326
   R10        2.63015   0.00000   0.00000   0.00000   0.00000   2.63015
   R11        2.04306   0.00000   0.00000   0.00000   0.00000   2.04306
   R12        2.60955   0.00000   0.00000   0.00000   0.00000   2.60955
   R13        2.04316   0.00000   0.00000   0.00000   0.00000   2.04316
   R14        2.04473   0.00000   0.00000   0.00000   0.00000   2.04473
    A1        2.68495   0.00000   0.00000   0.00000   0.00000   2.68495
    A2        2.09538   0.00000   0.00000   0.00000   0.00000   2.09538
    A3        2.07202   0.00000   0.00000   0.00001   0.00001   2.07202
    A4        2.11554   0.00000   0.00000  -0.00001  -0.00001   2.11554
    A5        2.08804   0.00000   0.00000   0.00000   0.00000   2.08805
    A6        2.06464   0.00000   0.00000   0.00001   0.00001   2.06464
    A7        2.13045   0.00000   0.00000  -0.00001  -0.00001   2.13044
    A8        2.09892   0.00000   0.00000   0.00000   0.00000   2.09892
    A9        2.09190   0.00000   0.00000   0.00000   0.00000   2.09191
   A10        2.09229   0.00000   0.00000   0.00000   0.00000   2.09229
   A11        2.09829   0.00000   0.00000   0.00000   0.00000   2.09829
   A12        2.09267   0.00000   0.00000   0.00001   0.00001   2.09267
   A13        2.09223   0.00000   0.00000  -0.00001  -0.00001   2.09223
   A14        2.09907   0.00000   0.00000   0.00000   0.00000   2.09907
   A15        2.09408   0.00000   0.00000   0.00000   0.00000   2.09408
   A16        2.09000   0.00000   0.00000   0.00000   0.00000   2.09000
   A17        2.08624   0.00000   0.00000   0.00000   0.00000   2.08624
   A18        2.07555   0.00000   0.00000  -0.00001  -0.00001   2.07554
   A19        2.12139   0.00000   0.00000   0.00001   0.00001   2.12140
   A20        1.92429  -0.00001   0.00000  -0.00008  -0.00008   1.92420
    D1       -1.07780   0.00000   0.00000  -0.00031  -0.00031  -1.07811
    D2       -0.02563   0.00000   0.00000  -0.00001  -0.00001  -0.02563
    D3        3.12727   0.00000   0.00000  -0.00001  -0.00001   3.12726
    D4        3.09239   0.00000   0.00000  -0.00001  -0.00001   3.09237
    D5       -0.03790   0.00000   0.00000  -0.00002  -0.00002  -0.03791
    D6        0.00284   0.00000   0.00000   0.00001   0.00001   0.00286
    D7       -3.14010   0.00000   0.00000   0.00001   0.00001  -3.14009
    D8       -3.11457   0.00000   0.00000   0.00002   0.00002  -3.11455
    D9        0.02567   0.00000   0.00000   0.00001   0.00001   0.02568
   D10        2.50360   0.00000   0.00000  -0.00022  -0.00022   2.50338
   D11       -0.66186   0.00000   0.00000  -0.00022  -0.00022  -0.66208
   D12        0.03006   0.00000   0.00000   0.00000   0.00000   0.03006
   D13       -3.12399   0.00000   0.00000   0.00000   0.00000  -3.12399
   D14       -3.12328   0.00000   0.00000   0.00000   0.00000  -3.12328
   D15        0.00586   0.00000   0.00000   0.00000   0.00000   0.00586
   D16       -0.01191   0.00000   0.00000   0.00001   0.00001  -0.01190
   D17        3.12819   0.00000   0.00000   0.00002   0.00002   3.12821
   D18       -3.14104   0.00000   0.00000   0.00001   0.00001  -3.14104
   D19       -0.00094   0.00000   0.00000   0.00002   0.00002  -0.00092
   D20       -0.01119   0.00000   0.00000   0.00000   0.00000  -0.01119
   D21        3.13971   0.00000   0.00000   0.00001   0.00001   3.13972
   D22        3.13190   0.00000   0.00000  -0.00002  -0.00002   3.13188
   D23       -0.00039   0.00000   0.00000   0.00000   0.00000  -0.00039
   D24        0.01546   0.00000   0.00000  -0.00001  -0.00001   0.01545
   D25       -3.12474   0.00000   0.00000   0.00000   0.00000  -3.12474
   D26       -3.13541   0.00000   0.00000  -0.00002  -0.00002  -3.13543
   D27        0.00757   0.00000   0.00000  -0.00001  -0.00001   0.00756
         Item               Value     Threshold  Converged?
 Maximum Force            0.000008     0.000450     YES
 RMS     Force            0.000002     0.000300     YES
[...]
         Item               Value     Threshold  Converged?
 Maximum Force            0.000008     0.000450     YES
 RMS     Force            0.000002     0.000300     YES
 Maximum Displacement     0.000566     0.001800     YES
 RMS     Displacement     0.000132     0.001200     YES
 Predicted change in Energy=-1.479242D-09
 Optimization completed.
    -- Stationary point found.
                           ----------------------------
                           !   Optimized Parameters   !
                           ! (Angstroms and Degrees)  !
 --------------------------                            --------------------------
 ! Name  Definition              Value          Derivative Info.                !
 --------------------------------------------------------------------------------
 ! R1    R(1,2)                  1.3113         -DE/DX =    0.0                 !
 ! R2    R(2,9)                  1.0728         -DE/DX =    0.0                 !
 ! R3    R(3,4)                  1.4033         -DE/DX =    0.0                 !
 ! R4    R(3,8)                  1.4061         -DE/DX =    0.0                 !
 ! R5    R(3,9)                  1.3254         -DE/DX =    0.0                 !
 ! R6    R(4,5)                  1.379          -DE/DX =    0.0                 !
 ! R7    R(4,10)                 1.0809         -DE/DX =    0.0                 !
 ! R8    R(5,6)                  1.3941         -DE/DX =    0.0                 !
 ! R9    R(5,11)                 1.0812         -DE/DX =    0.0                 !
 ! R10   R(6,7)                  1.3918         -DE/DX =    0.0                 !
 ! R11   R(6,12)                 1.0811         -DE/DX =    0.0                 !
 ! R12   R(7,8)                  1.3809         -DE/DX =    0.0                 !
 ! R13   R(7,13)                 1.0812         -DE/DX =    0.0                 !
 ! R14   R(8,14)                 1.082          -DE/DX =    0.0                 !
 ! A1    A(1,2,9)              153.8363         -DE/DX =    0.0                 !
 ! A2    A(4,3,8)              120.0564         -DE/DX =    0.0                 !
 ! A3    A(4,3,9)              118.7178         -DE/DX =    0.0                 !
 ! A4    A(8,3,9)              121.2116         -DE/DX =    0.0                 !
 ! A5    A(3,4,5)              119.6362         -DE/DX =    0.0                 !
 ! A6    A(3,4,10)             118.2949         -DE/DX =    0.0                 !
 ! A7    A(5,4,10)             122.0656         -DE/DX =    0.0                 !
 ! A8    A(4,5,6)              120.2594         -DE/DX =    0.0                 !
 ! A9    A(4,5,11)             119.8572         -DE/DX =    0.0                 !
 ! A10   A(6,5,11)             119.8796         -DE/DX =    0.0                 !
 ! A11   A(5,6,7)              120.2229         -DE/DX =    0.0                 !
 ! A12   A(5,6,12)             119.9009         -DE/DX =    0.0                 !
 ! A13   A(7,6,12)             119.8762         -DE/DX =    0.0                 !
 ! A14   A(6,7,8)              120.2677         -DE/DX =    0.0                 !
 ! A15   A(6,7,13)             119.9819         -DE/DX =    0.0                 !
 ! A16   A(8,7,13)             119.7482         -DE/DX =    0.0                 !
 ! A17   A(3,8,7)              119.533          -DE/DX =    0.0                 !
 ! A18   A(3,8,14)             118.92           -DE/DX =    0.0                 !
 ! A19   A(7,8,14)             121.547          -DE/DX =    0.0                 !
 ! A20   A(2,9,3)              110.2535         -DE/DX =    0.0                 !
 ! D1    D(1,2,9,3)            -61.7534         -DE/DX =    0.0                 !
 ! D2    D(8,3,4,5)             -1.4683         -DE/DX =    0.0                 !
 ! D3    D(8,3,4,10)           179.1795         -DE/DX =    0.0                 !
 ! D4    D(9,3,4,5)            177.1808         -DE/DX =    0.0                 !
 ! D5    D(9,3,4,10)            -2.1714         -DE/DX =    0.0                 !
 ! D6    D(4,3,8,7)              0.1629         -DE/DX =    0.0                 !
 ! D7    D(4,3,8,14)          -179.9145         -DE/DX =    0.0                 !
 ! D8    D(9,3,8,7)           -178.4517         -DE/DX =    0.0                 !
 ! D9    D(9,3,8,14)             1.4708         -DE/DX =    0.0                 !
 ! D10   D(4,3,9,2)            143.4456         -DE/DX =    0.0                 !
 ! D11   D(8,3,9,2)            -37.9216         -DE/DX =    0.0                 !
 ! D12   D(3,4,5,6)              1.7225         -DE/DX =    0.0                 !
 ! D13   D(3,4,5,11)          -178.9913         -DE/DX =    0.0                 !
 ! D14   D(10,4,5,6)          -178.9506         -DE/DX =    0.0                 !
 ! D15   D(10,4,5,11)            0.3356         -DE/DX =    0.0                 !
 ! D16   D(4,5,6,7)             -0.6824         -DE/DX =    0.0                 !
 ! D17   D(4,5,6,12)           179.2321         -DE/DX =    0.0                 !
 ! D18   D(11,5,6,7)          -179.9685         -DE/DX =    0.0                 !
 ! D19   D(11,5,6,12)           -0.054          -DE/DX =    0.0                 !
 ! D20   D(5,6,7,8)             -0.6409         -DE/DX =    0.0                 !
 ! D21   D(5,6,7,13)           179.8921         -DE/DX =    0.0                 !
 ! D22   D(12,6,7,8)           179.4446         -DE/DX =    0.0                 !
 ! D23   D(12,6,7,13)           -0.0224         -DE/DX =    0.0                 !
 ! D24   D(6,7,8,3)              0.8859         -DE/DX =    0.0                 !
 ! D25   D(6,7,8,14)          -179.0346         -DE/DX =    0.0                 !
 ! D26   D(13,7,8,3)          -179.6458         -DE/DX =    0.0                 !
 ! D27   D(13,7,8,14)            0.4337         -DE/DX =    0.0                 !
 --------------------------------------------------------------------------------
 GradGradGradGradGradGradGradGradGradGradGradGradGradGradGradGradGradGrad

 1\1\GINC-COMPUTE-3-045\Freq\UM062X\6-311+G(2df,2p)\C6H6O2(3)\ROOT\20-A
 ug-2017\0\\#N Geom=AllCheck Guess=TCheck SCRF=Check GenChk UM062X/6-31
 1+G(2df,2p) Freq\\[OH]+[O]C1C=CC=CC=1_OC1C=CC=CC=1+[O]\\0,3\O,-2.97375
 92494,0.5495628105,0.7208996562\H,-2.3537392092,-0.139817135,-0.206427
 229\C,-0.3988687746,-0.3925576418,-0.2885214114\C,0.5910571706,-1.3179
 158206,0.0761493593\C,1.8799424131,-0.8835708483,0.3035196717\C,2.1917
 726531,0.4717707149,0.2073208889\C,1.2071532741,1.3947731239,-0.132893
 5273\C,-0.0824967152,0.9736399451,-0.3905218472\O,-1.6181094459,-0.837
 1913518,-0.557771771\H,0.3133981291,-2.3592535657,0.1590799061\H,2.649
 0721611,-1.5957528525,0.568718073\H,3.2014721881,0.807418258,0.3989420
 445\H,1.4529174636,2.4452124244,-0.2046911371\H,-0.8603130586,1.671285
 9391,-0.6717166768\\Version=EM64L-G09RevB.01\State=3-A\HF=-382.4951665
 \S2=2.021776\S2-1=0.\S2A=2.00024\RMSD=2.859e-09\RMSF=1.016e-05\ZeroPoi
 nt=0.1001166\Thermal=0.1071141\Dipole=1.2128618,0.1806,-0.1509387\Dipo
 leDeriv=0.7119596,-0.2237673,-0.288504,-0.8256265,0.0105907,0.2456331,
 -1.6454431,0.3541368,0.2480757,-2.9137821,0.6341351,0.8274443,2.964051
 1,-0.3268293,-0.7917559,3.1690831,-0.5225678,-0.5114987,-2.8169364,0.7
 312806,1.0322391,-1.2157277,0.3992613,0.351332,-0.6090705,0.1362721,0.
 3036158,1.23738,-0.1465974,-0.3330445,-0.5299459,0.1605311,0.1875887,0
 .491622,-0.0619717,-0.2122124,-0.469302,-0.0531069,0.1680038,-1.039542
 6,0.0889926,0.19568,0.0449675,-0.0278536,-0.1097161,0.0995962,0.030015
 2,0.0474978,0.1091807,0.0396175,-0.0352815,0.0567272,-0.0116266,-0.096
 3743,-0.8767808,0.207165,0.1725025,0.3722298,0.0409937,-0.0775568,-0.2
 949779,0.046222,-0.053984,0.5392897,-0.1262862,-0.0761275,1.444689,-0.
 3528979,-0.428429,-0.0790801,0.0183532,-0.0675707,4.4118262,-1.0742961
 ,-1.4471503,-1.1595209,-0.181344,0.2461336,-1.1655765,0.0428167,-0.105
 938,0.0574593,-0.0250129,-0.012529,0.0009231,0.0068098,0.0087945,0.000
 5057,0.0088636,0.1333936,-0.0058487,0.0587865,-0.02516,0.0673722,0.017
 9552,0.0241582,-0.0524932,0.0212973,0.1259383,-0.0128933,-0.037112,-0.
 0364157,-0.037504,0.0584734,0.0027062,-0.0119112,-0.0045944,0.1254956,
 0.0372895,-0.0164188,-0.0032486,-0.0643453,-0.0316949,0.0240874,-0.015
 2321,0.0141028,0.1305461,0.0007428,0.0412151,-0.0255079,-0.0862331,0.0
 695409,0.0469095,0.110879,-0.0134504,0.0902292\Polar=267.0662381,-29.5
 711698,89.726814,-38.246832,6.1867517,62.7710729\PG=C01 [X(C6H6O2)]\NI
 mag=1\\0.01751667,-0.01255235,0.01758783,-0.01251535,0.01232853,0.0155
 8122,0.03100400,-0.04299733,-0.06946540,0.02160567,-0.03764864,0.02885
 083,0.06009629,0.03703171,0.00897341,-0.02090674,0.02159428,0.02567351
 ,0.08202831,-0.06270418,-0.04352325,0.02146085,-0.01749260,-0.03850939
 ,-0.11277601,0.07510417,0.07397634,0.57968042,0.01057874,-0.00985207,-
 0.01992444,-0.01882497,0.04332441,0.04196737,-0.02774987,0.64548686,0.
 00608594,-0.00404937,-0.00964522,-0.01390831,0.02092823,0.02001021,0.0
 8877768,-0.05919476,0.20125916,-0.00760049,0.00550205,0.01279319,0.026
 09005,-0.02903063,-0.03047846,-0.13832137,0.07331149,-0.02001278,0.661
 84788,0.00343307,-0.00248800,-0.00581464,-0.01556823,0.01281326,0.0114
 1982,0.09450117,-0.23103390,0.04300201,0.07037473,0.72350266,-0.003829
 26,0.00321755,0.00653084,0.01278425,-0.01311815,-0.01102924,-0.0245763
 9,0.03808978,-0.08363071,0.10958864,-0.06762147,0.16859461,0.00291303,
 -0.00074094,-0.00282123,-0.00804037,0.00817143,0.00650122,-0.06650643,
 0.03397312,-0.02229372,-0.33041060,-0.10471137,-0.04582544,0.69630760,
 0.00554684,-0.00327317,-0.00791985,-0.01666595,0.01695115,0.01805062,-
 0.03082670,0.04937887,-0.01631084,-0.02338763,-0.15667631,0.00899105,-
 0.02850767,0.67488004,0.00002720,0.00014149,-0.00003233,-0.00075194,0.
 00006537,-0.00023471,-0.01251629,0.00329076,0.00088864,-0.05753887,-0.
 01101013,-0.07403811,0.13002620,-0.07385245,0.17768697,0.00126330,-0.0
 0041049,0.00005609,0.00051694,-0.00078363,-0.00022029,-0.00016478,0.01
 964160,-0.00027045,0.00702898,-0.03620484,0.00506326,-0.13913789,-0.08
 049627,-0.00654099,0.70776671,-0.00178298,-0.00103270,-0.00093687,-0.0
 0014646,-0.00071847,0.00060905,0.02615824,-0.05545210,0.01388521,-0.09
 463098,-0.00460492,-0.01961016,0.00383415,-0.30976946,0.02946104,0.039
 73836,0.64791164,0.00029584,0.00008237,0.00029749,0.00049458,-0.000514
 04,-0.00051682,-0.00067161,0.01074112,-0.00935329,0.01195980,-0.006158
 80,0.01098028,-0.01797806,0.01138276,-0.07124071,0.12585380,-0.0532873
 4,0.17598203,0.00178935,-0.00377554,-0.00842079,-0.01667051,0.01497184
 ,0.01636385,-0.01558058,-0.08707512,0.00576138,-0.05986864,0.00785462,
 -0.01359100,0.06230011,0.06237398,0.00311628,-0.22306315,0.04646381,-0
 .04104721,0.64043219,-0.00113887,0.00181034,0.00321012,0.00718584,-0.0
 0609247,-0.00697936,-0.02881681,0.00599184,-0.00703882,0.01333115,-0.0
 0335432,0.00219287,0.01025740,-0.04471495,0.00927794,0.12999516,-0.222
 29221,0.04920933,0.04294106,0.73831686,0.00013782,-0.00167099,-0.00247
 530,-0.00597568,0.00547212,0.00563355,-0.00101494,-0.01994620,0.006320
 23,-0.01540486,0.00143050,-0.00712060,0.01189402,0.02183227,0.00708886
 ,-0.05164851,0.02898895,-0.08141581,0.11187900,-0.06389018,0.17298016,
 -0.00091810,0.00203443,0.00596507,0.01410092,-0.01375750,-0.01235525,-
 0.10704507,0.01818036,-0.00927292,0.04689805,0.01327042,0.00547259,-0.
 03348718,-0.03466716,-0.00151062,-0.05387568,0.05653167,-0.02181925,-0
 .32251813,-0.10735670,-0.04801098,0.71445526,-0.00915155,0.00553540,0.
 01491866,0.03096747,-0.03066595,-0.03205164,0.00263718,-0.27598086,0.0
 2659574,0.03080884,-0.02923908,0.01211901,-0.02488064,-0.02852160,-0.0
 0230701,0.00023785,0.05795906,-0.00667044,-0.03130208,-0.15711043,0.00
 523383,-0.01720766,0.64712556,0.00200979,-0.00051264,-0.00298762,-0.00
 402342,0.00324462,0.00337219,-0.00642605,0.03053066,-0.07939963,0.0032
 9315,0.00936486,0.00952255,-0.00311137,-0.00493272,-0.00396372,-0.0150
 2486,0.00629101,0.00303359,-0.05906280,-0.01233456,-0.07494293,0.14446
 478,-0.07267024,0.17799034,-0.06682990,0.07111098,0.11346392,0.0464121
 4,-0.05448901,-0.11605014,-0.17130724,-0.03416796,-0.02909185,-0.11603
 318,0.01891052,-0.03700408,0.02172103,0.04262779,-0.00026395,-0.007612
 65,-0.00564685,-0.00175694,0.03557320,-0.01323910,0.00954639,-0.050917
 79,-0.08765768,-0.00265710,0.30648888,0.04203720,-0.03696485,-0.055352
 52,0.02110798,-0.07430252,0.00592619,-0.10250493,-0.14085964,-0.028443
 34,0.03180080,0.01394875,0.01015966,0.00013771,-0.00954311,0.00114532,
 -0.00150095,0.00086046,-0.00033165,0.00003590,-0.00613654,0.00049593,-
 0.05022448,-0.00452438,-0.01336219,0.06055658,0.25321025,0.02859268,-0
 .03212050,-0.03385481,-0.00469585,-0.01086201,0.00326426,-0.07419988,-
 0.03584928,-0.07119919,-0.01170978,-0.00537024,0.00787408,-0.00129212,
 -0.00193178,0.00604029,-0.00148605,-0.00160093,-0.00059801,-0.00508878
 ,0.00361462,0.00354963,0.00162421,0.00874836,0.01010842,0.06565597,0.0
 7907664,0.08235919,0.00006887,-0.00011387,-0.00018559,-0.00035062,0.00
 035864,0.00053387,0.00911024,0.02193415,-0.00228800,-0.07472688,-0.069
 58132,0.00133345,-0.00073240,-0.02863281,0.00267987,-0.00484073,-0.001
 30274,-0.00266103,-0.00131672,0.00031362,-0.00012003,-0.00294983,0.003
 09388,-0.00212563,0.00254256,-0.00147254,0.00125028,0.07207012,-0.0001
 5225,0.00011444,0.00024672,0.00056897,-0.00044835,-0.00058467,-0.00825
 571,-0.01633661,0.00116336,-0.06791213,-0.32314490,0.02582689,0.000325
 58,-0.00257226,0.00082393,-0.00142793,0.00159077,0.00060142,0.00063529
 ,0.00051066,-0.00003083,0.00325254,-0.00136844,0.00161209,-0.00177713,
 0.00221717,-0.00083266,0.07506024,0.34002751,-0.00004227,-0.00001675,0
 .00007401,0.00026283,-0.00012521,-0.00010456,0.00057308,0.00800109,0.0
 0438975,0.00261566,0.02450949,-0.04056097,-0.00188105,-0.00534325,0.00
 505345,-0.00269019,0.00098555,0.00717394,0.00039770,-0.00027106,-0.000
 87001,-0.00239895,0.00123080,0.00412635,0.00140900,-0.00031015,-0.0034
 7666,0.00021037,-0.02807797,0.02920081,0.00007456,-0.00001634,-0.00005
 207,-0.00035479,0.00010250,-0.00006090,-0.00274303,-0.00352671,-0.0018
 4302,-0.01589244,0.02111717,-0.00752065,-0.20028669,0.12985193,-0.0528
 3559,0.00939975,-0.00650369,0.00202002,0.00116335,-0.00224911,-0.00102
 140,-0.00040320,-0.00072164,0.00022045,-0.00129020,0.00093150,-0.00033
 009,0.00082565,-0.00005978,0.00119491,0.20891546,-0.00003362,0.0000920
 3,0.00015559,0.00018812,-0.00025064,-0.00039734,-0.00251413,0.00032276
 ,0.00063303,-0.00883611,0.01106046,-0.00283910,0.12995026,-0.17978022,
 0.04733930,0.02335147,-0.01418773,0.00761484,-0.00243621,-0.00508898,0
 .00089596,-0.00121946,-0.00033571,-0.00036802,-0.00099131,0.00050042,-
 0.00009926,0.00063337,0.00045957,-0.00056332,-0.13922481,0.18699759,0.
 00015397,-0.00013714,-0.00026117,-0.00039625,0.00043636,0.00028263,-0.
 00245213,-0.00002819,0.00830047,-0.00368327,0.00380735,0.00348776,-0.0
 5277232,0.04761118,-0.05763802,-0.00178477,0.00057927,0.00356920,-0.00
 111458,0.00111100,0.00626692,0.00042636,0.00000735,-0.00094470,0.00034
 874,-0.00004302,-0.00061833,0.00117809,-0.00073636,-0.00438386,0.05897
 843,-0.05207469,0.04622545,-0.00015042,0.00005123,0.00018529,0.0003373
 2,-0.00022915,-0.00040860,0.00088671,0.00088158,0.00018596,0.00161583,
 -0.00118596,-0.00106351,-0.00186290,0.00043244,-0.00155671,-0.30350635
 ,-0.08211157,-0.05094663,-0.01508017,-0.00916056,-0.00346602,-0.001092
 91,0.00331988,-0.00222560,-0.00050446,-0.00001595,0.00042218,-0.000166
 04,0.00011692,-0.00003650,0.00031579,-0.00014970,0.00100629,0.31940753
 ,0.00001903,0.00001945,-0.00003525,-0.00004742,-0.00001289,0.00003930,
 0.00063538,-0.00151295,0.00034282,-0.00081667,-0.00563247,0.00131156,-
 0.02946016,-0.00393804,-0.00580347,-0.08202143,-0.08644388,-0.01350326
 ,0.02047099,0.01103549,0.00386224,0.00326962,-0.00227646,0.00186684,-0
 .00003625,0.00035201,-0.00020223,-0.00142370,-0.00021619,-0.00026361,0
 .00057967,0.00096898,-0.00043609,0.08832070,0.08653884,0.00005102,0.00
 014860,0.00015330,0.00037168,-0.00039182,-0.00038830,0.00013879,-0.000
 01322,-0.00047403,-0.00043002,0.00139416,0.00624236,0.00186138,0.00081
 537,0.00513265,-0.05108554,-0.01336791,-0.04866857,-0.00694328,-0.0029
 3442,0.00366000,-0.00246575,0.00190023,0.00599327,-0.00030236,0.000267
 49,-0.00056332,0.00012197,0.00009987,-0.00012926,0.00091283,-0.0005876
 1,-0.00354662,0.05697957,0.01328808,0.03649601,0.00017541,-0.00009612,
 -0.00025738,-0.00031235,0.00040032,0.00032365,-0.00455337,-0.00038313,
 -0.00314688,-0.00112052,0.00007121,-0.00003303,-0.00260876,0.00299259,
 -0.00256566,0.00981415,0.02283352,-0.00145982,-0.07287774,-0.06222343,
 0.00007672,-0.00205024,-0.02995782,0.00230447,-0.00024775,-0.00220072,
 0.00009191,0.00006396,-0.00002067,0.00021690,0.00031626,0.00115461,-0.
 00007981,0.00054046,-0.00049028,0.00110751,0.07212398,0.00021463,-0.00
 011999,-0.00026320,-0.00046480,0.00049424,0.00049948,-0.00188957,0.001
 81110,0.00033154,0.00079890,0.00057736,0.00000481,0.00328036,-0.001072
 16,0.00175940,-0.00707025,-0.01454480,0.00067219,-0.06226474,-0.324737
 92,0.02080828,-0.00040775,-0.00463130,0.00114238,0.00064261,-0.0007013
 6,-0.00022116,-0.00003225,-0.00006655,-0.00010120,-0.00038721,-0.00079
 593,-0.00000153,0.00025901,0.00068664,-0.00052761,0.06728891,0.3425800
 8,0.00002500,0.00001117,0.00003404,0.00021938,0.00004097,0.00005602,-0
 .00332533,0.00065592,0.00776252,0.00005048,-0.00021737,-0.00102675,-0.
 00250340,0.00171780,0.00601002,0.00234722,0.00734560,0.00372503,-0.000
 09682,0.02088782,-0.04256011,-0.00159002,-0.00562506,0.00508591,0.0001
 0695,-0.00042924,-0.00060119,0.00018952,-0.00010810,-0.00077468,0.0001
 2966,0.00037227,0.00001630,0.00101767,-0.00067948,-0.00364482,0.002155
 00,-0.02349167,0.03017484,-0.00076713,-0.00050312,-0.00023636,-0.00156
 239,-0.00020203,0.00075315,0.00785966,-0.00677329,0.00131697,0.0004933
 3,-0.00228120,-0.00079883,-0.00016855,-0.00064138,0.00023104,-0.003588
 59,-0.00343449,-0.00228350,-0.01428258,0.02016035,-0.00687153,-0.20019
 610,0.12981396,-0.05763582,0.00200536,0.00131189,0.00116533,0.00040183
 ,-0.00035395,0.00016852,-0.00004046,0.00012752,0.00019126,-0.00074038,
 0.00100051,-0.00031780,0.00073652,0.00003215,0.00127470,0.20984947,0.0
 0063072,-0.00027952,-0.00070912,-0.00233492,0.00108397,0.00261107,0.02
 101417,-0.01528769,0.00815520,-0.00131381,-0.00572858,0.00127568,-0.00
 162923,-0.00134877,-0.00033148,-0.00304866,0.00072433,0.00016150,-0.00
 889380,0.01186264,-0.00348188,0.12830168,-0.17596580,0.05012790,0.0041
 5681,0.00194333,-0.00234958,0.00116532,-0.00076681,0.00034559,0.000106
 51,0.00003740,-0.00009549,-0.00052888,0.00043148,-0.00009121,0.0006310
 0,0.00052059,-0.00048062,-0.13825690,0.18277344,-0.00008564,0.00098341
 ,0.00091204,0.00305583,-0.00256856,-0.00249549,0.00022611,0.00167938,0
 .00477109,-0.00104287,0.00126446,0.00417390,0.00019589,-0.00011016,-0.
 00075329,-0.00256872,0.00065752,0.00703164,-0.00215296,0.00394471,0.00
 388540,-0.05852927,0.04857040,-0.05699402,-0.00340455,0.00120089,-0.00
 228437,-0.00011714,-0.00000371,0.00028170,0.00020742,-0.00008164,-0.00
 075604,-0.00009339,0.00021256,-0.00026266,0.00126640,-0.00061171,-0.00
 425710,0.06304288,-0.05513755,0.04674721\\-0.00000274,-0.00002517,-0.0
 0000381,-0.00000080,-0.00002484,-0.00001197,0.00001480,-0.00000230,-0.
 00000369,0.00000595,0.00000295,-0.00000953,0.00000794,0.00001245,-0.00
 000214,-0.00000339,0.00001016,0.00000512,-0.00000824,0.00000634,0.0000
 0869,-0.00000672,-0.00000800,0.00000592,-0.00000079,-0.00000262,-0.000
 00295,0.00001504,-0.00000147,-0.00001463,0.00001005,0.00001123,-0.0000
 0532,-0.00000568,0.00001573,0.00001096,-0.00001501,0.00000868,0.000016
 68,-0.00001041,-0.00000312,0.00000666\\\@


 WAR ES EIN GOTT DER DIESE ZEICHEN SCHRIEB?
          - LUDWIG BOLTZMANN, QUOTING GOETHE, ABOUT MAXWELL'S EQUATIONS.
 Job cpu time:  0 days  6 hours  0 minutes 24.6 seconds.
 File lengths (MBytes):  RWF=   2528 Int=      0 D2E=      0 Chk=     32 Scr=     32
 Normal termination of Gaussian 09 at Sun Aug 20 05:27:03 2017.
