 Entering Gaussian System, Link 0=/shared/apps/gaussian/G09_LINUX_LINDA/g09/g09
 Input=/gss_gpfs_scratch/harms.n/QMscratch/[OH]+[O]O_O+[O][O].gjf
 Output=/gss_gpfs_scratch/harms.n/QMscratch/[OH]+[O]O_O+[O][O].log
 Initial command:
 /shared/apps/gaussian/G09_LINUX_LINDA/g09/l1.exe /gss_gpfs_scratch/harms.n/comparerTST/Gau-844.inp -scrdir=/gss_gpfs_scratch/harms.n/comparerTST/
 Entering Link 1 = /shared/apps/gaussian/G09_LINUX_LINDA/g09/l1.exe PID=       845.
  
 Copyright (c) 1988,1990,1992,1993,1995,1998,2003,2009,2010,
            Gaussian, Inc.  All Rights Reserved.
  
 This is part of the Gaussian(R) 09 program.  It is based on
 the Gaussian(R) 03 system (copyright 2003, Gaussian, Inc.),
 the Gaussian(R) 98 system (copyright 1998, Gaussian, Inc.),
 the Gaussian(R) 94 system (copyright 1995, Gaussian, Inc.),
 the Gaussian 92(TM) system (copyright 1992, Gaussian, Inc.),
 the Gaussian 90(TM) system (copyright 1990, Gaussian, Inc.),
 the Gaussian 88(TM) system (copyright 1988, Gaussian, Inc.),
 the Gaussian 86(TM) system (copyright 1986, Carnegie Mellon
 University), and the Gaussian 82(TM) system (copyright 1983,
 Carnegie Mellon University). Gaussian is a federally registered
 trademark of Gaussian, Inc.
  
 This software contains proprietary and confidential information,
 including trade secrets, belonging to Gaussian, Inc.
  
 This software is provided under written license and may be
 used, copied, transmitted, or stored only in accord with that
 written license.
  
 The following legend is applicable only to US Government
 contracts under FAR:
  
                    RESTRICTED RIGHTS LEGEND
  
 Use, reproduction and disclosure by the US Government is
 subject to restrictions as set forth in subparagraphs (a)
 and (c) of the Commercial Computer Software - Restricted
 Rights clause in FAR 52.227-19.
  
 Gaussian, Inc.
 340 Quinnipiac St., Bldg. 40, Wallingford CT 06492
  
  
 ---------------------------------------------------------------
 Warning -- This program may not be used in any manner that
 competes with the business of Gaussian, Inc. or will provide
 assistance to any competitor of Gaussian, Inc.  The licensee
 of this program is prohibited from giving any competitor of
 Gaussian, Inc. access to this program.  By using this program,
 the user acknowledges that Gaussian, Inc. is engaged in the
 business of creating and licensing software in the field of
 computational chemistry and represents and warrants to the
 licensee that it is not a competitor of Gaussian, Inc. and that
 it will not use this program in any manner prohibited above.
 ---------------------------------------------------------------
  

 Cite this work as:
 Gaussian 09, Revision B.01,
 M. J. Frisch, G. W. Trucks, H. B. Schlegel, G. E. Scuseria, 
 M. A. Robb, J. R. Cheeseman, G. Scalmani, V. Barone, B. Mennucci, 
 G. A. Petersson, H. Nakatsuji, M. Caricato, X. Li, H. P. Hratchian, 
 A. F. Izmaylov, J. Bloino, G. Zheng, J. L. Sonnenberg, M. Hada, 
 M. Ehara, K. Toyota, R. Fukuda, J. Hasegawa, M. Ishida, T. Nakajima, 
 Y. Honda, O. Kitao, H. Nakai, T. Vreven, J. A. Montgomery, Jr., 
 J. E. Peralta, F. Ogliaro, M. Bearpark, J. J. Heyd, E. Brothers, 
 K. N. Kudin, V. N. Staroverov, T. Keith, R. Kobayashi, J. Normand, 
 K. Raghavachari, A. Rendell, J. C. Burant, S. S. Iyengar, J. Tomasi, 
 M. Cossi, N. Rega, J. M. Millam, M. Klene, J. E. Knox, J. B. Cross, 
 V. Bakken, C. Adamo, J. Jaramillo, R. Gomperts, R. E. Stratmann, 
 O. Yazyev, A. J. Austin, R. Cammi, C. Pomelli, J. W. Ochterski, 
 R. L. Martin, K. Morokuma, V. G. Zakrzewski, G. A. Voth, 
 P. Salvador, J. J. Dannenberg, S. Dapprich, A. D. Daniels, 
 O. Farkas, J. B. Foresman, J. V. Ortiz, J. Cioslowski, 
 and D. J. Fox, Gaussian, Inc., Wallingford CT, 2010.
 
 ******************************************
 Gaussian 09:  EM64L-G09RevB.01 12-Aug-2010
                31-Jul-2017 
 ******************************************
 %nprocshared=20
 Will use up to   20 processors via shared memory.
 %mem=5GB
 %chk=/gss_gpfs_scratch/harms.n/QMscratch/[OH]+[O]O_O+[O][O]
 --------------------------------------------------------
 # m062x/6-311+g(2df,2p) opt=(ts,calcfc,noeigentest) freq
 --------------------------------------------------------
 1/5=1,10=4,11=1,14=-1,18=20,26=3,38=1/1,3;
 2/9=110,12=2,17=6,18=5,40=1/2;
 3/5=4,6=6,7=214,11=2,16=1,25=1,30=1,71=2,74=-55/1,2,3;
 4//1;
 5/5=2,38=5/2;
 8/6=4,10=90,11=11/1;
 11/6=1,8=1,9=11,15=111,16=1/1,2,10;
 10/6=1,7=6,13=1/2;
 6/7=2,8=2,9=2,10=2,28=1/1;
 7/10=1,18=20,25=1/1,2,3,16;
 1/5=1,10=4,11=1,14=-1,18=20/3(2);
 2/9=110/2;
 99//99;
 2/9=110/2;
 3/5=4,6=6,7=214,11=2,16=1,25=1,30=1,71=1,74=-55/1,2,3;
 4/5=5,16=3/1;
 5/5=2,38=5/2;
 7//1,2,3,16;
 1/5=1,11=1,14=-1,18=20/3(-5);
 2/9=110/2;
 6/7=2,8=2,9=2,10=2,19=2,28=1/1;
 99/9=1/99;
 ------------------
 [OH]+[O]O_O+[O][O]
 ------------------
 Symbolic Z-matrix:
 Charge =  0 Multiplicity = 3
 O                    -0.67163   0.58177   0.0496 
 O                    -1.39869  -0.47559  -0.03276 
 H                     0.30397   0.418    -0.05361 
 O                     1.79734  -0.09059  -0.10426 
 H                     1.87993  -0.54273   0.75293 
 

 GradGradGradGradGradGradGradGradGradGradGradGradGradGradGradGradGradGrad
 Berny optimization.
 Initialization pass.
                           ----------------------------
                           !    Initial Parameters    !
                           ! (Angstroms and Degrees)  !
 --------------------------                            --------------------------
 ! Name  Definition              Value          Derivative Info.                !
 --------------------------------------------------------------------------------
 ! R1    R(1,2)                  1.2859         calculate D2E/DX2 analytically  !
 ! R2    R(1,3)                  0.9946         calculate D2E/DX2 analytically  !
 ! R3    R(3,4)                  1.5784         calculate D2E/DX2 analytically  !
 ! R4    R(4,5)                  0.9726         calculate D2E/DX2 analytically  !
 ! A1    A(2,1,3)              114.3667         calculate D2E/DX2 analytically  !
 ! A2    A(1,3,4)              169.8708         calculate D2E/DX2 analytically  !
 ! A3    A(3,4,5)              101.6452         calculate D2E/DX2 analytically  !
 ! D1    D(2,1,3,4)            -30.3894         calculate D2E/DX2 analytically  !
 ! D2    D(1,3,4,5)            -40.8329         calculate D2E/DX2 analytically  !
 --------------------------------------------------------------------------------
 Trust Radius=3.00D-01 FncErr=1.00D-07 GrdErr=1.00D-06
 Number of steps in this run=     20 maximum allowed number of steps=    100.
 Search for a saddle point of order  1.
 GradGradGradGradGradGradGradGradGradGradGradGradGradGradGradGradGradGrad

                          Input orientation:                          
 ---------------------------------------------------------------------
 Center     Atomic      Atomic             Coordinates (Angstroms)
 Number     Number       Type             X           Y           Z
 ---------------------------------------------------------------------
      1          8           0       -0.671630    0.581771    0.049604
      2          8           0       -1.398693   -0.475592   -0.032756
      3          1           0        0.303965    0.418002   -0.053614
      4          8           0        1.797337   -0.090588   -0.104262
      5          1           0        1.879932   -0.542734    0.752928
 ---------------------------------------------------------------------
                    Distance matrix (angstroms):
                    1          2          3          4          5
     1  O    0.000000
     2  O    1.285854   0.000000
     3  H    0.994615   1.923016   0.000000
     4  O    2.563501   3.219930   1.578413   0.000000
     5  H    2.875699   3.372119   2.014248   0.972642   0.000000
 Stoichiometry    H2O3(3)
 Framework group  C1[X(H2O3)]
 Deg. of freedom     9
 Full point group                 C1      NOp   1
 Largest Abelian subgroup         C1      NOp   1
 Largest concise Abelian subgroup C1      NOp   1
                         Standard orientation:                         
 ---------------------------------------------------------------------
 Center     Atomic      Atomic             Coordinates (Angstroms)
 Number     Number       Type             X           Y           Z
 ---------------------------------------------------------------------
      1          8           0       -0.671630    0.581771    0.049604
      2          8           0       -1.398693   -0.475592   -0.032756
      3          1           0        0.303965    0.418002   -0.053614
      4          8           0        1.797337   -0.090588   -0.104262
      5          1           0        1.879932   -0.542734    0.752928
 ---------------------------------------------------------------------
 Rotational constants (GHZ):     48.5966292      5.3467782      4.8868030
 Standard basis: 6-311+G(2df,2p) (5D, 7F)
 There are   120 symmetry adapted basis functions of A   symmetry.
 Integral buffers will be    131072 words long.
 Raffenetti 2 integral format.
 Two-electron integral symmetry is turned on.
   120 basis functions,   178 primitive gaussians,   135 cartesian basis functions
    14 alpha electrons       12 beta electrons
       nuclear repulsion energy        66.5504197666 Hartrees.
 NAtoms=    5 NActive=    5 NUniq=    5 SFac= 1.00D+00 NAtFMM=   50 NAOKFM=F Big=F
 One-electron integrals computed using PRISM.
 NBasis=   120 RedAO= T  NBF=   120
 NBsUse=   120 1.00D-06 NBFU=   120
 Harris functional with IExCor= 1009 diagonalized for initial guess.
 ExpMin= 8.45D-02 ExpMax= 8.59D+03 ExpMxC= 1.30D+03 IAcc=2 IRadAn=         0 AccDes= 0.00D+00
 HarFok:  IExCor= 1009 AccDes= 0.00D+00 IRadAn=         0 IDoV= 1
 ScaDFX=  1.000000  1.000000  1.000000  1.000000
 FoFCou: FMM=F IPFlag=           0 FMFlag=      100000 FMFlg1=           0
         NFxFlg=           0 DoJE=T BraDBF=F KetDBF=T FulRan=T
         Omega=  0.000000  0.000000  1.000000  0.000000  0.000000 ICntrl=     500 IOpCl=  0
         NMat0=    1 NMatS0=    1 NMatT0=    0 NMatD0=    1 NMtDS0=    0 NMtDT0=    0
         I1Cent=           4 NGrid=           0.
 Petite list used in FoFCou.
 Initial guess orbital symmetries:
 Alpha Orbitals:
       Occupied  (A) (A) (A) (A) (A) (A) (A) (A) (A) (A) (A) (A)
                 (A) (A)
       Virtual   (A) (A) (A) (A) (A) (A) (A) (A) (A) (A) (A) (A)
                 (A) (A) (A) (A) (A) (A) (A) (A) (A) (A) (A) (A)
                 (A) (A) (A) (A) (A) (A) (A) (A) (A) (A) (A) (A)
                 (A) (A) (A) (A) (A) (A) (A) (A) (A) (A) (A) (A)
                 (A) (A) (A) (A) (A) (A) (A) (A) (A) (A) (A) (A)
                 (A) (A) (A) (A) (A) (A) (A) (A) (A) (A) (A) (A)
                 (A) (A) (A) (A) (A) (A) (A) (A) (A) (A) (A) (A)
                 (A) (A) (A) (A) (A) (A) (A) (A) (A) (A) (A) (A)
                 (A) (A) (A) (A) (A) (A) (A) (A) (A) (A)
 Beta  Orbitals:
       Occupied  (A) (A) (A) (A) (A) (A) (A) (A) (A) (A) (A) (A)
       Virtual   (A) (A) (A) (A) (A) (A) (A) (A) (A) (A) (A) (A)
                 (A) (A) (A) (A) (A) (A) (A) (A) (A) (A) (A) (A)
                 (A) (A) (A) (A) (A) (A) (A) (A) (A) (A) (A) (A)
                 (A) (A) (A) (A) (A) (A) (A) (A) (A) (A) (A) (A)
                 (A) (A) (A) (A) (A) (A) (A) (A) (A) (A) (A) (A)
                 (A) (A) (A) (A) (A) (A) (A) (A) (A) (A) (A) (A)
                 (A) (A) (A) (A) (A) (A) (A) (A) (A) (A) (A) (A)
                 (A) (A) (A) (A) (A) (A) (A) (A) (A) (A) (A) (A)
                 (A) (A) (A) (A) (A) (A) (A) (A) (A) (A) (A) (A)
 The electronic state of the initial guess is 3-A.
 Initial guess <Sx>= 0.0000 <Sy>= 0.0000 <Sz>= 1.0000 <S**2>= 2.0000 S= 1.0000
 Requested convergence on RMS density matrix=1.00D-08 within 128 cycles.
 Requested convergence on MAX density matrix=1.00D-06.
 Requested convergence on             energy=1.00D-06.
 No special actions if energy rises.
 Keep R1 and R2 ints in memory in canonical form, NReq=86340670.
 Integral accuracy reduced to 1.0D-05 until final iterations.
 Rare condition: small coef for last iteration:  0.000D+00
 Initial convergence to 1.0D-05 achieved.  Increase integral accuracy.
 SCF Done:  E(UM062X) =  -226.631752565     A.U. after   95 cycles
             Convg  =    0.7427D-08             -V/T =  2.0025
 <Sx>= 0.0000 <Sy>= 0.0000 <Sz>= 1.0000 <S**2>= 2.0161 S= 1.0054
 <L.S>= 0.000000000000E+00
 Annihilation of the first spin contaminant:
 S**2 before annihilation     2.0161,   after     2.0001
 Range of M.O.s used for correlation:     1   120
 NBasis=   120 NAE=    14 NBE=    12 NFC=     0 NFV=     0
 NROrb=    120 NOA=    14 NOB=    12 NVA=   106 NVB=   108

 **** Warning!!: The largest alpha MO coefficient is  0.18819272D+02


 **** Warning!!: The largest beta MO coefficient is  0.18911207D+02

 Symmetrizing basis deriv contribution to polar:
 IMax=3 JMax=2 DiffMx= 0.00D+00
 G2DrvN: will do     6 centers at a time, making    1 passes doing MaxLOS=3.
 Calling FoFCou, ICntrl=  3107 FMM=F I1Cent=   0 AccDes= 0.00D+00.
 FoFDir/FoFCou used for L=0 through L=3.
 End of G2Drv Frequency-dependent properties file   721 does not exist.
 End of G2Drv Frequency-dependent properties file   722 does not exist.
          IDoAtm=11111
          Differentiating once with respect to nuclear coordinates.
          Keep R1 and R2 ints in memory in canonical form, NReq=86223709.
          There are    18 degrees of freedom in the 1st order CPHF.  IDoFFX=5.
     12 vectors produced by pass  0 Test12= 1.54D-10 5.56D-07 XBig12= 2.40D-01 3.50D-01.
 AX will form    12 AO Fock derivatives at one time.
     12 vectors produced by pass  1 Test12= 1.54D-10 5.56D-07 XBig12= 4.88D-02 8.25D-02.
     12 vectors produced by pass  2 Test12= 1.54D-10 5.56D-07 XBig12= 5.24D-03 2.19D-02.
     12 vectors produced by pass  3 Test12= 1.54D-10 5.56D-07 XBig12= 1.55D-04 2.89D-03.
     12 vectors produced by pass  4 Test12= 1.54D-10 5.56D-07 XBig12= 3.95D-06 3.76D-04.
     12 vectors produced by pass  5 Test12= 1.54D-10 5.56D-07 XBig12= 7.18D-08 4.22D-05.
      5 vectors produced by pass  6 Test12= 1.54D-10 5.56D-07 XBig12= 9.99D-10 5.99D-06.
      1 vectors produced by pass  7 Test12= 1.54D-10 5.56D-07 XBig12= 1.45D-11 6.89D-07.
 Inverted reduced A of dimension    78 with in-core refinement.
 End of Minotr Frequency-dependent properties file   721 does not exist.
 End of Minotr Frequency-dependent properties file   722 does not exist.

 **********************************************************************

            Population analysis using the SCF density.

 **********************************************************************

 Orbital symmetries:
 Alpha Orbitals:
       Occupied  (A) (A) (A) (A) (A) (A) (A) (A) (A) (A) (A) (A)
                 (A) (A)
       Virtual   (A) (A) (A) (A) (A) (A) (A) (A) (A) (A) (A) (A)
                 (A) (A) (A) (A) (A) (A) (A) (A) (A) (A) (A) (A)
                 (A) (A) (A) (A) (A) (A) (A) (A) (A) (A) (A) (A)
                 (A) (A) (A) (A) (A) (A) (A) (A) (A) (A) (A) (A)
                 (A) (A) (A) (A) (A) (A) (A) (A) (A) (A) (A) (A)
                 (A) (A) (A) (A) (A) (A) (A) (A) (A) (A) (A) (A)
                 (A) (A) (A) (A) (A) (A) (A) (A) (A) (A) (A) (A)
                 (A) (A) (A) (A) (A) (A) (A) (A) (A) (A) (A) (A)
                 (A) (A) (A) (A) (A) (A) (A) (A) (A) (A)
 Beta  Orbitals:
       Occupied  (A) (A) (A) (A) (A) (A) (A) (A) (A) (A) (A) (A)
       Virtual   (A) (A) (A) (A) (A) (A) (A) (A) (A) (A) (A) (A)
                 (A) (A) (A) (A) (A) (A) (A) (A) (A) (A) (A) (A)
                 (A) (A) (A) (A) (A) (A) (A) (A) (A) (A) (A) (A)
                 (A) (A) (A) (A) (A) (A) (A) (A) (A) (A) (A) (A)
                 (A) (A) (A) (A) (A) (A) (A) (A) (A) (A) (A) (A)
                 (A) (A) (A) (A) (A) (A) (A) (A) (A) (A) (A) (A)
                 (A) (A) (A) (A) (A) (A) (A) (A) (A) (A) (A) (A)
                 (A) (A) (A) (A) (A) (A) (A) (A) (A) (A) (A) (A)
                 (A) (A) (A) (A) (A) (A) (A) (A) (A) (A) (A) (A)
 The electronic state is 3-A.
 Alpha  occ. eigenvalues --  -19.76948 -19.73489 -19.71564  -1.37451  -1.17217
 Alpha  occ. eigenvalues --   -1.00795  -0.69058  -0.62424  -0.59865  -0.59177
 Alpha  occ. eigenvalues --   -0.52827  -0.46622  -0.40186  -0.39797
 Alpha virt. eigenvalues --    0.03975   0.08978   0.11362   0.12755   0.16132
 Alpha virt. eigenvalues --    0.16397   0.17693   0.19218   0.21769   0.23472
 Alpha virt. eigenvalues --    0.23714   0.26182   0.28927   0.31286   0.36298
 Alpha virt. eigenvalues --    0.47608   0.58932   0.61334   0.69079   0.73233
 Alpha virt. eigenvalues --    0.81046   0.91132   0.92819   0.96443   1.00707
 Alpha virt. eigenvalues --    1.03997   1.05984   1.07410   1.08193   1.09722
 Alpha virt. eigenvalues --    1.27975   1.31157   1.33342   1.34715   1.40816
 Alpha virt. eigenvalues --    1.43871   1.47237   1.54811   1.61215   1.69731
 Alpha virt. eigenvalues --    1.75321   1.78175   1.96774   2.10282   2.20171
 Alpha virt. eigenvalues --    2.21175   2.23467   2.33890   2.39993   2.55034
 Alpha virt. eigenvalues --    2.61746   2.82720   3.53843   3.56912   3.71098
 Alpha virt. eigenvalues --    3.78675   4.06142   4.17881   4.43086   4.61953
 Alpha virt. eigenvalues --    4.63252   4.75392   4.78811   4.95205   4.95566
 Alpha virt. eigenvalues --    4.96075   4.96695   4.97552   4.98970   5.00963
 Alpha virt. eigenvalues --    5.04578   5.05291   5.06125   5.10495   5.12873
 Alpha virt. eigenvalues --    5.17180   5.19886   5.26101   5.36562   5.45301
 Alpha virt. eigenvalues --    5.47627   5.58704   5.60171   6.40487   6.49192
 Alpha virt. eigenvalues --    6.61074   6.64154   6.69888   6.74974   6.78712
 Alpha virt. eigenvalues --    6.80320   6.81625   6.89679   6.94725   6.96658
 Alpha virt. eigenvalues --    6.98457   7.11525   7.21928   7.23279   7.33754
 Alpha virt. eigenvalues --    7.57694   7.78829   7.87943  49.89436  49.92573
 Alpha virt. eigenvalues --   49.97260
  Beta  occ. eigenvalues --  -19.75823 -19.71799 -19.70184  -1.33219  -1.10496
  Beta  occ. eigenvalues --   -0.95021  -0.64960  -0.56539  -0.56102  -0.51389
  Beta  occ. eigenvalues --   -0.43345  -0.35496
  Beta virt. eigenvalues --   -0.16320  -0.07704   0.04533   0.09697   0.11638
  Beta virt. eigenvalues --    0.13367   0.16231   0.16795   0.18109   0.19779
  Beta virt. eigenvalues --    0.22156   0.23971   0.25115   0.26965   0.29564
  Beta virt. eigenvalues --    0.33285   0.36063   0.48476   0.58832   0.62064
  Beta virt. eigenvalues --    0.69247   0.73574   0.81784   0.91541   0.93432
  Beta virt. eigenvalues --    0.97018   1.04475   1.05541   1.07998   1.09149
  Beta virt. eigenvalues --    1.10444   1.11948   1.29960   1.33398   1.34981
  Beta virt. eigenvalues --    1.37877   1.43107   1.46046   1.49350   1.57481
  Beta virt. eigenvalues --    1.64311   1.72293   1.77398   1.79211   1.98679
  Beta virt. eigenvalues --    2.11661   2.20303   2.22978   2.24425   2.34349
  Beta virt. eigenvalues --    2.41032   2.55639   2.63089   2.82870   3.55010
  Beta virt. eigenvalues --    3.58239   3.72299   3.79740   4.06147   4.18646
  Beta virt. eigenvalues --    4.46571   4.63231   4.64718   4.75572   4.79983
  Beta virt. eigenvalues --    4.98246   4.99147   4.99635   4.99921   5.01988
  Beta virt. eigenvalues --    5.02939   5.04458   5.07982   5.09038   5.09462
  Beta virt. eigenvalues --    5.14309   5.14891   5.18630   5.21493   5.27734
  Beta virt. eigenvalues --    5.39513   5.48180   5.49789   5.59937   5.61502
  Beta virt. eigenvalues --    6.43702   6.50455   6.70615   6.74573   6.80488
  Beta virt. eigenvalues --    6.82952   6.83636   6.85086   6.86550   6.94337
  Beta virt. eigenvalues --    7.00540   7.01487   7.03985   7.19957   7.23683
  Beta virt. eigenvalues --    7.28074   7.40677   7.58779   7.79500   7.89902
  Beta virt. eigenvalues --   49.88843  49.92066  49.96543
          Condensed to atoms (all electrons):
              1          2          3          4          5
     1  O    7.708302   0.224252   0.220580   0.015223   0.002213
     2  O    0.224252   7.954473  -0.068497   0.017596  -0.003008
     3  H    0.220580  -0.068497   0.445418   0.013010   0.003184
     4  O    0.015223   0.017596   0.013010   8.070732   0.236117
     5  H    0.002213  -0.003008   0.003184   0.236117   0.499734
 Mulliken atomic charges:
              1
     1  O   -0.170570
     2  O   -0.124817
     3  H    0.386306
     4  O   -0.352679
     5  H    0.261760
 Sum of Mulliken atomic charges =   0.00000
 Mulliken charges with hydrogens summed into heavy atoms:
              1
     1  O    0.215735
     2  O   -0.124817
     4  O   -0.090919
 Sum of Mulliken charges with hydrogens summed into heavy atoms =   0.00000
          Atomic-Atomic Spin Densities.
              1          2          3          4          5
     1  O    0.571891  -0.193093   0.033812   0.001117  -0.000633
     2  O   -0.193093   0.975497   0.002250   0.008672   0.001052
     3  H    0.033812   0.002250  -0.064021  -0.020441  -0.002909
     4  O    0.001117   0.008672  -0.020441   0.857082   0.013407
     5  H   -0.000633   0.001052  -0.002909   0.013407  -0.026915
 Mulliken atomic spin densities:
              1
     1  O    0.413093
     2  O    0.794377
     3  H   -0.051308
     4  O    0.859837
     5  H   -0.015999
 Sum of Mulliken atomic spin densities =   2.00000
 APT atomic charges:
              1
     1  O   -0.252557
     2  O   -0.125129
     3  H    0.424673
     4  O   -0.530691
     5  H    0.483704
 Sum of APT charges=   0.00000
 APT Atomic charges with hydrogens summed into heavy atoms:
              1
     1  O    0.172116
     2  O   -0.125129
     3  H    0.000000
     4  O   -0.046987
     5  H    0.000000
 Sum of APT charges=   0.00000
 Electronic spatial extent (au):  <R**2>=            233.3669
 Charge=              0.0000 electrons
 Dipole moment (field-independent basis, Debye):
    X=              1.6993    Y=             -0.3896    Z=              1.3541  Tot=              2.2074
 Quadrupole moment (field-independent basis, Debye-Ang):
   XX=            -18.4566   YY=            -17.7888   ZZ=            -16.0277
   XY=             -1.8087   XZ=              2.7213   YZ=             -1.1760
 Traceless Quadrupole moment (field-independent basis, Debye-Ang):
   XX=             -1.0322   YY=             -0.3644   ZZ=              1.3966
   XY=             -1.8087   XZ=              2.7213   YZ=             -1.1760
 Octapole moment (field-independent basis, Debye-Ang**2):
  XXX=              4.2947  YYY=             -0.2638  ZZZ=              1.3670  XYY=              1.1574
  XXY=             -4.3445  XXZ=              4.7971  XZZ=              1.6030  YZZ=             -0.7760
  YYZ=              0.6825  XYZ=             -1.7443
 Hexadecapole moment (field-independent basis, Debye-Ang**3):
 XXXX=           -208.1177 YYYY=            -34.3244 ZZZZ=            -14.1926 XXXY=            -11.4272
 XXXZ=              9.3004 YYYX=             -0.4809 YYYZ=             -0.8963 ZZZX=              2.7973
 ZZZY=             -1.2045 XXYY=            -39.3747 XXZZ=            -33.1116 YYZZ=             -7.8604
 XXYZ=             -3.4800 YYXZ=              1.3328 ZZXY=             -1.3418
 N-N= 6.655041976662D+01 E-N=-9.893041673418D+02  KE= 3.358499746318D+02
  Exact polarizability:   0.000   0.000   0.000   0.000   0.000   0.000
 Approx polarizability:  52.395   4.277  21.319  -0.382  -0.389  15.567
                          Isotropic Fermi Contact Couplings
        Atom                 a.u.       MegaHertz       Gauss      10(-4) cm-1
     1  O(17)              0.03591     -10.88389      -3.88364      -3.63048
     2  O(17)              0.11657     -35.33248     -12.60751     -11.78565
     3  H(1)              -0.02673     -59.74875     -21.31984     -19.93004
     4  O(17)              0.10105     -30.62805     -10.92885     -10.21642
     5  H(1)              -0.01356     -30.29736     -10.81085     -10.10611
 --------------------------------------------------------
       Center         ----  Spin Dipole Couplings  ----
                      3XX-RR        3YY-RR        3ZZ-RR
 --------------------------------------------------------
     1   Atom       -0.357834     -0.911482      1.269316
     2   Atom       -1.254716     -1.642475      2.897191
     3   Atom        0.213680     -0.112205     -0.101476
     4   Atom        2.063143     -0.901756     -1.161388
     5   Atom       -0.044815     -0.049347      0.094162
 --------------------------------------------------------
                        XY            XZ            YZ
 --------------------------------------------------------
     1   Atom       -0.516751      0.102766     -0.258017
     2   Atom       -0.303213      0.155530     -0.464093
     3   Atom       -0.049386     -0.013627     -0.002947
     4   Atom       -1.672258     -1.342146      0.602441
     5   Atom       -0.040781      0.001556     -0.100400
 --------------------------------------------------------


 ---------------------------------------------------------------------------------
              Anisotropic Spin Dipole Couplings in Principal Axis System
 ---------------------------------------------------------------------------------

       Atom             a.u.   MegaHertz   Gauss  10(-4) cm-1        Axes

              Baa    -1.2324    89.178    31.821    29.747  0.5015  0.8624  0.0683
     1 O(17)  Bbb    -0.0838     6.062     2.163     2.022  0.8590 -0.4870 -0.1581
              Bcc     1.3162   -95.240   -33.984   -31.769  0.1031 -0.1380  0.9851
 
              Baa    -1.8327   132.616    47.321    44.236  0.4479  0.8911  0.0727
     2 O(17)  Bbb    -1.1196    81.014    28.908    27.023  0.8930 -0.4418 -0.0856
              Bcc     2.9523  -213.629   -76.228   -71.259  0.0442 -0.1033  0.9937
 
              Baa    -0.1208   -64.456   -23.000   -21.500  0.1514  0.9557  0.2524
     3 H(1)   Bbb    -0.1007   -53.740   -19.176   -17.926  0.0018 -0.2556  0.9668
              Bcc     0.2215   118.196    42.175    39.426  0.9885 -0.1459 -0.0404
 
              Baa    -1.6542   119.699    42.712    39.927  0.4481  0.8828  0.1412
     4 O(17)  Bbb    -1.6463   119.123    42.506    39.735  0.2214 -0.2626  0.9392
              Bcc     3.3005  -238.822   -85.218   -79.662  0.8661 -0.3896 -0.3131
 
              Baa    -0.1185   -63.231   -22.562   -21.092  0.4416  0.8126  0.3804
     5 H(1)   Bbb    -0.0294   -15.709    -5.605    -5.240  0.8909 -0.3470 -0.2931
              Bcc     0.1480    78.941    28.168    26.332  0.1062 -0.4683  0.8772
 

 ---------------------------------------------------------------------------------

 Calling FoFJK, ICntrl=    100147 FMM=F ISym2X=0 I1Cent= 0 IOpClX= 1 NMat=1 NMatS=1 NMatT=0.
 ***** Axes restored to original set *****
 -------------------------------------------------------------------
 Center     Atomic                   Forces (Hartrees/Bohr)
 Number     Number              X              Y              Z
 -------------------------------------------------------------------
      1        8          -0.027939582    0.012605503    0.005243877
      2        8           0.016783367    0.004444271   -0.000806792
      3        1           0.015360257   -0.018066744   -0.006782369
      4        8          -0.006315471    0.001544163    0.003996339
      5        1           0.002111429   -0.000527192   -0.001651056
 -------------------------------------------------------------------
 Cartesian Forces:  Max     0.027939582 RMS     0.011381707

 GradGradGradGradGradGradGradGradGradGradGradGradGradGradGradGradGradGrad
 Berny optimization.
 Internal  Forces:  Max     0.027689941 RMS     0.011460641
 Search for a saddle point.
 Step number   1 out of a maximum of   20
 All quantities printed in internal units (Hartrees-Bohrs-Radians)
 Swaping is turned off.
 Second derivative matrix not updated -- analytic derivatives used.
 The second derivative matrix:
                          R1        R2        R3        R4        A1
           R1           0.46225
           R2           0.09079   0.36393
           R3          -0.05882   0.08280  -0.01313
           R4          -0.00772   0.00560  -0.00335   0.50701
           A1           0.04634   0.00217  -0.03802  -0.00433   0.38640
           A2           0.00399  -0.00245   0.00382  -0.00056   0.00696
           A3          -0.00862   0.00657  -0.00218   0.00477   0.00515
           D1           0.00005   0.00093   0.00068   0.00049  -0.00787
           D2          -0.00132   0.00118   0.00120   0.00064  -0.00887
                          A2        A3        D1        D2
           A2           0.01249
           A3          -0.00311   0.03058
           D1           0.00014   0.00105   0.00176
           D2           0.00257   0.00095   0.00144   0.00165
 ITU=  0
     Eigenvalues ---   -0.04523  -0.00005   0.00225   0.01294   0.03106
     Eigenvalues ---    0.32258   0.39249   0.50640   0.53050
 Eigenvectors required to have negative eigenvalues:
                          R3        R2        R1        A2        A1
   1                   -0.95435   0.22759  -0.14669   0.08855  -0.07041
                          A3        R4        D2        D1
   1                   -0.05478  -0.01013  -0.00231  -0.00114
 RFO step:  Lambda0=2.540295745D-03 Lambda=-3.32775556D-03.
 Linear search not attempted -- option 19 set.
 Iteration  1 RMS(Cart)=  0.12248733 RMS(Int)=  0.01445489
 Iteration  2 RMS(Cart)=  0.00868954 RMS(Int)=  0.00015327
 Iteration  3 RMS(Cart)=  0.00004686 RMS(Int)=  0.00000001
 Iteration  4 RMS(Cart)=  0.00000001 RMS(Int)=  0.00000000
 Variable       Old X    -DE/DX   Delta X   Delta X   Delta X     New X
                                 (Linear)    (Quad)   (Total)
    R1        2.42991  -0.01310   0.00000   0.01322   0.01322   2.44313
    R2        1.87955   0.01422   0.00000  -0.01895  -0.01895   1.86060
    R3        2.98277  -0.00439   0.00000   0.22563   0.22563   3.20840
    R4        1.83803  -0.00103   0.00000  -0.00206  -0.00206   1.83597
    A1        1.99608  -0.02769   0.00000  -0.05301  -0.05301   1.94307
    A2        2.96481  -0.00043   0.00000  -0.04355  -0.04355   2.92125
    A3        1.77404   0.00452   0.00000   0.16354   0.16354   1.93759
    D1       -0.53039   0.00027   0.00000  -0.09449  -0.09449  -0.62488
    D2       -0.71267   0.00073   0.00000   0.02467   0.02467  -0.68800
         Item               Value     Threshold  Converged?
 Maximum Force            0.027690     0.000450     NO 
 RMS     Force            0.011461     0.000300     NO 
 Maximum Displacement     0.280011     0.001800     NO 
 RMS     Displacement     0.128301     0.001200     NO 
 Predicted change in Energy=-3.915209D-04
 GradGradGradGradGradGradGradGradGradGradGradGradGradGradGradGradGradGrad

                          Input orientation:                          
 ---------------------------------------------------------------------
 Center     Atomic      Atomic             Coordinates (Angstroms)
 Number     Number       Type             X           Y           Z
 ---------------------------------------------------------------------
      1          8           0       -0.740189    0.620192    0.039924
      2          8           0       -1.415632   -0.478304   -0.052465
      3          1           0        0.224696    0.457589   -0.069468
      4          8           0        1.813928   -0.139797   -0.075531
      5          1           0        2.028107   -0.568821    0.769441
 ---------------------------------------------------------------------
                    Distance matrix (angstroms):
                    1          2          3          4          5
     1  O    0.000000
     2  O    1.292847   0.000000
     3  H    0.984586   1.888613   0.000000
     4  O    2.667288   3.247333   1.697812   0.000000
     5  H    3.099905   3.541618   2.238208   0.971551   0.000000
 Stoichiometry    H2O3(3)
 Framework group  C1[X(H2O3)]
 Deg. of freedom     9
 Full point group                 C1      NOp   1
 Largest Abelian subgroup         C1      NOp   1
 Largest concise Abelian subgroup C1      NOp   1
                         Standard orientation:                         
 ---------------------------------------------------------------------
 Center     Atomic      Atomic             Coordinates (Angstroms)
 Number     Number       Type             X           Y           Z
 ---------------------------------------------------------------------
      1          8           0       -0.738966    0.602677    0.047322
      2          8           0       -1.383149   -0.515841   -0.026161
      3          1           0        0.228413    0.467616   -0.076556
      4          8           0        1.834252   -0.082917   -0.104131
      5          1           0        2.074492   -0.498968    0.740320
 ---------------------------------------------------------------------
 Rotational constants (GHZ):     44.3985329      5.1466216      4.6741011
 Standard basis: 6-311+G(2df,2p) (5D, 7F)
 There are   120 symmetry adapted basis functions of A   symmetry.
 Integral buffers will be    131072 words long.
 Raffenetti 2 integral format.
 Two-electron integral symmetry is turned on.
   120 basis functions,   178 primitive gaussians,   135 cartesian basis functions
    14 alpha electrons       12 beta electrons
       nuclear repulsion energy        65.5120119707 Hartrees.
 NAtoms=    5 NActive=    5 NUniq=    5 SFac= 1.00D+00 NAtFMM=   50 NAOKFM=F Big=F
 One-electron integrals computed using PRISM.
 NBasis=   120 RedAO= T  NBF=   120
 NBsUse=   120 1.00D-06 NBFU=   120
 Initial guess read from the read-write file.
 B after Tr=     0.000000    0.000000    0.000000
         Rot=    1.000000    0.000000    0.000000    0.000000 Ang=   0.00 deg.
 Initial guess orbital symmetries:
 Alpha Orbitals:
       Occupied  (A) (A) (A) (A) (A) (A) (A) (A) (A) (A) (A) (A)
                 (A) (A)
       Virtual   (A) (A) (A) (A) (A) (A) (A) (A) (A) (A) (A) (A)
                 (A) (A) (A) (A) (A) (A) (A) (A) (A) (A) (A) (A)
                 (A) (A) (A) (A) (A) (A) (A) (A) (A) (A) (A) (A)
                 (A) (A) (A) (A) (A) (A) (A) (A) (A) (A) (A) (A)
                 (A) (A) (A) (A) (A) (A) (A) (A) (A) (A) (A) (A)
                 (A) (A) (A) (A) (A) (A) (A) (A) (A) (A) (A) (A)
                 (A) (A) (A) (A) (A) (A) (A) (A) (A) (A) (A) (A)
                 (A) (A) (A) (A) (A) (A) (A) (A) (A) (A) (A) (A)
                 (A) (A) (A) (A) (A) (A) (A) (A) (A) (A)
 Beta  Orbitals:
       Occupied  (A) (A) (A) (A) (A) (A) (A) (A) (A) (A) (A) (A)
       Virtual   (A) (A) (A) (A) (A) (A) (A) (A) (A) (A) (A) (A)
                 (A) (A) (A) (A) (A) (A) (A) (A) (A) (A) (A) (A)
                 (A) (A) (A) (A) (A) (A) (A) (A) (A) (A) (A) (A)
                 (A) (A) (A) (A) (A) (A) (A) (A) (A) (A) (A) (A)
                 (A) (A) (A) (A) (A) (A) (A) (A) (A) (A) (A) (A)
                 (A) (A) (A) (A) (A) (A) (A) (A) (A) (A) (A) (A)
                 (A) (A) (A) (A) (A) (A) (A) (A) (A) (A) (A) (A)
                 (A) (A) (A) (A) (A) (A) (A) (A) (A) (A) (A) (A)
                 (A) (A) (A) (A) (A) (A) (A) (A) (A) (A) (A) (A)
 Initial guess <Sx>= 0.0000 <Sy>= 0.0000 <Sz>= 1.0000 <S**2>= 2.0165 S= 1.0055
 Harris functional with IExCor= 1009 diagonalized for initial guess.
 ExpMin= 8.45D-02 ExpMax= 8.59D+03 ExpMxC= 1.30D+03 IAcc=2 IRadAn=         0 AccDes= 0.00D+00
 HarFok:  IExCor= 1009 AccDes= 0.00D+00 IRadAn=         0 IDoV= 1
 ScaDFX=  1.000000  1.000000  1.000000  1.000000
 FoFCou: FMM=F IPFlag=           0 FMFlag=      100000 FMFlg1=           0
         NFxFlg=           0 DoJE=T BraDBF=F KetDBF=T FulRan=T
         Omega=  0.000000  0.000000  1.000000  0.000000  0.000000 ICntrl=     500 IOpCl=  0
         NMat0=    1 NMatS0=    1 NMatT0=    0 NMatD0=    1 NMtDS0=    0 NMtDT0=    0
         I1Cent=           4 NGrid=           0.
 Petite list used in FoFCou.
 Requested convergence on RMS density matrix=1.00D-08 within 128 cycles.
 Requested convergence on MAX density matrix=1.00D-06.
 Requested convergence on             energy=1.00D-06.
 No special actions if energy rises.
 Keep R1 and R2 ints in memory in canonical form, NReq=86340670.
 Integral accuracy reduced to 1.0D-05 until final iterations.
 Initial convergence to 1.0D-05 achieved.  Increase integral accuracy.
 SCF Done:  E(UM062X) =  -226.632959740     A.U. after   51 cycles
             Convg  =    0.2129D-08             -V/T =  2.0023
 <Sx>= 0.0000 <Sy>= 0.0000 <Sz>= 1.0000 <S**2>= 2.0117 S= 1.0039
 <L.S>= 0.000000000000E+00
 Annihilation of the first spin contaminant:
 S**2 before annihilation     2.0117,   after     2.0001
 Calling FoFJK, ICntrl=      2127 FMM=F ISym2X=0 I1Cent= 0 IOpClX= 1 NMat=1 NMatS=1 NMatT=0.
 ***** Axes restored to original set *****
 -------------------------------------------------------------------
 Center     Atomic                   Forces (Hartrees/Bohr)
 Number     Number              X              Y              Z
 -------------------------------------------------------------------
      1        8          -0.010271504    0.011411244    0.003501002
      2        8           0.007390612   -0.001340334   -0.000722396
      3        1           0.001874350   -0.009579191   -0.004247535
      4        8          -0.000278116    0.000282358    0.001899409
      5        1           0.001284659   -0.000774077   -0.000430480
 -------------------------------------------------------------------
 Cartesian Forces:  Max     0.011411244 RMS     0.005319349

 GradGradGradGradGradGradGradGradGradGradGradGradGradGradGradGradGradGrad
 Berny optimization.
 Internal  Forces:  Max     0.017257768 RMS     0.006125254
 Search for a saddle point.
 Step number   2 out of a maximum of   20
 All quantities printed in internal units (Hartrees-Bohrs-Radians)
 Swaping is turned off.
 Update second derivatives using D2CorX and points    1    2
 The second derivative matrix:
                          R1        R2        R3        R4        A1
           R1           0.46262
           R2           0.09025   0.36467
           R3          -0.05268   0.07178  -0.01238
           R4          -0.00778   0.00569  -0.00402   0.50702
           A1           0.04498   0.00542   0.00061  -0.00428   0.35432
           A2           0.00281  -0.00031   0.00447  -0.00043  -0.00097
           A3          -0.00418  -0.00146  -0.00412   0.00429   0.03462
           D1          -0.00253   0.00549  -0.00257   0.00078  -0.02231
           D2          -0.00065  -0.00005   0.00023   0.00057  -0.00402
                          A2        A3        D1        D2
           A2           0.01221
           A3          -0.00214   0.02731
           D1           0.00046  -0.00033   0.00427
           D2           0.00285  -0.00004   0.00149   0.00141
 ITU=  0  0
     Eigenvalues ---   -0.03649   0.00020   0.00328   0.01294   0.02458
     Eigenvalues ---    0.32280   0.35993   0.50640   0.52782
 Eigenvectors required to have negative eigenvalues:
                          R3        R2        R1        A2        D1
   1                    0.95707  -0.20394   0.14110  -0.09508   0.08909
                          A3        A1        R4        D2
   1                    0.07182  -0.01631   0.01035  -0.00188
 RFO step:  Lambda0=2.045633077D-06 Lambda=-2.21131851D-03.
 Linear search not attempted -- option 19 set.
 Iteration  1 RMS(Cart)=  0.09100055 RMS(Int)=  0.07758732
 Iteration  2 RMS(Cart)=  0.02328583 RMS(Int)=  0.00117476
 Iteration  3 RMS(Cart)=  0.00189811 RMS(Int)=  0.00000207
 Iteration  4 RMS(Cart)=  0.00000272 RMS(Int)=  0.00000000
 Iteration  5 RMS(Cart)=  0.00000000 RMS(Int)=  0.00000000
 Variable       Old X    -DE/DX   Delta X   Delta X   Delta X     New X
                                 (Linear)    (Quad)   (Total)
    R1        2.44313  -0.00267   0.00000  -0.00023  -0.00023   2.44289
    R2        1.86060   0.00479   0.00000   0.01909   0.01909   1.87968
    R3        3.20840   0.00111   0.00000   0.00369   0.00369   3.21209
    R4        1.83597   0.00025   0.00000  -0.00184  -0.00184   1.83412
    A1        1.94307  -0.01726   0.00000  -0.08309  -0.08309   1.85997
    A2        2.92125  -0.00068   0.00000  -0.07453  -0.07453   2.84672
    A3        1.93759   0.00273   0.00000   0.18299   0.18299   2.12058
    D1       -0.62488   0.00025   0.00000  -0.31550  -0.31550  -0.94038
    D2       -0.68800   0.00071   0.00000   0.29394   0.29394  -0.39406
         Item               Value     Threshold  Converged?
 Maximum Force            0.017258     0.000450     NO 
 RMS     Force            0.006125     0.000300     NO 
 Maximum Displacement     0.128659     0.001800     NO 
 RMS     Displacement     0.081871     0.001200     NO 
 Predicted change in Energy=-1.361383D-03
 GradGradGradGradGradGradGradGradGradGradGradGradGradGradGradGradGradGrad

                          Input orientation:                          
 ---------------------------------------------------------------------
 Center     Atomic      Atomic             Coordinates (Angstroms)
 Number     Number       Type             X           Y           Z
 ---------------------------------------------------------------------
      1          8           0       -0.772440    0.651624    0.048280
      2          8           0       -1.374893   -0.487585   -0.053632
      3          1           0        0.193030    0.477620   -0.116006
      4          8           0        1.769023   -0.153678   -0.032851
      5          1           0        2.096191   -0.597123    0.766109
 ---------------------------------------------------------------------
                    Distance matrix (angstroms):
                    1          2          3          4          5
     1  O    0.000000
     2  O    1.292723   0.000000
     3  H    0.994686   1.842252   0.000000
     4  O    2.667233   3.161667   1.699766   0.000000
     5  H    3.209936   3.568249   2.356951   0.970576   0.000000
 Stoichiometry    H2O3(3)
 Framework group  C1[X(H2O3)]
 Deg. of freedom     9
 Full point group                 C1      NOp   1
 Largest Abelian subgroup         C1      NOp   1
 Largest concise Abelian subgroup C1      NOp   1
                         Standard orientation:                         
 ---------------------------------------------------------------------
 Center     Atomic      Atomic             Coordinates (Angstroms)
 Number     Number       Type             X           Y           Z
 ---------------------------------------------------------------------
      1          8           0       -0.772003    0.618648    0.051237
      2          8           0       -1.324122   -0.547886   -0.022902
      3          1           0        0.195269    0.487320   -0.139910
      4          8           0        1.800383   -0.070386   -0.097732
      5          1           0        2.170671   -0.490325    0.695084
 ---------------------------------------------------------------------
 Rotational constants (GHZ):     41.5858256      5.3311337      4.7847235
 Standard basis: 6-311+G(2df,2p) (5D, 7F)
 There are   120 symmetry adapted basis functions of A   symmetry.
 Integral buffers will be    131072 words long.
 Raffenetti 2 integral format.
 Two-electron integral symmetry is turned on.
   120 basis functions,   178 primitive gaussians,   135 cartesian basis functions
    14 alpha electrons       12 beta electrons
       nuclear repulsion energy        65.7439950687 Hartrees.
 NAtoms=    5 NActive=    5 NUniq=    5 SFac= 1.00D+00 NAtFMM=   50 NAOKFM=F Big=F
 One-electron integrals computed using PRISM.
 NBasis=   120 RedAO= T  NBF=   120
 NBsUse=   120 1.00D-06 NBFU=   120
 Initial guess read from the read-write file.
 B after Tr=     0.000000    0.000000    0.000000
         Rot=    1.000000    0.000000    0.000000    0.000000 Ang=   0.00 deg.
 Initial guess orbital symmetries:
 Alpha Orbitals:
       Occupied  (A) (A) (A) (A) (A) (A) (A) (A) (A) (A) (A) (A)
                 (A) (A)
       Virtual   (A) (A) (A) (A) (A) (A) (A) (A) (A) (A) (A) (A)
                 (A) (A) (A) (A) (A) (A) (A) (A) (A) (A) (A) (A)
                 (A) (A) (A) (A) (A) (A) (A) (A) (A) (A) (A) (A)
                 (A) (A) (A) (A) (A) (A) (A) (A) (A) (A) (A) (A)
                 (A) (A) (A) (A) (A) (A) (A) (A) (A) (A) (A) (A)
                 (A) (A) (A) (A) (A) (A) (A) (A) (A) (A) (A) (A)
                 (A) (A) (A) (A) (A) (A) (A) (A) (A) (A) (A) (A)
                 (A) (A) (A) (A) (A) (A) (A) (A) (A) (A) (A) (A)
                 (A) (A) (A) (A) (A) (A) (A) (A) (A) (A)
 Beta  Orbitals:
       Occupied  (A) (A) (A) (A) (A) (A) (A) (A) (A) (A) (A) (A)
       Virtual   (A) (A) (A) (A) (A) (A) (A) (A) (A) (A) (A) (A)
                 (A) (A) (A) (A) (A) (A) (A) (A) (A) (A) (A) (A)
                 (A) (A) (A) (A) (A) (A) (A) (A) (A) (A) (A) (A)
                 (A) (A) (A) (A) (A) (A) (A) (A) (A) (A) (A) (A)
                 (A) (A) (A) (A) (A) (A) (A) (A) (A) (A) (A) (A)
                 (A) (A) (A) (A) (A) (A) (A) (A) (A) (A) (A) (A)
                 (A) (A) (A) (A) (A) (A) (A) (A) (A) (A) (A) (A)
                 (A) (A) (A) (A) (A) (A) (A) (A) (A) (A) (A) (A)
                 (A) (A) (A) (A) (A) (A) (A) (A) (A) (A) (A) (A)
 Initial guess <Sx>= 0.0000 <Sy>= 0.0000 <Sz>= 1.0000 <S**2>= 2.0116 S= 1.0039
 Harris functional with IExCor= 1009 diagonalized for initial guess.
 ExpMin= 8.45D-02 ExpMax= 8.59D+03 ExpMxC= 1.30D+03 IAcc=2 IRadAn=         0 AccDes= 0.00D+00
 HarFok:  IExCor= 1009 AccDes= 0.00D+00 IRadAn=         0 IDoV= 1
 ScaDFX=  1.000000  1.000000  1.000000  1.000000
 FoFCou: FMM=F IPFlag=           0 FMFlag=      100000 FMFlg1=           0
         NFxFlg=           0 DoJE=T BraDBF=F KetDBF=T FulRan=T
         Omega=  0.000000  0.000000  1.000000  0.000000  0.000000 ICntrl=     500 IOpCl=  0
         NMat0=    1 NMatS0=    1 NMatT0=    0 NMatD0=    1 NMtDS0=    0 NMtDT0=    0
         I1Cent=           4 NGrid=           0.
 Petite list used in FoFCou.
 Requested convergence on RMS density matrix=1.00D-08 within 128 cycles.
 Requested convergence on MAX density matrix=1.00D-06.
 Requested convergence on             energy=1.00D-06.
 No special actions if energy rises.
 Keep R1 and R2 ints in memory in canonical form, NReq=86340670.
 Integral accuracy reduced to 1.0D-05 until final iterations.
 Initial convergence to 1.0D-05 achieved.  Increase integral accuracy.
 SCF Done:  E(UM062X) =  -226.634066962     A.U. after   41 cycles
             Convg  =    0.7005D-08             -V/T =  2.0023
 <Sx>= 0.0000 <Sy>= 0.0000 <Sz>= 1.0000 <S**2>= 2.0103 S= 1.0034
 <L.S>= 0.000000000000E+00
 Annihilation of the first spin contaminant:
 S**2 before annihilation     2.0103,   after     2.0001
 Calling FoFJK, ICntrl=      2127 FMM=F ISym2X=0 I1Cent= 0 IOpClX= 1 NMat=1 NMatS=1 NMatT=0.
 ***** Axes restored to original set *****
 -------------------------------------------------------------------
 Center     Atomic                   Forces (Hartrees/Bohr)
 Number     Number              X              Y              Z
 -------------------------------------------------------------------
      1        8           0.009897550    0.003769377   -0.000515640
      2        8          -0.003952213   -0.005667654   -0.000251475
      3        1          -0.008598688    0.002957996    0.000028407
      4        8           0.001835042   -0.000433733    0.000438255
      5        1           0.000818309   -0.000625986    0.000300454
 -------------------------------------------------------------------
 Cartesian Forces:  Max     0.009897550 RMS     0.004064713

 GradGradGradGradGradGradGradGradGradGradGradGradGradGradGradGradGradGrad
 Berny optimization.
 Internal  Forces:  Max     0.006880017 RMS     0.003355298
 Search for a saddle point.
 Step number   3 out of a maximum of   20
 All quantities printed in internal units (Hartrees-Bohrs-Radians)
 Swaping is turned off.
 Update second derivatives using D2CorX and points    2    3
 The second derivative matrix:
                          R1        R2        R3        R4        A1
           R1           0.46359
           R2           0.08880   0.36649
           R3          -0.05238   0.07128  -0.01230
           R4          -0.00761   0.00547  -0.00397   0.50705
           A1           0.04773   0.00274   0.00172  -0.00394   0.35594
           A2           0.00499  -0.00228   0.00538  -0.00017  -0.00034
           A3          -0.00942   0.00323  -0.00632   0.00368   0.03336
           D1           0.00683  -0.00307   0.00132   0.00188  -0.01922
           D2          -0.00931   0.00785  -0.00338  -0.00044  -0.00674
                          A2        A3        D1        D2
           A2           0.01212
           A3          -0.00170   0.02568
           D1           0.00041   0.00076   0.00551
           D2           0.00302  -0.00135   0.00087   0.00151
 ITU=  0  0  0
     Eigenvalues ---   -0.03832   0.00164   0.00413   0.01295   0.02403
     Eigenvalues ---    0.32322   0.36317   0.50643   0.52834
 Eigenvectors required to have negative eigenvalues:
                          R3        R2        D2        R1        A3
   1                    0.93148  -0.20121   0.16307   0.14423   0.14131
                          A2        D1        A1        R4
   1                   -0.12718  -0.08430  -0.03340   0.01000
 RFO step:  Lambda0=6.745102625D-04 Lambda=-3.09650282D-04.
 Linear search not attempted -- option 19 set.
 Iteration  1 RMS(Cart)=  0.04399286 RMS(Int)=  0.00673763
 Iteration  2 RMS(Cart)=  0.00885410 RMS(Int)=  0.00012285
 Iteration  3 RMS(Cart)=  0.00006496 RMS(Int)=  0.00000001
 Iteration  4 RMS(Cart)=  0.00000000 RMS(Int)=  0.00000000
 Variable       Old X    -DE/DX   Delta X   Delta X   Delta X     New X
                                 (Linear)    (Quad)   (Total)
    R1        2.44289   0.00688   0.00000  -0.00305  -0.00305   2.43984
    R2        1.87968  -0.00625   0.00000   0.00649   0.00649   1.88618
    R3        3.21209   0.00288   0.00000  -0.09214  -0.09214   3.11995
    R4        1.83412   0.00080   0.00000   0.00029   0.00029   1.83441
    A1        1.85997   0.00205   0.00000   0.00750   0.00750   1.86748
    A2        2.84672  -0.00023   0.00000   0.06612   0.06612   2.91284
    A3        2.12058   0.00128   0.00000   0.00695   0.00695   2.12753
    D1       -0.94038   0.00008   0.00000   0.08980   0.08980  -0.85058
    D2       -0.39406   0.00031   0.00000  -0.17601  -0.17601  -0.57007
         Item               Value     Threshold  Converged?
 Maximum Force            0.006880     0.000450     NO 
 RMS     Force            0.003355     0.000300     NO 
 Maximum Displacement     0.067639     0.001800     NO 
 RMS     Displacement     0.052400     0.001200     NO 
 Predicted change in Energy= 1.828810D-04
 GradGradGradGradGradGradGradGradGradGradGradGradGradGradGradGradGradGrad

                          Input orientation:                          
 ---------------------------------------------------------------------
 Center     Atomic      Atomic             Coordinates (Angstroms)
 Number     Number       Type             X           Y           Z
 ---------------------------------------------------------------------
      1          8           0       -0.759697    0.646620    0.046134
      2          8           0       -1.398326   -0.468863   -0.075577
      3          1           0        0.209312    0.443377   -0.080213
      4          8           0        1.742508   -0.167864   -0.041191
      5          1           0        2.117115   -0.562411    0.762747
 ---------------------------------------------------------------------
                    Distance matrix (angstroms):
                    1          2          3          4          5
     1  O    0.000000
     2  O    1.291109   0.000000
     3  H    0.998123   1.848433   0.000000
     4  O    2.632876   3.155411   1.651008   0.000000
     5  H    3.201771   3.615227   2.315579   0.970729   0.000000
 Stoichiometry    H2O3(3)
 Framework group  C1[X(H2O3)]
 Deg. of freedom     9
 Full point group                 C1      NOp   1
 Largest Abelian subgroup         C1      NOp   1
 Largest concise Abelian subgroup C1      NOp   1
                         Standard orientation:                         
 ---------------------------------------------------------------------
 Center     Atomic      Atomic             Coordinates (Angstroms)
 Number     Number       Type             X           Y           Z
 ---------------------------------------------------------------------
      1          8           0       -0.750369    0.614174    0.043363
      2          8           0       -1.337400   -0.534201   -0.016587
      3          1           0        0.222763    0.452744   -0.108959
      4          8           0        1.784434   -0.082933   -0.101036
      5          1           0        2.203920   -0.429059    0.703043
 ---------------------------------------------------------------------
 Rotational constants (GHZ):     42.9489949      5.3722314      4.8355217
 Standard basis: 6-311+G(2df,2p) (5D, 7F)
 There are   120 symmetry adapted basis functions of A   symmetry.
 Integral buffers will be    131072 words long.
 Raffenetti 2 integral format.
 Two-electron integral symmetry is turned on.
   120 basis functions,   178 primitive gaussians,   135 cartesian basis functions
    14 alpha electrons       12 beta electrons
       nuclear repulsion energy        66.0061476536 Hartrees.
 NAtoms=    5 NActive=    5 NUniq=    5 SFac= 1.00D+00 NAtFMM=   50 NAOKFM=F Big=F
 One-electron integrals computed using PRISM.
 NBasis=   120 RedAO= T  NBF=   120
 NBsUse=   120 1.00D-06 NBFU=   120
 Initial guess read from the read-write file.
 B after Tr=     0.000000    0.000000    0.000000
         Rot=    1.000000    0.000000    0.000000    0.000000 Ang=   0.00 deg.
 Initial guess orbital symmetries:
 Alpha Orbitals:
       Occupied  (A) (A) (A) (A) (A) (A) (A) (A) (A) (A) (A) (A)
                 (A) (A)
       Virtual   (A) (A) (A) (A) (A) (A) (A) (A) (A) (A) (A) (A)
                 (A) (A) (A) (A) (A) (A) (A) (A) (A) (A) (A) (A)
                 (A) (A) (A) (A) (A) (A) (A) (A) (A) (A) (A) (A)
                 (A) (A) (A) (A) (A) (A) (A) (A) (A) (A) (A) (A)
                 (A) (A) (A) (A) (A) (A) (A) (A) (A) (A) (A) (A)
                 (A) (A) (A) (A) (A) (A) (A) (A) (A) (A) (A) (A)
                 (A) (A) (A) (A) (A) (A) (A) (A) (A) (A) (A) (A)
                 (A) (A) (A) (A) (A) (A) (A) (A) (A) (A) (A) (A)
                 (A) (A) (A) (A) (A) (A) (A) (A) (A) (A)
 Beta  Orbitals:
       Occupied  (A) (A) (A) (A) (A) (A) (A) (A) (A) (A) (A) (A)
       Virtual   (A) (A) (A) (A) (A) (A) (A) (A) (A) (A) (A) (A)
                 (A) (A) (A) (A) (A) (A) (A) (A) (A) (A) (A) (A)
                 (A) (A) (A) (A) (A) (A) (A) (A) (A) (A) (A) (A)
                 (A) (A) (A) (A) (A) (A) (A) (A) (A) (A) (A) (A)
                 (A) (A) (A) (A) (A) (A) (A) (A) (A) (A) (A) (A)
                 (A) (A) (A) (A) (A) (A) (A) (A) (A) (A) (A) (A)
                 (A) (A) (A) (A) (A) (A) (A) (A) (A) (A) (A) (A)
                 (A) (A) (A) (A) (A) (A) (A) (A) (A) (A) (A) (A)
                 (A) (A) (A) (A) (A) (A) (A) (A) (A) (A) (A) (A)
 Initial guess <Sx>= 0.0000 <Sy>= 0.0000 <Sz>= 1.0000 <S**2>= 2.0103 S= 1.0034
 Harris functional with IExCor= 1009 diagonalized for initial guess.
 ExpMin= 8.45D-02 ExpMax= 8.59D+03 ExpMxC= 1.30D+03 IAcc=2 IRadAn=         0 AccDes= 0.00D+00
 HarFok:  IExCor= 1009 AccDes= 0.00D+00 IRadAn=         0 IDoV= 1
 ScaDFX=  1.000000  1.000000  1.000000  1.000000
 FoFCou: FMM=F IPFlag=           0 FMFlag=      100000 FMFlg1=           0
         NFxFlg=           0 DoJE=T BraDBF=F KetDBF=T FulRan=T
         Omega=  0.000000  0.000000  1.000000  0.000000  0.000000 ICntrl=     500 IOpCl=  0
         NMat0=    1 NMatS0=    1 NMatT0=    0 NMatD0=    1 NMtDS0=    0 NMtDT0=    0
         I1Cent=           4 NGrid=           0.
 Petite list used in FoFCou.
 Requested convergence on RMS density matrix=1.00D-08 within 128 cycles.
 Requested convergence on MAX density matrix=1.00D-06.
 Requested convergence on             energy=1.00D-06.
 No special actions if energy rises.
 Keep R1 and R2 ints in memory in canonical form, NReq=86340670.
 Integral accuracy reduced to 1.0D-05 until final iterations.
 Initial convergence to 1.0D-05 achieved.  Increase integral accuracy.
 SCF Done:  E(UM062X) =  -226.633708577     A.U. after   38 cycles
             Convg  =    0.6841D-08             -V/T =  2.0023
 <Sx>= 0.0000 <Sy>= 0.0000 <Sz>= 1.0000 <S**2>= 2.0110 S= 1.0036
 <L.S>= 0.000000000000E+00
 Annihilation of the first spin contaminant:
 S**2 before annihilation     2.0110,   after     2.0001
 Calling FoFJK, ICntrl=      2127 FMM=F ISym2X=0 I1Cent= 0 IOpClX= 1 NMat=1 NMatS=1 NMatT=0.
 ***** Axes restored to original set *****
 -------------------------------------------------------------------
 Center     Atomic                   Forces (Hartrees/Bohr)
 Number     Number              X              Y              Z
 -------------------------------------------------------------------
      1        8           0.008596915    0.003255591    0.000184882
      2        8          -0.003656162   -0.004866210   -0.000429937
      3        1          -0.007771622    0.002609240   -0.000271002
      4        8           0.002458650   -0.000672155    0.000195965
      5        1           0.000372219   -0.000326466    0.000320092
 -------------------------------------------------------------------
 Cartesian Forces:  Max     0.008596915 RMS     0.003614183

 GradGradGradGradGradGradGradGradGradGradGradGradGradGradGradGradGradGrad
 Berny optimization.
 Internal  Forces:  Max     0.006083194 RMS     0.002913781
 Search for a saddle point.
 Step number   4 out of a maximum of   20
 All quantities printed in internal units (Hartrees-Bohrs-Radians)
 Swaping is turned off.
 Update second derivatives using D2CorX and points    1    2    3    4
 The second derivative matrix:
                          R1        R2        R3        R4        A1
           R1           0.47008
           R2           0.08187   0.37359
           R3          -0.03502   0.05597   0.00067
           R4          -0.00705   0.00487  -0.00241   0.50710
           A1           0.05246  -0.00163   0.00778  -0.00354   0.35802
           A2          -0.00392   0.00519   0.00195  -0.00095  -0.00275
           A3          -0.02074   0.01250  -0.00904   0.00272   0.03072
           D1           0.00480  -0.00136   0.00043   0.00171  -0.01988
           D2           0.01106  -0.00913   0.00392   0.00131  -0.00138
                          A2        A3        D1        D2
           A2           0.01185
           A3          -0.00307   0.02240
           D1           0.00050   0.00088   0.00549
           D2           0.00403   0.00227   0.00068  -0.00170
 ITU=  0  0  0  0
     Eigenvalues ---   -0.02134  -0.00089   0.00434   0.01241   0.02436
     Eigenvalues ---    0.32348   0.36867   0.50650   0.52996
 Eigenvectors required to have negative eigenvalues:
                          R3        D2        A3        R2        R1
   1                    0.83050  -0.36275   0.34674  -0.16303   0.11793
                          D1        A1        A2        R4
   1                   -0.09675  -0.06801   0.06286   0.00595
 RFO step:  Lambda0=7.399066624D-04 Lambda=-2.04147655D-03.
 Linear search not attempted -- option 19 set.
 Maximum step size (   0.300) exceeded in Quadratic search.
    -- Step size scaled by   0.907
 Iteration  1 RMS(Cart)=  0.13219217 RMS(Int)=  0.20187851
 Iteration  2 RMS(Cart)=  0.07135889 RMS(Int)=  0.13635723
 Iteration  3 RMS(Cart)=  0.05828351 RMS(Int)=  0.06984207
 Iteration  4 RMS(Cart)=  0.05908889 RMS(Int)=  0.00599570
 Iteration  5 RMS(Cart)=  0.00550008 RMS(Int)=  0.00004279
 Iteration  6 RMS(Cart)=  0.00003954 RMS(Int)=  0.00000000
 Iteration  7 RMS(Cart)=  0.00000000 RMS(Int)=  0.00000000
 Variable       Old X    -DE/DX   Delta X   Delta X   Delta X     New X
                                 (Linear)    (Quad)   (Total)
    R1        2.43984   0.00608   0.00000   0.00474   0.00474   2.44458
    R2        1.88618  -0.00517   0.00000  -0.01341  -0.01341   1.87277
    R3        3.11995   0.00300   0.00000   0.15231   0.15231   3.27226
    R4        1.83441   0.00053   0.00000  -0.00023  -0.00023   1.83418
    A1        1.86748   0.00176   0.00000   0.00032   0.00032   1.86779
    A2        2.91284  -0.00017   0.00000  -0.24520  -0.24520   2.66764
    A3        2.12753   0.00043   0.00000  -0.02451  -0.02451   2.10301
    D1       -0.85058  -0.00012   0.00000  -0.06077  -0.06077  -0.91135
    D2       -0.57007   0.00013   0.00000   0.76414   0.76414   0.19407
         Item               Value     Threshold  Converged?
 Maximum Force            0.006083     0.000450     NO 
 RMS     Force            0.002914     0.000300     NO 
 Maximum Displacement     0.353930     0.001800     NO 
 RMS     Displacement     0.284202     0.001200     NO 
 Predicted change in Energy=-1.181558D-03
 GradGradGradGradGradGradGradGradGradGradGradGradGradGradGradGradGradGrad

                          Input orientation:                          
 ---------------------------------------------------------------------
 Center     Atomic      Atomic             Coordinates (Angstroms)
 Number     Number       Type             X           Y           Z
 ---------------------------------------------------------------------
      1          8           0       -0.773215    0.650024   -0.008727
      2          8           0       -1.235538   -0.554594    0.084003
      3          1           0        0.191774    0.574744   -0.221474
      4          8           0        1.789492   -0.029613    0.062278
      5          1           0        1.938398   -0.749703    0.695819
 ---------------------------------------------------------------------
                    Distance matrix (angstroms):
                    1          2          3          4          5
     1  O    0.000000
     2  O    1.293618   0.000000
     3  H    0.991026   1.845519   0.000000
     4  O    2.652247   3.070323   1.731608   0.000000
     5  H    3.131846   3.238249   2.376190   0.970606   0.000000
 Stoichiometry    H2O3(3)
 Framework group  C1[X(H2O3)]
 Deg. of freedom     9
 Full point group                 C1      NOp   1
 Largest Abelian subgroup         C1      NOp   1
 Largest concise Abelian subgroup C1      NOp   1
                         Standard orientation:                         
 ---------------------------------------------------------------------
 Center     Atomic      Atomic             Coordinates (Angstroms)
 Number     Number       Type             X           Y           Z
 ---------------------------------------------------------------------
      1          8           0       -0.794930    0.628288    0.060961
      2          8           0       -1.243718   -0.581099   -0.036084
      3          1           0        0.163702    0.602839   -0.189059
      4          8           0        1.774553   -0.018513   -0.056602
      5          1           0        1.949054   -0.832249    0.442855
 ---------------------------------------------------------------------
 Rotational constants (GHZ):     38.5499471      5.6555604      4.9645971
 Standard basis: 6-311+G(2df,2p) (5D, 7F)
 There are   120 symmetry adapted basis functions of A   symmetry.
 Integral buffers will be    131072 words long.
 Raffenetti 2 integral format.
 Two-electron integral symmetry is turned on.
   120 basis functions,   178 primitive gaussians,   135 cartesian basis functions
    14 alpha electrons       12 beta electrons
       nuclear repulsion energy        66.2339852330 Hartrees.
 NAtoms=    5 NActive=    5 NUniq=    5 SFac= 1.00D+00 NAtFMM=   50 NAOKFM=F Big=F
 One-electron integrals computed using PRISM.
 NBasis=   120 RedAO= T  NBF=   120
 NBsUse=   120 1.00D-06 NBFU=   120
 Initial guess read from the read-write file.
 B after Tr=     0.000000    0.000000    0.000000
         Rot=    1.000000    0.000000    0.000000    0.000000 Ang=   0.00 deg.
 Initial guess orbital symmetries:
 Alpha Orbitals:
       Occupied  (A) (A) (A) (A) (A) (A) (A) (A) (A) (A) (A) (A)
                 (A) (A)
       Virtual   (A) (A) (A) (A) (A) (A) (A) (A) (A) (A) (A) (A)
                 (A) (A) (A) (A) (A) (A) (A) (A) (A) (A) (A) (A)
                 (A) (A) (A) (A) (A) (A) (A) (A) (A) (A) (A) (A)
                 (A) (A) (A) (A) (A) (A) (A) (A) (A) (A) (A) (A)
                 (A) (A) (A) (A) (A) (A) (A) (A) (A) (A) (A) (A)
                 (A) (A) (A) (A) (A) (A) (A) (A) (A) (A) (A) (A)
                 (A) (A) (A) (A) (A) (A) (A) (A) (A) (A) (A) (A)
                 (A) (A) (A) (A) (A) (A) (A) (A) (A) (A) (A) (A)
                 (A) (A) (A) (A) (A) (A) (A) (A) (A) (A)
 Beta  Orbitals:
       Occupied  (A) (A) (A) (A) (A) (A) (A) (A) (A) (A) (A) (A)
       Virtual   (A) (A) (A) (A) (A) (A) (A) (A) (A) (A) (A) (A)
                 (A) (A) (A) (A) (A) (A) (A) (A) (A) (A) (A) (A)
                 (A) (A) (A) (A) (A) (A) (A) (A) (A) (A) (A) (A)
                 (A) (A) (A) (A) (A) (A) (A) (A) (A) (A) (A) (A)
                 (A) (A) (A) (A) (A) (A) (A) (A) (A) (A) (A) (A)
                 (A) (A) (A) (A) (A) (A) (A) (A) (A) (A) (A) (A)
                 (A) (A) (A) (A) (A) (A) (A) (A) (A) (A) (A) (A)
                 (A) (A) (A) (A) (A) (A) (A) (A) (A) (A) (A) (A)
                 (A) (A) (A) (A) (A) (A) (A) (A) (A) (A) (A) (A)
 Initial guess <Sx>= 0.0000 <Sy>= 0.0000 <Sz>= 1.0000 <S**2>= 2.0110 S= 1.0036
 Harris functional with IExCor= 1009 diagonalized for initial guess.
 ExpMin= 8.45D-02 ExpMax= 8.59D+03 ExpMxC= 1.30D+03 IAcc=2 IRadAn=         0 AccDes= 0.00D+00
 HarFok:  IExCor= 1009 AccDes= 0.00D+00 IRadAn=         0 IDoV= 1
 ScaDFX=  1.000000  1.000000  1.000000  1.000000
 FoFCou: FMM=F IPFlag=           0 FMFlag=      100000 FMFlg1=           0
         NFxFlg=           0 DoJE=T BraDBF=F KetDBF=T FulRan=T
         Omega=  0.000000  0.000000  1.000000  0.000000  0.000000 ICntrl=     500 IOpCl=  0
         NMat0=    1 NMatS0=    1 NMatT0=    0 NMatD0=    1 NMtDS0=    0 NMtDT0=    0
         I1Cent=           4 NGrid=           0.
 Petite list used in FoFCou.
 Requested convergence on RMS density matrix=1.00D-08 within 128 cycles.
 Requested convergence on MAX density matrix=1.00D-06.
 Requested convergence on             energy=1.00D-06.
 No special actions if energy rises.
 Keep R1 and R2 ints in memory in canonical form, NReq=86340670.
 Integral accuracy reduced to 1.0D-05 until final iterations.
 Initial convergence to 1.0D-05 achieved.  Increase integral accuracy.
 SCF Done:  E(UM062X) =  -226.634569525     A.U. after   85 cycles
             Convg  =    0.2527D-08             -V/T =  2.0023
 <Sx>= 0.0000 <Sy>= 0.0000 <Sz>= 1.0000 <S**2>= 2.0092 S= 1.0031
 <L.S>= 0.000000000000E+00
 Annihilation of the first spin contaminant:
 S**2 before annihilation     2.0092,   after     2.0000
 Calling FoFJK, ICntrl=      2127 FMM=F ISym2X=0 I1Cent= 0 IOpClX= 1 NMat=1 NMatS=1 NMatT=0.
 ***** Axes restored to original set *****
 -------------------------------------------------------------------
 Center     Atomic                   Forces (Hartrees/Bohr)
 Number     Number              X              Y              Z
 -------------------------------------------------------------------
      1        8           0.007628327    0.007953653   -0.003388025
      2        8          -0.001304837   -0.007793560    0.000879621
      3        1          -0.010148042    0.002390529    0.002129651
      4        8           0.003191719   -0.001759768   -0.000155871
      5        1           0.000632833   -0.000790854    0.000534623
 -------------------------------------------------------------------
 Cartesian Forces:  Max     0.010148042 RMS     0.004647575

 GradGradGradGradGradGradGradGradGradGradGradGradGradGradGradGradGradGrad
 Berny optimization.
 Internal  Forces:  Max     0.007788350 RMS     0.003980329
 Search for a saddle point.
 Step number   5 out of a maximum of   20
 All quantities printed in internal units (Hartrees-Bohrs-Radians)
 Swaping is turned off.
 Update second derivatives using D2CorX and points    4    5
 The second derivative matrix:
                          R1        R2        R3        R4        A1
           R1           0.47053
           R2           0.08158   0.37375
           R3          -0.03639   0.05719  -0.00077
           R4          -0.00698   0.00483  -0.00259   0.50711
           A1           0.05220  -0.00146   0.00848  -0.00358   0.35817
           A2          -0.00130   0.00297   0.00316  -0.00059  -0.00411
           A3          -0.02043   0.01224  -0.00905   0.00276   0.03056
           D1           0.00556  -0.00199   0.00041   0.00181  -0.02029
           D2           0.00288  -0.00218   0.00021   0.00019   0.00288
                          A2        A3        D1        D2
           A2           0.01202
           A3          -0.00281   0.02246
           D1           0.00116   0.00102   0.00584
           D2           0.00333   0.00143  -0.00142   0.00099
 ITU=  0  0  0  0  0
     Eigenvalues ---   -0.02050  -0.00066   0.00498   0.01242   0.02434
     Eigenvalues ---    0.32434   0.36865   0.50652   0.52999
 Eigenvectors required to have negative eigenvalues:
                          R3        A3        R2        D1        R1
   1                    0.90177   0.34669  -0.16704  -0.12222   0.11831
                          A1        D2        A2        R4
   1                   -0.07158  -0.05728  -0.03657   0.00563
 RFO step:  Lambda0=1.870871026D-03 Lambda=-1.66866195D-03.
 Linear search not attempted -- option 19 set.
 Maximum step size (   0.300) exceeded in Quadratic search.
    -- Step size scaled by   0.942
 Iteration  1 RMS(Cart)=  0.26656469 RMS(Int)=  0.17015780
 Iteration  2 RMS(Cart)=  0.13907579 RMS(Int)=  0.07599153
 Iteration  3 RMS(Cart)=  0.09965749 RMS(Int)=  0.01322331
 Iteration  4 RMS(Cart)=  0.01267131 RMS(Int)=  0.00011564
 Iteration  5 RMS(Cart)=  0.00015895 RMS(Int)=  0.00000002
 Iteration  6 RMS(Cart)=  0.00000002 RMS(Int)=  0.00000000
 Variable       Old X    -DE/DX   Delta X   Delta X   Delta X     New X
                                 (Linear)    (Quad)   (Total)
    R1        2.44458   0.00779   0.00000  -0.01920  -0.01920   2.42539
    R2        1.87277  -0.00668   0.00000   0.02134   0.02134   1.89411
    R3        3.27226   0.00448   0.00000  -0.13456  -0.13456   3.13771
    R4        1.83418   0.00103   0.00000  -0.00022  -0.00022   1.83396
    A1        1.86779  -0.00360   0.00000   0.03124   0.03124   1.89903
    A2        2.66764  -0.00020   0.00000  -0.18793  -0.18793   2.47971
    A3        2.10301   0.00090   0.00000  -0.17103  -0.17103   1.93198
    D1       -0.91135   0.00152   0.00000   0.47264   0.47264  -0.43871
    D2        0.19407   0.00006   0.00000   0.57380   0.57380   0.76788
         Item               Value     Threshold  Converged?
 Maximum Force            0.007788     0.000450     NO 
 RMS     Force            0.003980     0.000300     NO 
 Maximum Displacement     0.509274     0.001800     NO 
 RMS     Displacement     0.405361     0.001200     NO 
 Predicted change in Energy=-2.720335D-04
 GradGradGradGradGradGradGradGradGradGradGradGradGradGradGradGradGradGrad

                          Input orientation:                          
 ---------------------------------------------------------------------
 Center     Atomic      Atomic             Coordinates (Angstroms)
 Number     Number       Type             X           Y           Z
 ---------------------------------------------------------------------
      1          8           0       -0.731417    0.573611   -0.176079
      2          8           0       -0.990159   -0.572764    0.339813
      3          1           0        0.260360    0.658687   -0.293490
      4          8           0        1.703226    0.096168    0.305385
      5          1           0        1.668901   -0.864843    0.436271
 ---------------------------------------------------------------------
                    Distance matrix (angstroms):
                    1          2          3          4          5
     1  O    0.000000
     2  O    1.283460   0.000000
     3  H    1.002320   1.865836   0.000000
     4  O    2.527300   2.775424   1.660404   0.000000
     5  H    2.864551   2.676793   2.199473   0.970491   0.000000
 Stoichiometry    H2O3(3)
 Framework group  C1[X(H2O3)]
 Deg. of freedom     9
 Full point group                 C1      NOp   1
 Largest Abelian subgroup         C1      NOp   1
 Largest concise Abelian subgroup C1      NOp   1
                         Standard orientation:                         
 ---------------------------------------------------------------------
 Center     Atomic      Atomic             Coordinates (Angstroms)
 Number     Number       Type             X           Y           Z
 ---------------------------------------------------------------------
      1          8           0       -0.805343   -0.633990    0.004414
      2          8           0       -1.058748    0.624052   -0.015247
      3          1           0        0.176762   -0.763428    0.157256
      4          8           0        1.643261   -0.009668   -0.038110
      5          1           0        1.589874    0.920278    0.234290
 ---------------------------------------------------------------------
 Rotational constants (GHZ):     35.6576116      6.8160841      5.7354301
 Standard basis: 6-311+G(2df,2p) (5D, 7F)
 There are   120 symmetry adapted basis functions of A   symmetry.
 Integral buffers will be    131072 words long.
 Raffenetti 2 integral format.
 Two-electron integral symmetry is turned on.
   120 basis functions,   178 primitive gaussians,   135 cartesian basis functions
    14 alpha electrons       12 beta electrons
       nuclear repulsion energy        68.6950071195 Hartrees.
 NAtoms=    5 NActive=    5 NUniq=    5 SFac= 1.00D+00 NAtFMM=   50 NAOKFM=F Big=F
 One-electron integrals computed using PRISM.
 NBasis=   120 RedAO= T  NBF=   120
 NBsUse=   120 1.00D-06 NBFU=   120
 Initial guess read from the read-write file.
 B after Tr=     0.000000    0.000000    0.000000
         Rot=    1.000000    0.000000    0.000000    0.000000 Ang=   0.00 deg.
 Initial guess orbital symmetries:
 Alpha Orbitals:
       Occupied  (A) (A) (A) (A) (A) (A) (A) (A) (A) (A) (A) (A)
                 (A) (A)
       Virtual   (A) (A) (A) (A) (A) (A) (A) (A) (A) (A) (A) (A)
                 (A) (A) (A) (A) (A) (A) (A) (A) (A) (A) (A) (A)
                 (A) (A) (A) (A) (A) (A) (A) (A) (A) (A) (A) (A)
                 (A) (A) (A) (A) (A) (A) (A) (A) (A) (A) (A) (A)
                 (A) (A) (A) (A) (A) (A) (A) (A) (A) (A) (A) (A)
                 (A) (A) (A) (A) (A) (A) (A) (A) (A) (A) (A) (A)
                 (A) (A) (A) (A) (A) (A) (A) (A) (A) (A) (A) (A)
                 (A) (A) (A) (A) (A) (A) (A) (A) (A) (A) (A) (A)
                 (A) (A) (A) (A) (A) (A) (A) (A) (A) (A)
 Beta  Orbitals:
       Occupied  (A) (A) (A) (A) (A) (A) (A) (A) (A) (A) (A) (A)
       Virtual   (A) (A) (A) (A) (A) (A) (A) (A) (A) (A) (A) (A)
                 (A) (A) (A) (A) (A) (A) (A) (A) (A) (A) (A) (A)
                 (A) (A) (A) (A) (A) (A) (A) (A) (A) (A) (A) (A)
                 (A) (A) (A) (A) (A) (A) (A) (A) (A) (A) (A) (A)
                 (A) (A) (A) (A) (A) (A) (A) (A) (A) (A) (A) (A)
                 (A) (A) (A) (A) (A) (A) (A) (A) (A) (A) (A) (A)
                 (A) (A) (A) (A) (A) (A) (A) (A) (A) (A) (A) (A)
                 (A) (A) (A) (A) (A) (A) (A) (A) (A) (A) (A) (A)
                 (A) (A) (A) (A) (A) (A) (A) (A) (A) (A) (A) (A)
 Initial guess <Sx>= 0.0000 <Sy>= 0.0000 <Sz>= 1.0000 <S**2>= 2.0125 S= 1.0042
 Harris functional with IExCor= 1009 diagonalized for initial guess.
 ExpMin= 8.45D-02 ExpMax= 8.59D+03 ExpMxC= 1.30D+03 IAcc=2 IRadAn=         0 AccDes= 0.00D+00
 HarFok:  IExCor= 1009 AccDes= 0.00D+00 IRadAn=         0 IDoV= 1
 ScaDFX=  1.000000  1.000000  1.000000  1.000000
 FoFCou: FMM=F IPFlag=           0 FMFlag=      100000 FMFlg1=           0
         NFxFlg=           0 DoJE=T BraDBF=F KetDBF=T FulRan=T
         Omega=  0.000000  0.000000  1.000000  0.000000  0.000000 ICntrl=     500 IOpCl=  0
         NMat0=    1 NMatS0=    1 NMatT0=    0 NMatD0=    1 NMtDS0=    0 NMtDT0=    0
         I1Cent=           4 NGrid=           0.
 Petite list used in FoFCou.
 Requested convergence on RMS density matrix=1.00D-08 within 128 cycles.
 Requested convergence on MAX density matrix=1.00D-06.
 Requested convergence on             energy=1.00D-06.
 No special actions if energy rises.
 Keep R1 and R2 ints in memory in canonical form, NReq=86340378.
 Integral accuracy reduced to 1.0D-05 until final iterations.
 Initial convergence to 1.0D-05 achieved.  Increase integral accuracy.
 Rare condition: small coef for last iteration:  0.000D+00
 Rare condition: small coef for last iteration:  0.000D+00
 Rare condition: small coef for last iteration:  0.000D+00
 SCF Done:  E(UM062X) =  -226.632256748     A.U. after   48 cycles
             Convg  =    0.3704D-08             -V/T =  2.0022
 <Sx>= 0.0000 <Sy>= 0.0000 <Sz>= 1.0000 <S**2>= 2.0103 S= 1.0034
 <L.S>= 0.000000000000E+00
 Annihilation of the first spin contaminant:
 S**2 before annihilation     2.0103,   after     2.0001
 Calling FoFJK, ICntrl=      2127 FMM=F ISym2X=0 I1Cent= 0 IOpClX= 1 NMat=1 NMatS=1 NMatT=0.
 ***** Axes restored to original set *****
 -------------------------------------------------------------------
 Center     Atomic                   Forces (Hartrees/Bohr)
 Number     Number              X              Y              Z
 -------------------------------------------------------------------
      1        8           0.004513929    0.015082029   -0.011908099
      2        8           0.000161187   -0.010471012    0.004482328
      3        1          -0.014333895   -0.002743521    0.007336124
      4        8           0.011314866   -0.000587336   -0.001514161
      5        1          -0.001656087   -0.001280160    0.001603809
 -------------------------------------------------------------------
 Cartesian Forces:  Max     0.015082029 RMS     0.007847840

 GradGradGradGradGradGradGradGradGradGradGradGradGradGradGradGradGradGrad
 Berny optimization.
 Internal  Forces:  Max     0.011137576 RMS     0.006500508
 Search for a saddle point.
 Step number   6 out of a maximum of   20
 All quantities printed in internal units (Hartrees-Bohrs-Radians)
 Swaping is turned off.
 Update second derivatives using D2CorX and points    5    6
 The second derivative matrix:
                          R1        R2        R3        R4        A1
           R1           0.47397
           R2           0.07968   0.37479
           R3          -0.03209   0.05491   0.00361
           R4          -0.00654   0.00458  -0.00203   0.50716
           A1           0.05004  -0.00028   0.00596  -0.00386   0.35950
           A2           0.00423   0.00004   0.00868   0.00014  -0.00734
           A3          -0.01865   0.01140  -0.00825   0.00302   0.02969
           D1          -0.00123   0.00140  -0.00422   0.00087  -0.01669
           D2          -0.00636   0.00248  -0.00670  -0.00109   0.00788
                          A2        A3        D1        D2
           A2           0.01893
           A3          -0.00197   0.02130
           D1          -0.00429   0.00312   0.00409
           D2          -0.00495   0.00339  -0.00139   0.00393
 ITU=  0  0  0  0  0  0
     Eigenvalues ---   -0.01714  -0.00078   0.00490   0.01711   0.03016
     Eigenvalues ---    0.32709   0.36867   0.50664   0.53062
 Eigenvectors required to have negative eigenvalues:
                          R3        A3        D2        A2        R2
   1                    0.87746   0.28766   0.26911  -0.17148  -0.15458
[...]
   XY=             -2.6232   XZ=              0.0036   YZ=             -0.0013
 Traceless Quadrupole moment (field-independent basis, Debye-Ang):
   XX=             -1.7616   YY=              1.8913   ZZ=             -0.1297
   XY=             -2.6232   XZ=              0.0036   YZ=             -0.0013
 Octapole moment (field-independent basis, Debye-Ang**2):
  XXX=             -2.2306  YYY=              1.9613  ZZZ=              0.0002  XYY=             -4.0530
  XXY=              4.1009  XXZ=             -0.0120  XZZ=              1.5009  YZZ=              0.1756
  YYZ=              0.0009  XYZ=              0.0008
 Hexadecapole moment (field-independent basis, Debye-Ang**3):
 XXXX=           -181.6593 YYYY=            -37.6299 ZZZZ=            -14.1625 XXXY=             -9.8511
 XXXZ=              0.0407 YYYX=             -2.9908 YYYZ=             -0.0010 ZZZX=              0.0030
 ZZZY=             -0.0007 XXYY=            -32.6955 XXZZ=            -34.1630 YYZZ=             -9.2162
 XXYZ=             -0.0006 YYXZ=              0.0002 ZZXY=             -0.1691
 N-N= 6.804512308188D+01 E-N=-9.937789255758D+02  KE= 3.359235212759D+02
  Exact polarizability:  52.776   1.205  20.928  -0.002   0.002  14.712
 Approx polarizability:  36.387   3.694  25.067  -0.001   0.000  13.785
                          Isotropic Fermi Contact Couplings
        Atom                 a.u.       MegaHertz       Gauss      10(-4) cm-1
     1  O(17)              0.05213     -15.79948      -5.63765      -5.27014
     2  O(17)              0.11563     -35.04643     -12.50544     -11.69023
     3  H(1)              -0.02770     -61.91252     -22.09193     -20.65179
     4  O(17)              0.10882     -32.98367     -11.76939     -11.00217
     5  H(1)              -0.01414     -31.60526     -11.27754     -10.54238
 --------------------------------------------------------
       Center         ----  Spin Dipole Couplings  ----
                      3XX-RR        3YY-RR        3ZZ-RR
 --------------------------------------------------------
     1   Atom       -0.211922     -1.130702      1.342624
     2   Atom       -1.356198     -1.676971      3.033169
     3   Atom        0.200863     -0.093438     -0.107425
     4   Atom        3.265831     -1.552802     -1.713028
     5   Atom       -0.013916      0.141165     -0.127249
 --------------------------------------------------------
                        XY            XZ            YZ
 --------------------------------------------------------
     1   Atom       -0.324865      0.001585     -0.000746
     2   Atom       -0.081002      0.004649     -0.001994
     3   Atom       -0.045171     -0.000201     -0.000008
     4   Atom       -0.891984      0.019026     -0.003395
     5   Atom        0.032978      0.000332      0.000038
 --------------------------------------------------------


 ---------------------------------------------------------------------------------
              Anisotropic Spin Dipole Couplings in Principal Axis System
 ---------------------------------------------------------------------------------

       Atom             a.u.   MegaHertz   Gauss  10(-4) cm-1        Axes

              Baa    -1.2340    89.289    31.860    29.784  0.3029  0.9530  0.0001
     1 O(17)  Bbb    -0.1087     7.863     2.806     2.623  0.9530 -0.3029 -0.0012
              Bcc     1.3426   -97.152   -34.666   -32.406  0.0011 -0.0004  1.0000
 
              Baa    -1.6963   122.741    43.797    40.942  0.2317  0.9728  0.0002
     2 O(17)  Bbb    -1.3369    96.738    34.518    32.268  0.9728 -0.2317 -0.0011
              Bcc     3.0332  -219.478   -78.315   -73.210  0.0011 -0.0004  1.0000
 
              Baa    -0.1074   -57.317   -20.452   -19.119  0.0014  0.0051  1.0000
     3 H(1)   Bbb    -0.1002   -53.470   -19.079   -17.836  0.1484  0.9889 -0.0053
              Bcc     0.2076   110.787    39.531    36.954  0.9889 -0.1484 -0.0006
 
              Baa    -1.7131   123.959    44.232    41.348 -0.0086 -0.0267  0.9996
     4 O(17)  Bbb    -1.7126   123.924    44.219    41.337  0.1762  0.9840  0.0278
              Bcc     3.4257  -247.883   -88.451   -82.685  0.9843 -0.1764  0.0038
 
              Baa    -0.1272   -67.895   -24.226   -22.647 -0.0030  0.0002  1.0000
     5 H(1)   Bbb    -0.0206   -11.011    -3.929    -3.673  0.9799 -0.1997  0.0030
              Bcc     0.1479    78.905    28.155    26.320  0.1997  0.9799  0.0004
 

 ---------------------------------------------------------------------------------

 Calling FoFJK, ICntrl=    100127 FMM=F ISym2X=0 I1Cent= 0 IOpClX= 1 NMat=1 NMatS=1 NMatT=0.
 Full mass-weighted force constant matrix:
 Low frequencies --- -947.6285 -685.2929   -0.0017   -0.0007    0.0007    9.1411
 Low frequencies ---   41.1788   72.1687  114.6787
 ******    2 imaginary frequencies (negative Signs) ****** 
 Harmonic frequencies (cm**-1), IR intensities (KM/Mole), Raman scattering
 activities (A**4/AMU), depolarization ratios for plane and unpolarized
 incident light, reduced masses (AMU), force constants (mDyne/A),
 and normal coordinates:
                     1                      2                      3
                     A                      A                      A
 Frequencies --  -945.9481              -685.2852               113.4147
 Red. masses --     1.0563                 3.3902                 3.5438
 Frc consts  --     0.5569                 0.9380                 0.0269
 IR Inten    --   351.0686               796.3783                34.8732
  Atom  AN      X      Y      Z        X      Y      Z        X      Y      Z
     1   8     0.00   0.00   0.05     0.24  -0.19   0.00     0.00   0.07   0.00
     2   8     0.00   0.00  -0.01    -0.08   0.09   0.00     0.31  -0.03   0.00
     3   1    -0.01   0.01  -1.00     0.68  -0.58  -0.03     0.03   0.30   0.00
     4   8     0.00   0.00   0.02    -0.19   0.12   0.00    -0.26  -0.06   0.00
     5   1     0.00   0.00   0.02    -0.14   0.13   0.00    -0.86   0.05   0.00
                     4                      5                      6
                     A                      A                      A
 Frequencies --   170.5816               444.8335              1187.0459
 Red. masses --     1.1457                 1.3088                11.1685
 Frc consts  --     0.0196                 0.1526                 9.2722
 IR Inten    --   138.8975               277.2392               505.8843
  Atom  AN      X      Y      Z        X      Y      Z        X      Y      Z
     1   8     0.00   0.00  -0.05     0.01   0.04   0.00     0.41   0.40   0.00
     2   8     0.00   0.00   0.05     0.06   0.00   0.00    -0.28  -0.50   0.00
     3   1     0.00   0.00  -0.04    -0.01   0.00   0.00    -0.27   0.46   0.01
     4   8     0.00   0.00   0.07    -0.12  -0.02   0.00    -0.10   0.07   0.00
     5   1     0.00   0.00  -0.99     0.96  -0.22   0.00    -0.17   0.06   0.00
                     7                      8                      9
                     A                      A                      A
 Frequencies --  1485.7877              2365.2871              3763.6285
 Red. masses --     1.2171                 1.1719                 1.0666
 Frc consts  --     1.5830                 3.8629                 8.9013
 IR Inten    --   126.1466              1858.3103                56.9394
  Atom  AN      X      Y      Z        X      Y      Z        X      Y      Z
     1   8    -0.04   0.10   0.00    -0.07   0.05   0.00     0.00   0.00   0.00
     2   8     0.03  -0.04   0.00    -0.01  -0.05   0.00     0.00   0.00   0.00
     3   1     0.00  -0.99   0.00     0.98   0.15   0.00     0.03   0.00   0.00
     4   8     0.01   0.00   0.00     0.02  -0.02   0.00     0.01   0.06   0.00
     5   1    -0.06   0.01   0.00     0.04   0.01   0.00    -0.18  -0.98   0.00

 -------------------
 - Thermochemistry -
 -------------------
 Temperature   298.150 Kelvin.  Pressure   1.00000 Atm.
 Atom     1 has atomic number  8 and mass  15.99491
 Atom     2 has atomic number  8 and mass  15.99491
 Atom     3 has atomic number  1 and mass   1.00783
 Atom     4 has atomic number  8 and mass  15.99491
 Atom     5 has atomic number  1 and mass   1.00783
 Molecular mass:    50.00039 amu.
 Principal axes and moments of inertia in atomic units:
                           1         2         3
     Eigenvalues --    46.38830 286.40454 332.79283
           X            0.99981  -0.01973  -0.00001
           Y            0.01973   0.99981  -0.00002
           Z            0.00001   0.00002   1.00000
 This molecule is an asymmetric top.
 Rotational symmetry number  1.
 Rotational temperatures (Kelvin)      1.86715     0.30242     0.26026
 Rotational constants (GHZ):          38.90509     6.30137     5.42302
    2 imaginary frequencies ignored.
 Zero-point vibrational energy      57005.5 (Joules/Mol)
                                   13.62465 (Kcal/Mol)
 Warning -- explicit consideration of   3 degrees of freedom as
           vibrations may cause significant error
 Vibrational temperatures:    163.18   245.43   640.02  1707.89  2137.71
          (Kelvin)           3403.12  5415.02
 
 Zero-point correction=                           0.021712 (Hartree/Particle)
 Thermal correction to Energy=                    0.026154
 Thermal correction to Enthalpy=                  0.027098
 Thermal correction to Gibbs Free Energy=        -0.005852
 Sum of electronic and zero-point Energies=           -226.612241
 Sum of electronic and thermal Energies=              -226.607800
 Sum of electronic and thermal Enthalpies=            -226.606856
 Sum of electronic and thermal Free Energies=         -226.639806
 
                     E (Thermal)             CV                S
                      KCal/Mol        Cal/Mol-Kelvin    Cal/Mol-Kelvin
 Total                   16.412             11.446             69.349
 Electronic               0.000              0.000              2.183
 Translational            0.889              2.981             37.652
 Rotational               0.889              2.981             23.007
 Vibrational             14.634              5.484              6.507
 Vibration     1          0.607              1.938              3.210
 Vibration     2          0.626              1.879              2.429
 Vibration     3          0.804              1.372              0.812
                       Q            Log10(Q)             Ln(Q)
 Total Bot       0.491757D+03          2.691751          6.197986
 Total V=0       0.477171D+13         12.678674         29.193726
 Vib (Bot)       0.495549D-09         -9.304913        -21.425355
 Vib (Bot)    1  0.180454D+01          0.256366          0.590304
 Vib (Bot)    2  0.118118D+01          0.072316          0.166515
 Vib (Bot)    3  0.387121D+00         -0.412154         -0.949019
 Vib (V=0)       0.480851D+01          0.682010          1.570386
 Vib (V=0)    1  0.237253D+01          0.375211          0.863955
 Vib (V=0)    2  0.178265D+01          0.251066          0.578101
 Vib (V=0)    3  0.113235D+01          0.053979          0.124292
 Electronic      0.300000D+01          0.477121          1.098612
 Translational   0.138968D+08          7.142915         16.447170
 Rotational      0.238028D+05          4.376628         10.077557
 ***** Axes restored to original set *****
 -------------------------------------------------------------------
 Center     Atomic                   Forces (Hartrees/Bohr)
 Number     Number              X              Y              Z
 -------------------------------------------------------------------
      1        8           0.000033164   -0.000109351    0.000083937
      2        8          -0.000025544    0.000010418   -0.000011116
      3        1          -0.000010499    0.000049823   -0.000072015
      4        8          -0.000013904    0.000044459    0.000003676
      5        1           0.000016783    0.000004652   -0.000004483
 -------------------------------------------------------------------
 Cartesian Forces:  Max     0.000109351 RMS     0.000045660

 GradGradGradGradGradGradGradGradGradGradGradGradGradGradGradGradGradGrad
 Berny optimization.
 Internal  Forces:  Max     0.000116064 RMS     0.000041281
 Search for a saddle point.
 Step number   1 out of a maximum of    2
 All quantities printed in internal units (Hartrees-Bohrs-Radians)
 Swaping is turned off.
 Second derivative matrix not updated -- analytic derivatives used.
 The second derivative matrix:
                          R1        R2        R3        R4        A1
           R1           0.50030
           R2           0.08479   0.33228
           R3          -0.04694   0.08446  -0.01453
           R4          -0.00659   0.00639  -0.00428   0.50831
           A1           0.11108  -0.03286   0.03108   0.00497   0.23137
           A2           0.02165  -0.01059   0.02128   0.00342  -0.00201
           A3          -0.01307   0.00515  -0.00508   0.00969  -0.00708
           D1          -0.00009   0.00010  -0.00003   0.00006  -0.00002
           D2          -0.00005  -0.00001  -0.00002   0.00000   0.00003
                          A2        A3        D1        D2
           A2           0.01202
           A3          -0.00906   0.02104
           D1           0.00013   0.00006   0.00203
           D2          -0.00002   0.00000   0.00570   0.00418
 ITU=  0
     Eigenvalues ---   -0.06191  -0.00270   0.00890   0.01027   0.03094
     Eigenvalues ---    0.19160   0.34842   0.50873   0.56275
 Eigenvectors required to have negative eigenvalues:
                          R3        A2        R2        A1        R1
   1                    0.87514  -0.33492  -0.24700  -0.18273   0.16042
                          A3        R4        D1        D2
   1                    0.04039   0.01410   0.00155   0.00021
 Eigenvalue     2 is  -2.70D-03 should be greater than     0.000000 Eigenvector:
                          D1        D2        A2        A3        R3
   1                    0.76991  -0.63809  -0.00576  -0.00503  -0.00287
                          A1        R2        R1        R4
   1                    0.00054   0.00050  -0.00029   0.00000
 Angle between quadratic step and forces=  75.89 degrees.
 Linear search not attempted -- option 19 set.
 Iteration  1 RMS(Cart)=  0.00100938 RMS(Int)=  0.00000603
 Iteration  2 RMS(Cart)=  0.00000209 RMS(Int)=  0.00000000
 Iteration  3 RMS(Cart)=  0.00000000 RMS(Int)=  0.00000000
 Variable       Old X    -DE/DX   Delta X   Delta X   Delta X     New X
                                 (Linear)    (Quad)   (Total)
    R1        2.43270  -0.00003   0.00000  -0.00011  -0.00011   2.43258
    R2        1.90392  -0.00001   0.00000   0.00000   0.00000   1.90392
    R3        2.95998  -0.00001   0.00000   0.00005   0.00005   2.96003
    R4        1.83781   0.00002   0.00000   0.00004   0.00004   1.83785
    A1        1.88437   0.00012   0.00000   0.00053   0.00053   1.88490
    A2        2.77686  -0.00002   0.00000  -0.00142  -0.00142   2.77543
    A3        1.78330   0.00001   0.00000  -0.00024  -0.00024   1.78306
    D1        0.00483  -0.00001   0.00000  -0.00425  -0.00425   0.00058
    D2       -0.00501   0.00001   0.00000   0.00290   0.00290  -0.00211
         Item               Value     Threshold  Converged?
 Maximum Force            0.000116     0.000450     YES
 RMS     Force            0.000041     0.000300     YES
 Maximum Displacement     0.001620     0.001800     YES
 RMS     Displacement     0.001009     0.001200     YES
 Predicted change in Energy=-1.516615D-07
 Optimization completed.
    -- Stationary point found.
                           ----------------------------
                           !   Optimized Parameters   !
                           ! (Angstroms and Degrees)  !
 --------------------------                            --------------------------
 ! Name  Definition              Value          Derivative Info.                !
 --------------------------------------------------------------------------------
 ! R1    R(1,2)                  1.2873         -DE/DX =    0.0                 !
 ! R2    R(1,3)                  1.0075         -DE/DX =    0.0                 !
 ! R3    R(3,4)                  1.5664         -DE/DX =    0.0                 !
 ! R4    R(4,5)                  0.9725         -DE/DX =    0.0                 !
 ! A1    A(2,1,3)              107.9665         -DE/DX =    0.0001              !
 ! A2    A(1,3,4)              159.1022         -DE/DX =    0.0                 !
 ! A3    A(3,4,5)              102.1757         -DE/DX =    0.0                 !
 ! D1    D(2,1,3,4)              0.2767         -DE/DX =    0.0                 !
 ! D2    D(1,3,4,5)             -0.2869         -DE/DX =    0.0                 !
 --------------------------------------------------------------------------------
 GradGradGradGradGradGradGradGradGradGradGradGradGradGradGradGradGradGrad

 1\1\GINC-COMPUTE-3-046\Freq\UM062X\6-311+G(2df,2p)\H2O3(3)\ROOT\31-Jul
 -2017\0\\#N Geom=AllCheck Guess=TCheck SCRF=Check GenChk UM062X/6-311+
 G(2df,2p) Freq\\[OH]+[O]O_O+[O][O]\\0,3\O,-0.7015892588,0.5661611721,-
 0.1684187696\O,-1.091041095,-0.5766147392,0.2783485271\H,0.3048988974,
 0.5886756261,-0.1289462099\O,1.7701459831,0.1030035654,0.1368283804\H,
 1.6284964733,-0.7903666244,0.494088072\\Version=EM64L-G09RevB.01\State
 =3-A\HF=-226.6339538\S2=2.013939\S2-1=0.\S2A=2.000101\RMSD=2.738e-10\R
 MSF=4.566e-05\ZeroPoint=0.0217123\Thermal=0.0261536\Dipole=0.6179637,-
 0.271174,0.1402423\DipoleDeriv=1.1529131,-0.1667359,0.1426262,1.508825
 6,-0.408785,0.0919919,-0.5421402,0.0130384,-0.3880624,-0.2036971,0.190
 3718,-0.0833752,-1.2583292,0.1496831,-0.1601853,0.5076931,-0.0908065,-
 0.0343895,-1.6778952,-0.0203328,-0.1018639,0.2681396,0.2892515,0.13865
 1,-0.2179544,0.1231534,0.5333108,0.2020699,0.0261449,0.0234886,-0.2961
 573,-0.2696972,-0.1106485,0.1548023,-0.0936886,-0.4572867,0.5266093,-0
 .0294481,0.0191243,-0.2224787,0.2395476,0.040191,0.0975992,0.0483033,0
 .3464278\Polar=52.5183531,3.1249202,20.2948838,0.5158486,-2.1266919,15
 .6031779\PG=C01 [X(H2O3)]\NImag=2\\0.41395837,0.01894456,0.37526666,0.
 01314462,-0.15650957,0.05323421,-0.09483589,-0.10130086,0.03647115,0.1
 0739425,-0.08124046,-0.34738872,0.13862813,0.15947961,0.37650210,0.028
 27804,0.13776184,-0.05192099,-0.05978495,-0.14541295,0.05690744,-0.241
 82242,0.12572214,-0.06422974,-0.01294645,-0.11635275,0.04721677,0.1718
 2703,0.02605849,-0.05429436,0.03231361,-0.05345629,-0.00595608,-0.0032
 4017,0.03489795,0.06058130,-0.02394205,0.03688991,0.00522898,0.0216321
 2,-0.00601809,-0.00393093,-0.00377743,-0.03656222,-0.01777001,-0.07210
 974,-0.03825920,0.01285974,-0.00314832,0.03358367,-0.01408410,0.077650
 90,-0.01169292,0.00748598,0.01673324,0.02906517,0.01830715,-0.01157705
 ,-0.00402214,-0.01625297,0.00842806,-0.03286354,0.00155834,0.00514902,
 0.07400267,0.42574966,-0.01433825,-0.01463542,-0.00779315,0.00120831,0
 .01010281,0.00072817,0.01597032,0.00606136,0.01565109,-0.02892062,-0.1
 7322288,0.06145373,-0.00519032,-0.00510664,0.00175423,0.00353640,0.004
 52993,-0.00162576,0.00529094,0.00419276,-0.00139861,-0.01912608,-0.066
 18216,0.02608025,0.01548906,0.00717224,0.00810927,-0.00285512,-0.00070
 032,-0.00690433,0.00246322,-0.01140380,-0.00188920,0.00054139,-0.05763
 423,-0.42936219,0.17169414,0.06256611,0.43004645,-0.00314236,-0.003506
 76,0.00125095,0.00047338,0.00270010,-0.00178370,0.00482009,0.00142743,
 0.00082086,0.02265901,0.17122286,-0.07003985,-0.02481011,-0.17184363,0
 .06975173\\-0.00003316,0.00010935,-0.00008394,0.00002554,-0.00001042,0
 .00001112,0.00001050,-0.00004982,0.00007201,0.00001390,-0.00004446,-0.
 00000368,-0.00001678,-0.00000465,0.00000448\\\@


0EVERYBODY IS IGNORANT, ONLY ON DIFFERENT SUBJECTS.
0          WILL ROGERS
 Job cpu time:  0 days  0 hours 18 minutes 28.0 seconds.
 File lengths (MBytes):  RWF=   1440 Int=      0 D2E=      0 Chk=     32 Scr=     32
 Normal termination of Gaussian 09 at Mon Jul 31 11:00:32 2017.
