 Entering Gaussian System, Link 0=/shared/apps/gaussian/G09_LINUX_LINDA/g09/g09
 Input=/gss_gpfs_scratch/harms.n/QMscratch/[OH]+[O]OC=O_O=COO+[O]IRC.gjf
 Output=/gss_gpfs_scratch/harms.n/QMscratch/[OH]+[O]OC=O_O=COO+[O]IRC.log
 Initial command:
 /shared/apps/gaussian/G09_LINUX_LINDA/g09/l1.exe /gss_gpfs_scratch/harms.n/comparerTST/Gau-18557.inp -scrdir=/gss_gpfs_scratch/harms.n/comparerTST/
 Entering Link 1 = /shared/apps/gaussian/G09_LINUX_LINDA/g09/l1.exe PID=     18558.
  
 Copyright (c) 1988,1990,1992,1993,1995,1998,2003,2009,2010,
            Gaussian, Inc.  All Rights Reserved.
  
 This is part of the Gaussian(R) 09 program.  It is based on
 the Gaussian(R) 03 system (copyright 2003, Gaussian, Inc.),
 the Gaussian(R) 98 system (copyright 1998, Gaussian, Inc.),
 the Gaussian(R) 94 system (copyright 1995, Gaussian, Inc.),
 the Gaussian 92(TM) system (copyright 1992, Gaussian, Inc.),
 the Gaussian 90(TM) system (copyright 1990, Gaussian, Inc.),
 the Gaussian 88(TM) system (copyright 1988, Gaussian, Inc.),
 the Gaussian 86(TM) system (copyright 1986, Carnegie Mellon
 University), and the Gaussian 82(TM) system (copyright 1983,
 Carnegie Mellon University). Gaussian is a federally registered
 trademark of Gaussian, Inc.
  
 This software contains proprietary and confidential information,
 including trade secrets, belonging to Gaussian, Inc.
  
 This software is provided under written license and may be
 used, copied, transmitted, or stored only in accord with that
 written license.
  
 The following legend is applicable only to US Government
 contracts under FAR:
  
                    RESTRICTED RIGHTS LEGEND
  
 Use, reproduction and disclosure by the US Government is
 subject to restrictions as set forth in subparagraphs (a)
 and (c) of the Commercial Computer Software - Restricted
 Rights clause in FAR 52.227-19.
  
 Gaussian, Inc.
 340 Quinnipiac St., Bldg. 40, Wallingford CT 06492
  
  
 ---------------------------------------------------------------
 Warning -- This program may not be used in any manner that
 competes with the business of Gaussian, Inc. or will provide
 assistance to any competitor of Gaussian, Inc.  The licensee
 of this program is prohibited from giving any competitor of
 Gaussian, Inc. access to this program.  By using this program,
 the user acknowledges that Gaussian, Inc. is engaged in the
 business of creating and licensing software in the field of
 computational chemistry and represents and warrants to the
 licensee that it is not a competitor of Gaussian, Inc. and that
 it will not use this program in any manner prohibited above.
 ---------------------------------------------------------------
  

 Cite this work as:
 Gaussian 09, Revision B.01,
 M. J. Frisch, G. W. Trucks, H. B. Schlegel, G. E. Scuseria, 
 M. A. Robb, J. R. Cheeseman, G. Scalmani, V. Barone, B. Mennucci, 
 G. A. Petersson, H. Nakatsuji, M. Caricato, X. Li, H. P. Hratchian, 
 A. F. Izmaylov, J. Bloino, G. Zheng, J. L. Sonnenberg, M. Hada, 
 M. Ehara, K. Toyota, R. Fukuda, J. Hasegawa, M. Ishida, T. Nakajima, 
 Y. Honda, O. Kitao, H. Nakai, T. Vreven, J. A. Montgomery, Jr., 
 J. E. Peralta, F. Ogliaro, M. Bearpark, J. J. Heyd, E. Brothers, 
 K. N. Kudin, V. N. Staroverov, T. Keith, R. Kobayashi, J. Normand, 
 K. Raghavachari, A. Rendell, J. C. Burant, S. S. Iyengar, J. Tomasi, 
 M. Cossi, N. Rega, J. M. Millam, M. Klene, J. E. Knox, J. B. Cross, 
 V. Bakken, C. Adamo, J. Jaramillo, R. Gomperts, R. E. Stratmann, 
 O. Yazyev, A. J. Austin, R. Cammi, C. Pomelli, J. W. Ochterski, 
 R. L. Martin, K. Morokuma, V. G. Zakrzewski, G. A. Voth, 
 P. Salvador, J. J. Dannenberg, S. Dapprich, A. D. Daniels, 
 O. Farkas, J. B. Foresman, J. V. Ortiz, J. Cioslowski, 
 and D. J. Fox, Gaussian, Inc., Wallingford CT, 2010.
 
 ******************************************
 Gaussian 09:  EM64L-G09RevB.01 12-Aug-2010
                 1-Aug-2017 
 ******************************************
 %nprocshared=20
 Will use up to   20 processors via shared memory.
 %mem=5GB
 %chk=/gss_gpfs_scratch/harms.n/QMscratch/[OH]+[O]OC=O_O=COO+[O]
 ----------------------------------------------------------------------
 # m062x/6-311+g(2df,2p) irc=(calcall,report=read) geom=allcheck guess=
 check nosymm
 ----------------------------------------------------------------------
 1/10=4,14=-1,18=10,26=3,29=7,38=1,44=3,71=1,129=1/1,23;
 2/12=2,15=1,29=1,40=1/2;
 3/5=4,6=6,7=214,11=2,14=-4,16=1,25=1,30=1,71=2,74=-55,116=-2/1,2,3;
 4/5=1/1;
 5/5=2,38=6/2;
 8/6=4,10=90,11=11/1;
 11/6=1,8=1,9=11,15=111,16=1,31=1/1,2,10;
 10/6=1,31=1/2;
 6/7=2,8=2,9=2,10=2,18=1,28=1/1;
 7/10=1,25=1,30=1/1,2,3,16;
 1/10=4,14=-1,18=10,44=3,71=1,129=1/23(3);
 2/15=1,29=1/2;
 7/8=1,9=1,25=1,30=1,44=-1/16;
 99/5=20/99;
 2/15=1,29=1/2;
 3/5=4,6=6,7=214,11=2,14=-2,16=1,25=1,30=1,71=2,74=-55/1,2,3;
 4/5=5,16=3/1;
 5/5=2,38=5/2;
 8/6=4,10=90,11=11/1;
 11/6=1,8=1,9=11,15=111,16=1,31=1/1,2,10;
 10/6=1,31=1/2;
 7/10=1,25=1,30=1/1,2,3,16;
 1/10=4,14=-1,18=10,44=3,71=1,129=1/23(-8);
 2/15=1,29=1/2;
 6/7=2,8=2,9=2,10=2,18=1,19=2,28=1/1;
 7/8=1,9=1,25=1,30=1,44=-1/16;
 99/5=20/99;
 ----------------------
 [OH]+[O]OC=O_O=COO+[O]
 ----------------------
 Redundant internal coordinates taken from checkpoint file:
 /gss_gpfs_scratch/harms.n/QMscratch/[OH]+[O]OC=O_O=COO+[O].chk
 Charge =  0 Multiplicity = 3
 O,0,-1.8418360467,-0.6552896094,-0.3180878597
 H,0,-1.1977204232,0.1672986003,0.2744394658
 C,0,1.202586827,-0.2510086524,-0.2104563248
 O,0,0.5760988656,0.9574833407,-0.3232674804
 O,0,0.7803265605,-1.1740267129,0.3963715403
 H,0,2.1194519218,-0.201331406,-0.8058146032
 O,0,-0.519909705,1.0548494396,0.4806212619
 Recover connectivity data from disk.
 IRC-IRC-IRC-IRC-IRC-IRC-IRC-IRC-IRC-IRC-IRC-IRC-IRC-IRC-IRC-IRC-IRC-IRC
 Reading IRC summary table definitions from input file.
 ------------------------------------------------------------------------
 INPUT DATA FOR L123
 ------------------------------------------------------------------------
 GENERAL PARAMETERS:
 Follow reaction path in both directions.
 Maximum points per path      =  10
 Step size                    =   0.100 bohr
 Integration scheme           = HPC                                 
    Redo corrector integration= Yes                                 
    Max correction cycles     =  20
 Initial Hessian              = CalcFC
 Hessian evaluation           = Full Hessian always
 ------------------------------------------------------------------------
 IRC-IRC-IRC-IRC-IRC-IRC-IRC-IRC-IRC-IRC-IRC-IRC-IRC-IRC-IRC-IRC-IRC-IRC
                          Input orientation:                          
 ---------------------------------------------------------------------
 Center     Atomic      Atomic             Coordinates (Angstroms)
 Number     Number       Type             X           Y           Z
 ---------------------------------------------------------------------
      1          8           0       -1.841836   -0.655290   -0.318088
      2          1           0       -1.197720    0.167299    0.274439
      3          6           0        1.202587   -0.251009   -0.210456
      4          8           0        0.576099    0.957483   -0.323267
      5          8           0        0.780327   -1.174027    0.396372
      6          1           0        2.119452   -0.201331   -0.805815
      7          8           0       -0.519910    1.054849    0.480621
 ---------------------------------------------------------------------
                    Distance matrix (angstroms):
                    1          2          3          4          5
     1  O    0.000000
     2  H    1.201093   0.000000
     3  C    3.073034   2.484266   0.000000
     4  O    2.906454   2.031768   1.365894   0.000000
     5  O    2.766817   2.393051   1.182585   2.258965   0.000000
     6  H    4.016934   3.508058   1.094331   1.989382   2.045640
     7  O    2.304344   1.135643   2.269328   1.362700   2.581783
                    6          7
     6  H    0.000000
     7  O    3.193609   0.000000
 Symmetry turned off by external request.
 Stoichiometry    CH2O4(3)
 Framework group  C1[X(CH2O4)]
 Deg. of freedom    15
 Full point group                 C1      NOp   1
 Rotational constants (GHZ):      6.9335251      4.6919751      3.1742234
 Standard basis: 6-311+G(2df,2p) (5D, 7F)
 Integral buffers will be    131072 words long.
 Raffenetti 2 integral format.
 Two-electron integral symmetry is turned off.
   188 basis functions,   282 primitive gaussians,   213 cartesian basis functions
    21 alpha electrons       19 beta electrons
       nuclear repulsion energy       173.0994781576 Hartrees.
 NAtoms=    7 NActive=    7 NUniq=    7 SFac= 1.00D+00 NAtFMM=   50 NAOKFM=F Big=F
 One-electron integrals computed using PRISM.
 NBasis=   188 RedAO= T  NBF=   188
 NBsUse=   188 1.00D-06 NBFU=   188
 Initial guess read from the checkpoint file:  /gss_gpfs_scratch/harms.n/QMscratch/[OH]+[O]OC=O_O=COO+[O].chk
 B after Tr=     0.004473   -0.003588    0.004298
         Rot=    0.999996   -0.000985    0.001281    0.002119 Ang=   0.31 deg.
 Initial guess <Sx>= 0.0000 <Sy>= 0.0000 <Sz>= 1.0000 <S**2>= 2.0184 S= 1.0061
 Requested convergence on RMS density matrix=1.00D-08 within 128 cycles.
 Requested convergence on MAX density matrix=1.00D-06.
 Requested convergence on             energy=1.00D-06.
 No special actions if energy rises.
 Keep R1 and R2 ints in memory in canonical form, NReq=524572698.
 SCF Done:  E(UM062X) =  -339.927059057     A.U. after   12 cycles
             Convg  =    0.7168D-08             -V/T =  2.0026
 <Sx>= 0.0000 <Sy>= 0.0000 <Sz>= 1.0000 <S**2>= 2.0184 S= 1.0061
 <L.S>= 0.000000000000E+00
 Annihilation of the first spin contaminant:
 S**2 before annihilation     2.0184,   after     2.0001
 Range of M.O.s used for correlation:     1   188
 NBasis=   188 NAE=    21 NBE=    19 NFC=     0 NFV=     0
 NROrb=    188 NOA=    21 NOB=    19 NVA=   167 NVB=   169

 **** Warning!!: The largest alpha MO coefficient is  0.12514290D+02


 **** Warning!!: The largest beta MO coefficient is  0.15653431D+02

 Symmetrizing basis deriv contribution to polar:
 IMax=3 JMax=2 DiffMx= 0.00D+00
 G2DrvN: will do     8 centers at a time, making    1 passes doing MaxLOS=3.
 Calling FoFCou, ICntrl=  3107 FMM=F I1Cent=   0 AccDes= 0.00D+00.
 FoFDir/FoFCou used for L=0 through L=3.
 End of G2Drv Frequency-dependent properties file   721 does not exist.
 End of G2Drv Frequency-dependent properties file   722 does not exist.
          IDoAtm=1111111
          Differentiating once with respect to electric field.
                with respect to dipole field.
          Differentiating once with respect to nuclear coordinates.
          Keep R1 and R2 ints in memory in canonical form, NReq=521395447.
          There are    24 degrees of freedom in the 1st order CPHF.  IDoFFX=5.
     21 vectors produced by pass  0 Test12= 2.80D-14 4.17D-09 XBig12= 6.29D+01 4.81D+00.
 AX will form    21 AO Fock derivatives at one time.
     21 vectors produced by pass  1 Test12= 2.80D-14 4.17D-09 XBig12= 1.08D+01 5.00D-01.
     21 vectors produced by pass  2 Test12= 2.80D-14 4.17D-09 XBig12= 1.12D+00 1.83D-01.
     21 vectors produced by pass  3 Test12= 2.80D-14 4.17D-09 XBig12= 2.56D-02 2.84D-02.
     21 vectors produced by pass  4 Test12= 2.80D-14 4.17D-09 XBig12= 6.06D-04 3.98D-03.
     21 vectors produced by pass  5 Test12= 2.80D-14 4.17D-09 XBig12= 1.21D-05 5.41D-04.
     21 vectors produced by pass  6 Test12= 2.80D-14 4.17D-09 XBig12= 1.65D-07 4.88D-05.
     18 vectors produced by pass  7 Test12= 2.80D-14 4.17D-09 XBig12= 1.85D-09 5.65D-06.
      6 vectors produced by pass  8 Test12= 2.80D-14 4.17D-09 XBig12= 1.93D-11 4.75D-07.
      3 vectors produced by pass  9 Test12= 2.80D-14 4.17D-09 XBig12= 1.91D-13 6.02D-08.
      1 vectors produced by pass 10 Test12= 2.80D-14 4.17D-09 XBig12= 1.76D-15 6.33D-09.
 Inverted reduced A of dimension   175 with in-core refinement.
 Isotropic polarizability for W=    0.000000       43.93 Bohr**3.
 End of Minotr Frequency-dependent properties file   721 does not exist.
 End of Minotr Frequency-dependent properties file   722 does not exist.

 **********************************************************************

            Population analysis using the SCF density.

 **********************************************************************

 Alpha  occ. eigenvalues --  -19.77413 -19.75575 -19.74210 -19.67270 -10.71388
 Alpha  occ. eigenvalues --   -1.37094  -1.23196  -1.16264  -1.07227  -0.77783
 Alpha  occ. eigenvalues --   -0.68965  -0.65176  -0.62096  -0.57280  -0.55548
 Alpha  occ. eigenvalues --   -0.53880  -0.50351  -0.48048  -0.45482  -0.41478
 Alpha  occ. eigenvalues --   -0.40960
 Alpha virt. eigenvalues --   -0.00123   0.01355   0.03637   0.04546   0.05676
 Alpha virt. eigenvalues --    0.07002   0.13918   0.15422   0.15780   0.17609
 Alpha virt. eigenvalues --    0.17882   0.19196   0.22431   0.22969   0.24292
 Alpha virt. eigenvalues --    0.24896   0.25581   0.25974   0.27694   0.29278
 Alpha virt. eigenvalues --    0.30953   0.32360   0.34757   0.35128   0.37755
 Alpha virt. eigenvalues --    0.46033   0.53018   0.54742   0.56653   0.59390
 Alpha virt. eigenvalues --    0.63623   0.68703   0.71325   0.77710   0.80899
 Alpha virt. eigenvalues --    0.81923   0.88878   0.93902   0.98590   1.00130
 Alpha virt. eigenvalues --    1.01743   1.03013   1.03925   1.06163   1.07745
 Alpha virt. eigenvalues --    1.07970   1.09103   1.11178   1.16212   1.19383
 Alpha virt. eigenvalues --    1.21649   1.26649   1.33904   1.37251   1.41414
 Alpha virt. eigenvalues --    1.44472   1.46053   1.47985   1.51846   1.52959
 Alpha virt. eigenvalues --    1.59059   1.60532   1.63985   1.69149   1.73718
 Alpha virt. eigenvalues --    1.83902   1.90648   1.96121   2.00360   2.04497
 Alpha virt. eigenvalues --    2.07508   2.12540   2.25831   2.32769   2.37645
 Alpha virt. eigenvalues --    2.48047   2.50667   2.55291   2.62544   2.67355
 Alpha virt. eigenvalues --    2.70386   2.75829   2.93483   2.98014   3.01754
 Alpha virt. eigenvalues --    3.13420   3.18173   3.21728   3.31674   3.37607
 Alpha virt. eigenvalues --    3.44117   3.52518   3.54150   3.65151   3.69976
 Alpha virt. eigenvalues --    3.74444   3.79742   3.88218   4.08693   4.10356
 Alpha virt. eigenvalues --    4.31520   4.51901   4.59141   4.73495   4.79561
 Alpha virt. eigenvalues --    4.84291   4.89855   4.94607   4.95074   4.95741
 Alpha virt. eigenvalues --    4.96065   4.97254   4.97944   5.00025   5.02125
 Alpha virt. eigenvalues --    5.03495   5.04803   5.06771   5.08805   5.10192
 Alpha virt. eigenvalues --    5.13313   5.16437   5.19458   5.24204   5.30635
 Alpha virt. eigenvalues --    5.32266   5.37900   5.39194   5.42518   5.48009
 Alpha virt. eigenvalues --    5.48981   5.66119   5.82708   5.88194   6.12188
 Alpha virt. eigenvalues --    6.22677   6.36143   6.52178   6.59008   6.60317
 Alpha virt. eigenvalues --    6.65861   6.69523   6.73183   6.79336   6.80702
 Alpha virt. eigenvalues --    6.85359   6.86767   6.95571   6.98791   7.02552
 Alpha virt. eigenvalues --    7.07436   7.11870   7.14778   7.21673   7.28020
 Alpha virt. eigenvalues --    7.39206   7.43884   7.59953   7.62784   7.76333
 Alpha virt. eigenvalues --    7.85084   7.90952  24.72797  49.85177  49.95003
 Alpha virt. eigenvalues --   50.01275  50.24538
  Beta  occ. eigenvalues --  -19.77229 -19.74650 -19.71434 -19.67169 -10.71404
  Beta  occ. eigenvalues --   -1.35603  -1.22675  -1.07365  -1.00418  -0.76272
  Beta  occ. eigenvalues --   -0.67249  -0.62702  -0.60573  -0.54462  -0.50975
  Beta  occ. eigenvalues --   -0.46748  -0.41915  -0.40880  -0.39144
  Beta virt. eigenvalues --   -0.17057  -0.11304   0.00357   0.01406   0.03780
  Beta virt. eigenvalues --    0.04640   0.05794   0.07710   0.13833   0.15578
  Beta virt. eigenvalues --    0.15956   0.17617   0.18273   0.19443   0.22353
  Beta virt. eigenvalues --    0.23012   0.24500   0.24867   0.25632   0.26317
  Beta virt. eigenvalues --    0.27712   0.29333   0.31205   0.32318   0.34766
  Beta virt. eigenvalues --    0.36168   0.38878   0.46089   0.53350   0.54731
  Beta virt. eigenvalues --    0.57452   0.59473   0.63744   0.68706   0.72069
  Beta virt. eigenvalues --    0.77795   0.81646   0.82341   0.89177   0.94792
  Beta virt. eigenvalues --    0.99313   1.01254   1.03013   1.03680   1.05092
  Beta virt. eigenvalues --    1.06366   1.08332   1.09241   1.10015   1.13238
  Beta virt. eigenvalues --    1.16645   1.19711   1.22628   1.26922   1.34786
  Beta virt. eigenvalues --    1.38711   1.43152   1.45159   1.49133   1.51104
  Beta virt. eigenvalues --    1.53718   1.55765   1.60250   1.61502   1.64897
  Beta virt. eigenvalues --    1.69415   1.76387   1.85624   1.91162   1.96455
  Beta virt. eigenvalues --    2.01038   2.05482   2.08567   2.13065   2.26461
  Beta virt. eigenvalues --    2.33008   2.37707   2.48846   2.50202   2.55402
  Beta virt. eigenvalues --    2.60889   2.67542   2.68214   2.75638   2.93196
  Beta virt. eigenvalues --    2.97944   3.01688   3.13295   3.17874   3.21590
  Beta virt. eigenvalues --    3.31587   3.37555   3.44027   3.52391   3.54042
  Beta virt. eigenvalues --    3.64751   3.69748   3.73981   3.78488   3.87757
  Beta virt. eigenvalues --    4.08607   4.10249   4.31479   4.53047   4.59340
  Beta virt. eigenvalues --    4.73724   4.80431   4.84535   4.94305   4.96226
  Beta virt. eigenvalues --    4.99372   4.99932   5.00610   5.00890   5.02234
  Beta virt. eigenvalues --    5.03372   5.05365   5.05697   5.06063   5.08475
  Beta virt. eigenvalues --    5.10107   5.10754   5.14052   5.17514   5.20462
  Beta virt. eigenvalues --    5.25728   5.31748   5.33592   5.38393   5.39982
  Beta virt. eigenvalues --    5.42834   5.50010   5.52107   5.66332   5.82693
  Beta virt. eigenvalues --    5.88431   6.13280   6.23072   6.36513   6.52352
  Beta virt. eigenvalues --    6.71825   6.72501   6.75113   6.76641   6.79323
  Beta virt. eigenvalues --    6.83863   6.84056   6.86766   6.90067   7.00570
  Beta virt. eigenvalues --    7.02948   7.05609   7.09119   7.13380   7.15937
  Beta virt. eigenvalues --    7.22893   7.30286   7.40562   7.51078   7.60361
  Beta virt. eigenvalues --    7.63844   7.78830   7.86724   7.91198  24.72734
  Beta virt. eigenvalues --   49.84272  49.94541  50.00930  50.24428
          Condensed to atoms (all electrons):
              1          2          3          4          5          6
     1  O    8.027536   0.130066   0.008453   0.018752   0.003202   0.000177
     2  H    0.130066   0.344762  -0.011617  -0.023234  -0.001939  -0.000245
     3  C    0.008453  -0.011617   4.753163   0.198402   0.423837   0.457733
     4  O    0.018752  -0.023234   0.198402   7.846746  -0.075407  -0.074466
     5  O    0.003202  -0.001939   0.423837  -0.075407   7.983293  -0.037405
     6  H    0.000177  -0.000245   0.457733  -0.074466  -0.037405   0.479466
     7  O    0.004122   0.176683  -0.039956   0.152184   0.025615   0.010462
              7
     1  O    0.004122
     2  H    0.176683
     3  C   -0.039956
     4  O    0.152184
     5  O    0.025615
     6  H    0.010462
     7  O    7.874196
 Mulliken atomic charges:
              1
     1  O   -0.192309
     2  H    0.385524
     3  C    0.209985
     4  O   -0.042977
     5  O   -0.321197
     6  H    0.164277
     7  O   -0.203305
 Sum of Mulliken atomic charges =   0.00000
 Mulliken charges with hydrogens summed into heavy atoms:
              1
     1  O   -0.192309
     3  C    0.374263
     4  O   -0.042977
     5  O   -0.321197
     7  O    0.182220
 Sum of Mulliken charges with hydrogens summed into heavy atoms =   0.00000
          Atomic-Atomic Spin Densities.
              1          2          3          4          5          6
     1  O    1.553399   0.020579   0.001371   0.011207  -0.007493  -0.000277
     2  H    0.020579  -0.117700   0.005328   0.000072   0.000232   0.000057
     3  C    0.001371   0.005328  -0.023985   0.008946   0.003856   0.000777
     4  O    0.011207   0.000072   0.008946   0.087801  -0.001201   0.000308
     5  O   -0.007493   0.000232   0.003856  -0.001201   0.039955  -0.000930
     6  H   -0.000277   0.000057   0.000777   0.000308  -0.000930  -0.000014
     7  O   -0.039161   0.034192  -0.005459  -0.042948   0.005975   0.000379
              7
     1  O   -0.039161
     2  H    0.034192
     3  C   -0.005459
     4  O   -0.042948
     5  O    0.005975
     6  H    0.000379
     7  O    0.468927
 Mulliken atomic spin densities:
              1
     1  O    1.539624
     2  H   -0.057241
     3  C   -0.009166
     4  O    0.064184
     5  O    0.040393
     6  H    0.000300
     7  O    0.421906
 Sum of Mulliken atomic spin densities =   2.00000
 APT atomic charges:
              1
     1  O    0.229627
     2  H   -0.526388
     3  C    0.905444
     4  O   -0.665405
     5  O   -0.502230
     6  H    0.041039
     7  O    0.517914
 Sum of APT charges=   0.00000
 APT Atomic charges with hydrogens summed into heavy atoms:
              1
     1  O    0.229627
     2  H    0.000000
     3  C    0.946482
     4  O   -0.665405
     5  O   -0.502230
     6  H    0.000000
     7  O   -0.008474
 Sum of APT charges=   0.00000
 Electronic spatial extent (au):  <R**2>=            377.8826
 Charge=              0.0000 electrons
 Dipole moment (field-independent basis, Debye):
    X=              1.7920    Y=              0.6709    Z=             -0.9570  Tot=              2.1395
 Quadrupole moment (field-independent basis, Debye-Ang):
   XX=            -23.9529   YY=            -31.9265   ZZ=            -28.1824
   XY=             -0.0832   XZ=             -2.0832   YZ=              1.1004
 Traceless Quadrupole moment (field-independent basis, Debye-Ang):
   XX=              4.0677   YY=             -3.9059   ZZ=             -0.1618
   XY=             -0.0832   XZ=             -2.0832   YZ=              1.1004
 Octapole moment (field-independent basis, Debye-Ang**2):
  XXX=              6.1138  YYY=              2.2999  ZZZ=              0.1718  XYY=             -2.9392
  XXY=              2.4366  XXZ=             -2.8510  XZZ=              0.6588  YZZ=              0.6096
  YYZ=             -0.6737  XYZ=              1.7454
 Hexadecapole moment (field-independent basis, Debye-Ang**3):
 XXXX=           -218.5718 YYYY=           -154.5351 ZZZZ=            -47.2561 XXXY=             -3.9800
 XXXZ=             -5.2090 YYYX=              5.8330 YYYZ=              1.7241 ZZZX=             -1.4096
 ZZZY=              0.0625 XXYY=            -68.0005 XXZZ=            -44.9248 YYZZ=            -33.4882
 XXYZ=              1.8078 YYXZ=             -0.0733 ZZXY=             -0.4982
 N-N= 1.730994781576D+02 E-N=-1.705443515438D+03  KE= 5.053921434469D+02
  Exact polarizability:  62.071  16.031  43.015   2.788   3.220  26.717
 Approx polarizability:  53.110  13.336  50.836  -0.262   1.827  32.108
                          Isotropic Fermi Contact Couplings
        Atom                 a.u.       MegaHertz       Gauss      10(-4) cm-1
     1  O(17)              0.14601     -44.25408     -15.79095     -14.76157
     2  H(1)              -0.04484    -100.21135     -35.75790     -33.42691
     3  C(13)             -0.00572      -3.21488      -1.14715      -1.07237
     4  O(17)              0.01577      -4.77875      -1.70518      -1.59402
     5  O(17)              0.02292      -6.94571      -2.47840      -2.31684
     6  H(1)               0.00021       0.47018       0.16777       0.15683
     7  O(17)              0.01412      -4.27892      -1.52683      -1.42729
 --------------------------------------------------------
       Center         ----  Spin Dipole Couplings  ----
                      3XX-RR        3YY-RR        3ZZ-RR
 --------------------------------------------------------
     1   Atom        1.007793      1.524224     -2.532018
     2   Atom       -0.019791      0.120369     -0.100578
     3   Atom        0.014528      0.004164     -0.018692
     4   Atom        0.027296      0.009537     -0.036833
     5   Atom        0.116150     -0.105630     -0.010520
     6   Atom        0.008577     -0.003109     -0.005467
     7   Atom       -0.213473      0.210468      0.003005
 --------------------------------------------------------
                        XY            XZ            YZ
 --------------------------------------------------------
     1   Atom       -0.887373      1.519333     -0.676788
     2   Atom        0.215857      0.123896      0.151352
     3   Atom       -0.007395     -0.012427     -0.009026
     4   Atom        0.210133      0.256552      0.196377
     5   Atom       -0.018929      0.118985     -0.002916
     6   Atom       -0.002086     -0.003489      0.001075
     7   Atom        0.980047      0.911601      1.107300
 --------------------------------------------------------


 ---------------------------------------------------------------------------------
              Anisotropic Spin Dipole Couplings in Principal Axis System
 ---------------------------------------------------------------------------------

       Atom             a.u.   MegaHertz   Gauss  10(-4) cm-1        Axes

              Baa    -3.1189   225.683    80.529    75.280 -0.3305  0.0740  0.9409
     1 O(17)  Bbb     0.4950   -35.816   -12.780   -11.947  0.6815  0.7084  0.1837
              Bcc     2.6239  -189.866   -67.749   -63.333 -0.6529  0.7020 -0.2845
 
              Baa    -0.1909  -101.860   -36.346   -33.977 -0.6593  0.0945  0.7460
     2 H(1)   Bbb    -0.1692   -90.250   -32.204   -30.104 -0.5150  0.6661 -0.5395
              Bcc     0.3601   192.110    68.550    64.081  0.5478  0.7399  0.3905
 
              Baa    -0.0267    -3.586    -1.279    -1.196  0.3264  0.3363  0.8834
     3 C(13)  Bbb     0.0067     0.903     0.322     0.301  0.1916  0.8916 -0.4103
              Bcc     0.0200     2.683     0.957     0.895  0.9256 -0.3032 -0.2266
 
              Baa    -0.2639    19.096     6.814     6.370 -0.6299 -0.0714  0.7734
     4 O(17)  Bbb    -0.1801    13.035     4.651     4.348 -0.4666  0.8309 -0.3033
              Bcc     0.4440   -32.131   -11.465   -10.718  0.6209  0.5519  0.5567
 
              Baa    -0.1087     7.862     2.806     2.623  0.1841  0.9634 -0.1946
     5 O(17)  Bbb    -0.0800     5.790     2.066     1.931 -0.4821  0.2611  0.8363
              Bcc     0.1887   -13.652    -4.872    -4.554  0.8566 -0.0602  0.5125
 
              Baa    -0.0064    -3.413    -1.218    -1.138  0.1978 -0.1891  0.9618
     6 H(1)   Bbb    -0.0034    -1.815    -0.648    -0.605  0.2110  0.9664  0.1466
              Bcc     0.0098     5.228     1.865     1.744  0.9573 -0.1739 -0.2310
 
              Baa    -1.0234    74.053    26.424    24.701  0.7124  0.0616 -0.6991
     7 O(17)  Bbb    -0.9973    72.163    25.750    24.071 -0.4780  0.7720 -0.4190
              Bcc     2.0207  -146.216   -52.173   -48.772  0.5139  0.6326  0.5794
 

 ---------------------------------------------------------------------------------

 Calling FoFJK, ICntrl=    100127 FMM=F ISym2X=0 I1Cent= 0 IOpClX= 1 NMat=1 NMatS=1 NMatT=0.
 -------------------------------------------------------------------
 Center     Atomic                   Forces (Hartrees/Bohr)
 Number     Number              X              Y              Z
 -------------------------------------------------------------------
      1        8          -0.000014434    0.000022849    0.000031768
      2        1           0.000007676    0.000029566   -0.000009472
      3        6          -0.000004804   -0.000026154    0.000014687
      4        8           0.000008761   -0.000024580   -0.000051584
      5        8          -0.000013756    0.000019005    0.000061730
      6        1          -0.000005734   -0.000065050    0.000008866
      7        8           0.000022292    0.000044364   -0.000055996
 -------------------------------------------------------------------
 Cartesian Forces:  Max     0.000065050 RMS     0.000031872
 IRC-IRC-IRC-IRC-IRC-IRC-IRC-IRC-IRC-IRC-IRC-IRC-IRC-IRC-IRC-IRC-IRC-IRC
          ******** Start new reaction path calculation ********
 Supplied step size of   0.1000 bohr.
    Integration on MW PES will use step size of   0.1040 sqrt(amu)*bohr.
 Point Number:   0          Path Number:   1
 Calculating another point on the path.
 IRC-IRC-IRC-IRC-IRC-IRC-IRC-IRC-IRC-IRC-IRC-IRC-IRC-IRC-IRC-IRC-IRC-IRC
                          Input orientation:                          
 ---------------------------------------------------------------------
 Center     Atomic      Atomic             Coordinates (Angstroms)
 Number     Number       Type             X           Y           Z
 ---------------------------------------------------------------------
      1          8           0       -1.831639   -0.652392   -0.326197
      2          1           0       -1.221421    0.132249    0.246300
      3          6           0        1.212213   -0.250641   -0.219267
      4          8           0        0.583891    0.959899   -0.331534
      5          8           0        0.789742   -1.172262    0.387235
      6          1           0        2.128389   -0.199670   -0.815328
      7          8           0       -0.508589    1.057042    0.470852
 ---------------------------------------------------------------------
                    Distance matrix (angstroms):
                    1          2          3          4          5
     1  O    0.000000
     2  H    1.147074   0.000000
     3  C    3.072112   2.507176   0.000000
     4  O    2.904186   2.068345   1.368502   0.000000
     5  O    2.766025   2.401331   1.181403   2.259451   0.000000
     6  H    4.015723   3.529653   1.094197   1.991012   2.045500
     7  O    2.303891   1.189032   2.268801   1.358960   2.581173
                    6          7
     6  H    0.000000
     7  O    3.191745   0.000000
 Symmetry turned off by external request.
 Stoichiometry    CH2O4(3)
 Framework group  C1[X(CH2O4)]
 Deg. of freedom    15
 Full point group                 C1      NOp   1
 Rotational constants (GHZ):      6.9366740      4.6947452      3.1744918
 Standard basis: 6-311+G(2df,2p) (5D, 7F)
 Integral buffers will be    131072 words long.
 Raffenetti 2 integral format.
 Two-electron integral symmetry is turned off.
   188 basis functions,   282 primitive gaussians,   213 cartesian basis functions
    21 alpha electrons       19 beta electrons
       nuclear repulsion energy       173.1172718194 Hartrees.
 NAtoms=    7 NActive=    7 NUniq=    7 SFac= 1.00D+00 NAtFMM=   50 NAOKFM=F Big=F
 One-electron integrals computed using PRISM.
 NBasis=   188 RedAO= T  NBF=   188
 NBsUse=   188 1.00D-06 NBFU=   188
 Initial guess read from the read-write file.
 B after Tr=     0.000000    0.000000    0.000000
         Rot=    1.000000    0.000000    0.000000    0.000000 Ang=   0.00 deg.
 Initial guess <Sx>= 0.0000 <Sy>= 0.0000 <Sz>= 1.0000 <S**2>= 2.0184 S= 1.0061
 Harris functional with IExCor= 1009 diagonalized for initial guess.
 ExpMin= 4.38D-02 ExpMax= 8.59D+03 ExpMxC= 1.30D+03 IAcc=2 IRadAn=         0 AccDes= 0.00D+00
 HarFok:  IExCor= 1009 AccDes= 0.00D+00 IRadAn=         0 IDoV= 1
 ScaDFX=  1.000000  1.000000  1.000000  1.000000
 FoFCou: FMM=F IPFlag=           0 FMFlag=      100000 FMFlg1=           0
         NFxFlg=           0 DoJE=T BraDBF=F KetDBF=T FulRan=T
         Omega=  0.000000  0.000000  1.000000  0.000000  0.000000 ICntrl=     500 IOpCl=  0
         NMat0=    1 NMatS0=    1 NMatT0=    0 NMatD0=    1 NMtDS0=    0 NMtDT0=    0
         I1Cent=           4 NGrid=           0.
 Symmetry not used in FoFCou.
 Requested convergence on RMS density matrix=1.00D-08 within 128 cycles.
 Requested convergence on MAX density matrix=1.00D-06.
 Requested convergence on             energy=1.00D-06.
 No special actions if energy rises.
 Keep R1 and R2 ints in memory in canonical form, NReq=524572698.
 SCF Done:  E(UM062X) =  -339.928029083     A.U. after   24 cycles
             Convg  =    0.6276D-08             -V/T =  2.0027
 <Sx>= 0.0000 <Sy>= 0.0000 <Sz>= 1.0000 <S**2>= 2.0181 S= 1.0060
 <L.S>= 0.000000000000E+00
 Annihilation of the first spin contaminant:
 S**2 before annihilation     2.0181,   after     2.0001
 Range of M.O.s used for correlation:     1   188
 NBasis=   188 NAE=    21 NBE=    19 NFC=     0 NFV=     0
 NROrb=    188 NOA=    21 NOB=    19 NVA=   167 NVB=   169

 **** Warning!!: The largest alpha MO coefficient is  0.12584567D+02


 **** Warning!!: The largest beta MO coefficient is  0.15692867D+02

 Symmetrizing basis deriv contribution to polar:
 IMax=3 JMax=2 DiffMx= 0.00D+00
 G2DrvN: will do     8 centers at a time, making    1 passes doing MaxLOS=3.
 Calling FoFCou, ICntrl=  3107 FMM=F I1Cent=   0 AccDes= 0.00D+00.
 FoFDir/FoFCou used for L=0 through L=3.
 End of G2Drv Frequency-dependent properties file   721 does not exist.
 End of G2Drv Frequency-dependent properties file   722 does not exist.
          IDoAtm=1111111
          Differentiating once with respect to electric field.
                with respect to dipole field.
          Differentiating once with respect to nuclear coordinates.
          Keep R1 and R2 ints in memory in canonical form, NReq=521395447.
          There are    24 degrees of freedom in the 1st order CPHF.  IDoFFX=5.
     21 vectors produced by pass  0 Test12= 2.80D-14 4.17D-09 XBig12= 6.23D+01 4.65D+00.
 AX will form    21 AO Fock derivatives at one time.
     21 vectors produced by pass  1 Test12= 2.80D-14 4.17D-09 XBig12= 1.05D+01 5.87D-01.
     21 vectors produced by pass  2 Test12= 2.80D-14 4.17D-09 XBig12= 1.10D+00 1.96D-01.
     21 vectors produced by pass  3 Test12= 2.80D-14 4.17D-09 XBig12= 2.39D-02 2.91D-02.
     21 vectors produced by pass  4 Test12= 2.80D-14 4.17D-09 XBig12= 5.02D-04 3.48D-03.
     21 vectors produced by pass  5 Test12= 2.80D-14 4.17D-09 XBig12= 8.92D-06 3.67D-04.
     21 vectors produced by pass  6 Test12= 2.80D-14 4.17D-09 XBig12= 1.26D-07 4.23D-05.
     18 vectors produced by pass  7 Test12= 2.80D-14 4.17D-09 XBig12= 1.54D-09 4.11D-06.
      5 vectors produced by pass  8 Test12= 2.80D-14 4.17D-09 XBig12= 1.51D-11 5.79D-07.
      3 vectors produced by pass  9 Test12= 2.80D-14 4.17D-09 XBig12= 1.23D-13 5.37D-08.
 Inverted reduced A of dimension   173 with in-core refinement.
 Isotropic polarizability for W=    0.000000       43.55 Bohr**3.
 End of Minotr Frequency-dependent properties file   721 does not exist.
 End of Minotr Frequency-dependent properties file   722 does not exist.
 Calling FoFJK, ICntrl=    100127 FMM=F ISym2X=0 I1Cent= 0 IOpClX= 1 NMat=1 NMatS=1 NMatT=0.
 -------------------------------------------------------------------
 Center     Atomic                   Forces (Hartrees/Bohr)
 Number     Number              X              Y              Z
 -------------------------------------------------------------------
      1        8           0.003890726    0.005807820    0.004179911
      2        1          -0.011172420   -0.012981498   -0.006034059
      3        6           0.001498934   -0.004803185    0.000975268
      4        8          -0.007951023    0.004851583    0.004421181
      5        8           0.000918633    0.001234909   -0.000194096
      6        1          -0.000068049   -0.000026234   -0.000099229
      7        8           0.012883200    0.005916606   -0.003248976
 -------------------------------------------------------------------
 Cartesian Forces:  Max     0.012981498 RMS     0.005946688
 IRC-IRC-IRC-IRC-IRC-IRC-IRC-IRC-IRC-IRC-IRC-IRC-IRC-IRC-IRC-IRC-IRC-IRC
 Pt  1 Step number   1 out of a maximum of  20
 CORRECTOR INTEGRATION CONVERGENCE:
   Recorrection delta-x convergence threshold:    0.010000
   Delta-x Convergence Met
 Point Number:   1          Path Number:   1
   CHANGE IN THE REACTION COORDINATE =    0.10398
   NET REACTION COORDINATE UP TO THIS POINT =    0.10398
  # OF POINTS ALONG THE PATH =   1
  # OF STEPS =   1

 Calculating another point on the path.
 IRC-IRC-IRC-IRC-IRC-IRC-IRC-IRC-IRC-IRC-IRC-IRC-IRC-IRC-IRC-IRC-IRC-IRC
                          Input orientation:                          
 ---------------------------------------------------------------------
 Center     Atomic      Atomic             Coordinates (Angstroms)
 Number     Number       Type             X           Y           Z
 ---------------------------------------------------------------------
      1          8           0       -1.831051   -0.651489   -0.325531
      2          1           0       -1.253636    0.094053    0.229550
      3          6           0        1.212563   -0.251833   -0.219041
      4          8           0        0.582433    0.960797   -0.330717
      5          8           0        0.789901   -1.172039    0.387205
      6          1           0        2.128221   -0.199759   -0.815578
      7          8           0       -0.506100    1.058327    0.470301
 ---------------------------------------------------------------------
                    Distance matrix (angstroms):
                    1          2          3          4          5
     1  O    0.000000
     2  H    1.094238   0.000000
     3  C    3.071588   2.530417   0.000000
     4  O    2.902481   2.106251   1.371134   0.000000
     5  O    2.765566   2.409126   1.180236   2.259966   0.000000
     6  H    4.014978   3.551841   1.094074   1.992847   2.045267
     7  O    2.304846   1.243622   2.268373   1.355008   2.580902
                    6          7
     6  H    0.000000
     7  O    3.189970   0.000000
 Symmetry turned off by external request.
 Stoichiometry    CH2O4(3)
 Framework group  C1[X(CH2O4)]
 Deg. of freedom    15
 Full point group                 C1      NOp   1
 Rotational constants (GHZ):      6.9359732      4.6965379      3.1737765
 Standard basis: 6-311+G(2df,2p) (5D, 7F)
 Integral buffers will be    131072 words long.
 Raffenetti 2 integral format.
 Two-electron integral symmetry is turned off.
   188 basis functions,   282 primitive gaussians,   213 cartesian basis functions
    21 alpha electrons       19 beta electrons
       nuclear repulsion energy       173.1462299443 Hartrees.
 NAtoms=    7 NActive=    7 NUniq=    7 SFac= 1.00D+00 NAtFMM=   50 NAOKFM=F Big=F
 One-electron integrals computed using PRISM.
 NBasis=   188 RedAO= T  NBF=   188
 NBsUse=   188 1.00D-06 NBFU=   188
 Initial guess read from the read-write file.
 B after Tr=     0.000000    0.000000    0.000000
         Rot=    1.000000    0.000000    0.000000    0.000000 Ang=   0.00 deg.
 Initial guess <Sx>= 0.0000 <Sy>= 0.0000 <Sz>= 1.0000 <S**2>= 2.0180 S= 1.0060
 Harris functional with IExCor= 1009 diagonalized for initial guess.
 ExpMin= 4.38D-02 ExpMax= 8.59D+03 ExpMxC= 1.30D+03 IAcc=2 IRadAn=         0 AccDes= 0.00D+00
 HarFok:  IExCor= 1009 AccDes= 0.00D+00 IRadAn=         0 IDoV= 1
 ScaDFX=  1.000000  1.000000  1.000000  1.000000
 FoFCou: FMM=F IPFlag=           0 FMFlag=      100000 FMFlg1=           0
         NFxFlg=           0 DoJE=T BraDBF=F KetDBF=T FulRan=T
         Omega=  0.000000  0.000000  1.000000  0.000000  0.000000 ICntrl=     500 IOpCl=  0
         NMat0=    1 NMatS0=    1 NMatT0=    0 NMatD0=    1 NMtDS0=    0 NMtDT0=    0
         I1Cent=           4 NGrid=           0.
 Symmetry not used in FoFCou.
 Requested convergence on RMS density matrix=1.00D-08 within 128 cycles.
 Requested convergence on MAX density matrix=1.00D-06.
 Requested convergence on             energy=1.00D-06.
 No special actions if energy rises.
 Keep R1 and R2 ints in memory in canonical form, NReq=524572698.
 SCF Done:  E(UM062X) =  -339.930784193     A.U. after   24 cycles
             Convg  =    0.6539D-08             -V/T =  2.0026
 <Sx>= 0.0000 <Sy>= 0.0000 <Sz>= 1.0000 <S**2>= 2.0156 S= 1.0052
 <L.S>= 0.000000000000E+00
 Annihilation of the first spin contaminant:
 S**2 before annihilation     2.0156,   after     2.0001
 Range of M.O.s used for correlation:     1   188
 NBasis=   188 NAE=    21 NBE=    19 NFC=     0 NFV=     0
 NROrb=    188 NOA=    21 NOB=    19 NVA=   167 NVB=   169

 **** Warning!!: The largest alpha MO coefficient is  0.12902163D+02


 **** Warning!!: The largest beta MO coefficient is  0.15710400D+02

 Symmetrizing basis deriv contribution to polar:
 IMax=3 JMax=2 DiffMx= 0.00D+00
 G2DrvN: will do     8 centers at a time, making    1 passes doing MaxLOS=3.
 Calling FoFCou, ICntrl=  3107 FMM=F I1Cent=   0 AccDes= 0.00D+00.
 FoFDir/FoFCou used for L=0 through L=3.
 End of G2Drv Frequency-dependent properties file   721 does not exist.
 End of G2Drv Frequency-dependent properties file   722 does not exist.
          IDoAtm=1111111
          Differentiating once with respect to electric field.
                with respect to dipole field.
          Differentiating once with respect to nuclear coordinates.
          Keep R1 and R2 ints in memory in canonical form, NReq=521395447.
          There are    24 degrees of freedom in the 1st order CPHF.  IDoFFX=5.
     21 vectors produced by pass  0 Test12= 2.80D-14 4.17D-09 XBig12= 5.64D+01 3.55D+00.
 AX will form    21 AO Fock derivatives at one time.
     21 vectors produced by pass  1 Test12= 2.80D-14 4.17D-09 XBig12= 9.80D+00 5.87D-01.
     21 vectors produced by pass  2 Test12= 2.80D-14 4.17D-09 XBig12= 8.37D-01 2.15D-01.
     21 vectors produced by pass  3 Test12= 2.80D-14 4.17D-09 XBig12= 1.96D-02 3.25D-02.
     21 vectors produced by pass  4 Test12= 2.80D-14 4.17D-09 XBig12= 4.26D-04 4.40D-03.
     21 vectors produced by pass  5 Test12= 2.80D-14 4.17D-09 XBig12= 7.85D-06 4.51D-04.
     21 vectors produced by pass  6 Test12= 2.80D-14 4.17D-09 XBig12= 1.04D-07 4.61D-05.
     18 vectors produced by pass  7 Test12= 2.80D-14 4.17D-09 XBig12= 1.05D-09 3.76D-06.
      5 vectors produced by pass  8 Test12= 2.80D-14 4.17D-09 XBig12= 1.02D-11 5.99D-07.
      3 vectors produced by pass  9 Test12= 2.80D-14 4.17D-09 XBig12= 8.27D-14 4.85D-08.
 Inverted reduced A of dimension   173 with in-core refinement.
 Isotropic polarizability for W=    0.000000       41.54 Bohr**3.
 End of Minotr Frequency-dependent properties file   721 does not exist.
 End of Minotr Frequency-dependent properties file   722 does not exist.
 Calling FoFJK, ICntrl=    100127 FMM=F ISym2X=0 I1Cent= 0 IOpClX= 1 NMat=1 NMatS=1 NMatT=0.
 -------------------------------------------------------------------
 Center     Atomic                   Forces (Hartrees/Bohr)
 Number     Number              X              Y              Z
 -------------------------------------------------------------------
      1        8           0.004083786    0.006642589    0.005055505
      2        1          -0.019050247   -0.022496738   -0.009268581
      3        6           0.002675308   -0.009487044    0.001570775
      4        8          -0.015452343    0.009692607    0.009037359
      5        8           0.001711528    0.002255637   -0.000364625
      6        1          -0.000092542    0.000027244   -0.000162330
      7        8           0.026124511    0.013365704   -0.005868103
 -------------------------------------------------------------------
 Cartesian Forces:  Max     0.026124511 RMS     0.010821182
 IRC-IRC-IRC-IRC-IRC-IRC-IRC-IRC-IRC-IRC-IRC-IRC-IRC-IRC-IRC-IRC-IRC-IRC
 Pt  2 Step number   1 out of a maximum of  20
 CORRECTOR INTEGRATION CONVERGENCE:
   Recorrection delta-x convergence threshold:    0.010000
   Delta-x Convergence Met
 Point Number:   2          Path Number:   1
   CHANGE IN THE REACTION COORDINATE =    0.10394
   NET REACTION COORDINATE UP TO THIS POINT =    0.20792
  # OF POINTS ALONG THE PATH =   2
  # OF STEPS =   1

 Calculating another point on the path.
 IRC-IRC-IRC-IRC-IRC-IRC-IRC-IRC-IRC-IRC-IRC-IRC-IRC-IRC-IRC-IRC-IRC-IRC
                          Input orientation:                          
 ---------------------------------------------------------------------
 Center     Atomic      Atomic             Coordinates (Angstroms)
 Number     Number       Type             X           Y           Z
 ---------------------------------------------------------------------
      1          8           0       -1.830817   -0.651028   -0.325148
      2          1           0       -1.285615    0.055986    0.215120
      3          6           0        1.212961   -0.253293   -0.218833
      4          8           0        0.580641    0.961938   -0.329646
      5          8           0        0.790093   -1.171798    0.387178
      6          1           0        2.128086   -0.199702   -0.815842
      7          8           0       -0.503011    1.059974    0.469644
 ---------------------------------------------------------------------
                    Distance matrix (angstroms):
                    1          2          3          4          5
     1  O    0.000000
     2  H    1.043554   0.000000
     3  C    3.071495   2.554770   0.000000
     4  O    2.901174   2.144862   1.374371   0.000000
     5  O    2.765462   2.417772   1.178862   2.260649   0.000000
     6  H    4.014647   3.575138   1.093959   1.995089   2.045104
     7  O    2.307010   1.298169   2.267870   1.350103   2.580644
                    6          7
     6  H    0.000000
     7  O    3.187778   0.000000
 Symmetry turned off by external request.
 Stoichiometry    CH2O4(3)
 Framework group  C1[X(CH2O4)]
 Deg. of freedom    15
 Full point group                 C1      NOp   1
 Rotational constants (GHZ):      6.9322372      4.6978933      3.1722078
 Standard basis: 6-311+G(2df,2p) (5D, 7F)
 Integral buffers will be    131072 words long.
 Raffenetti 2 integral format.
 Two-electron integral symmetry is turned off.
   188 basis functions,   282 primitive gaussians,   213 cartesian basis functions
    21 alpha electrons       19 beta electrons
       nuclear repulsion energy       173.1984769274 Hartrees.
 NAtoms=    7 NActive=    7 NUniq=    7 SFac= 1.00D+00 NAtFMM=   50 NAOKFM=F Big=F
 One-electron integrals computed using PRISM.
 NBasis=   188 RedAO= T  NBF=   188
 NBsUse=   188 1.00D-06 NBFU=   188
 Initial guess read from the read-write file.
 B after Tr=     0.000000    0.000000    0.000000
         Rot=    1.000000    0.000000    0.000000    0.000000 Ang=   0.00 deg.
 Initial guess <Sx>= 0.0000 <Sy>= 0.0000 <Sz>= 1.0000 <S**2>= 2.0155 S= 1.0051
 Harris functional with IExCor= 1009 diagonalized for initial guess.
 ExpMin= 4.38D-02 ExpMax= 8.59D+03 ExpMxC= 1.30D+03 IAcc=2 IRadAn=         0 AccDes= 0.00D+00
 HarFok:  IExCor= 1009 AccDes= 0.00D+00 IRadAn=         0 IDoV= 1
 ScaDFX=  1.000000  1.000000  1.000000  1.000000
 FoFCou: FMM=F IPFlag=           0 FMFlag=      100000 FMFlg1=           0
         NFxFlg=           0 DoJE=T BraDBF=F KetDBF=T FulRan=T
         Omega=  0.000000  0.000000  1.000000  0.000000  0.000000 ICntrl=     500 IOpCl=  0
         NMat0=    1 NMatS0=    1 NMatT0=    0 NMatD0=    1 NMtDS0=    0 NMtDT0=    0
         I1Cent=           4 NGrid=           0.
 Symmetry not used in FoFCou.
 Requested convergence on RMS density matrix=1.00D-08 within 128 cycles.
 Requested convergence on MAX density matrix=1.00D-06.
 Requested convergence on             energy=1.00D-06.
 No special actions if energy rises.
 Keep R1 and R2 ints in memory in canonical form, NReq=524572698.
 SCF Done:  E(UM062X) =  -339.934282790     A.U. after   23 cycles
             Convg  =    0.6400D-08             -V/T =  2.0025
 <Sx>= 0.0000 <Sy>= 0.0000 <Sz>= 1.0000 <S**2>= 2.0128 S= 1.0043
 <L.S>= 0.000000000000E+00
 Annihilation of the first spin contaminant:
 S**2 before annihilation     2.0128,   after     2.0001
 Range of M.O.s used for correlation:     1   188
 NBasis=   188 NAE=    21 NBE=    19 NFC=     0 NFV=     0
 NROrb=    188 NOA=    21 NOB=    19 NVA=   167 NVB=   169

 **** Warning!!: The largest alpha MO coefficient is  0.13783890D+02


 **** Warning!!: The largest beta MO coefficient is  0.15823910D+02

 Symmetrizing basis deriv contribution to polar:
 IMax=3 JMax=2 DiffMx= 0.00D+00
 G2DrvN: will do     8 centers at a time, making    1 passes doing MaxLOS=3.
 Calling FoFCou, ICntrl=  3107 FMM=F I1Cent=   0 AccDes= 0.00D+00.
 FoFDir/FoFCou used for L=0 through L=3.
 End of G2Drv Frequency-dependent properties file   721 does not exist.
 End of G2Drv Frequency-dependent properties file   722 does not exist.
          IDoAtm=1111111
          Differentiating once with respect to electric field.
                with respect to dipole field.
          Differentiating once with respect to nuclear coordinates.
          Keep R1 and R2 ints in memory in canonical form, NReq=521395447.
          There are    24 degrees of freedom in the 1st order CPHF.  IDoFFX=5.
     21 vectors produced by pass  0 Test12= 2.80D-14 4.17D-09 XBig12= 4.85D+01 3.05D+00.
 AX will form    21 AO Fock derivatives at one time.
     21 vectors produced by pass  1 Test12= 2.80D-14 4.17D-09 XBig12= 8.98D+00 5.31D-01.
     21 vectors produced by pass  2 Test12= 2.80D-14 4.17D-09 XBig12= 6.85D-01 2.28D-01.
     21 vectors produced by pass  3 Test12= 2.80D-14 4.17D-09 XBig12= 2.22D-02 3.31D-02.
     21 vectors produced by pass  4 Test12= 2.80D-14 4.17D-09 XBig12= 4.62D-04 3.73D-03.
     21 vectors produced by pass  5 Test12= 2.80D-14 4.17D-09 XBig12= 8.05D-06 3.98D-04.
     21 vectors produced by pass  6 Test12= 2.80D-14 4.17D-09 XBig12= 9.58D-08 4.35D-05.
     18 vectors produced by pass  7 Test12= 2.80D-14 4.17D-09 XBig12= 1.05D-09 3.07D-06.
      5 vectors produced by pass  8 Test12= 2.80D-14 4.17D-09 XBig12= 8.91D-12 3.43D-07.
      3 vectors produced by pass  9 Test12= 2.80D-14 4.17D-09 XBig12= 8.15D-14 3.38D-08.
 Inverted reduced A of dimension   173 with in-core refinement.
 Isotropic polarizability for W=    0.000000       38.59 Bohr**3.
 End of Minotr Frequency-dependent properties file   721 does not exist.
 End of Minotr Frequency-dependent properties file   722 does not exist.
 Calling FoFJK, ICntrl=    100127 FMM=F ISym2X=0 I1Cent= 0 IOpClX= 1 NMat=1 NMatS=1 NMatT=0.
 -------------------------------------------------------------------
 Center     Atomic                   Forces (Hartrees/Bohr)
 Number     Number              X              Y              Z
 -------------------------------------------------------------------
      1        8          -0.001392701   -0.000212907    0.000448889
      2        1          -0.018917616   -0.022257701   -0.006525496
      3        6           0.003165611   -0.012138090    0.001349825
      4        8          -0.019894975    0.013015852    0.012310705
      5        8           0.002125455    0.002346382   -0.000109186
      6        1          -0.000059200    0.000042241   -0.000158199
      7        8           0.034973425    0.019204223   -0.007316538
 -------------------------------------------------------------------
 Cartesian Forces:  Max     0.034973425 RMS     0.012779340
 IRC-IRC-IRC-IRC-IRC-IRC-IRC-IRC-IRC-IRC-IRC-IRC-IRC-IRC-IRC-IRC-IRC-IRC
 Pt  3 Step number   1 out of a maximum of  20
 CORRECTOR INTEGRATION CONVERGENCE:
   Recorrection delta-x convergence threshold:    0.010000
   Delta-x Convergence Met
 Point Number:   3          Path Number:   1
   CHANGE IN THE REACTION COORDINATE =    0.10386
   NET REACTION COORDINATE UP TO THIS POINT =    0.31178
  # OF POINTS ALONG THE PATH =   3
  # OF STEPS =   1

 Calculating another point on the path.
 IRC-IRC-IRC-IRC-IRC-IRC-IRC-IRC-IRC-IRC-IRC-IRC-IRC-IRC-IRC-IRC-IRC-IRC
                          Input orientation:                          
 ---------------------------------------------------------------------
 Center     Atomic      Atomic             Coordinates (Angstroms)
 Number     Number       Type             X           Y           Z
 ---------------------------------------------------------------------
      1          8           0       -1.831497   -0.651713   -0.325553
      2          1           0       -1.316686    0.019771    0.208697
      3          6           0        1.213468   -0.255284   -0.218685
      4          8           0        0.578165    0.963608   -0.328066
      5          8           0        0.790353   -1.171563    0.387207
      6          1           0        2.128011   -0.199632   -0.816134
      7          8           0       -0.498532    1.062526    0.468752
 ---------------------------------------------------------------------
                    Distance matrix (angstroms):
                    1          2          3          4          5
     1  O    0.000000
     2  H    1.000673   0.000000
     3  C    3.072522   2.580696   0.000000
     4  O    2.900990   2.183897   1.378866   0.000000
     5  O    2.766292   2.427088   1.177157   2.261768   0.000000
     6  H    4.015315   3.600605   1.093815   1.998339   2.044997
     7  O    2.312214   1.350682   2.267187   1.343123   2.580509
                    6          7
     6  H    0.000000
     7  O    3.184761   0.000000
 Symmetry turned off by external request.
 Stoichiometry    CH2O4(3)
 Framework group  C1[X(CH2O4)]
 Deg. of freedom    15
 Full point group                 C1      NOp   1
 Rotational constants (GHZ):      6.9210930      4.6979568      3.1685814
 Standard basis: 6-311+G(2df,2p) (5D, 7F)
 Integral buffers will be    131072 words long.
 Raffenetti 2 integral format.
 Two-electron integral symmetry is turned off.
   188 basis functions,   282 primitive gaussians,   213 cartesian basis functions
    21 alpha electrons       19 beta electrons
       nuclear repulsion energy       173.2473421418 Hartrees.
 NAtoms=    7 NActive=    7 NUniq=    7 SFac= 1.00D+00 NAtFMM=   50 NAOKFM=F Big=F
 One-electron integrals computed using PRISM.
 NBasis=   188 RedAO= T  NBF=   188
 NBsUse=   188 1.00D-06 NBFU=   188
 Initial guess read from the read-write file.
 B after Tr=     0.000000    0.000000    0.000000
         Rot=    1.000000    0.000000    0.000000    0.000000 Ang=   0.00 deg.
 Initial guess <Sx>= 0.0000 <Sy>= 0.0000 <Sz>= 1.0000 <S**2>= 2.0126 S= 1.0042
 Harris functional with IExCor= 1009 diagonalized for initial guess.
 ExpMin= 4.38D-02 ExpMax= 8.59D+03 ExpMxC= 1.30D+03 IAcc=2 IRadAn=         0 AccDes= 0.00D+00
 HarFok:  IExCor= 1009 AccDes= 0.00D+00 IRadAn=         0 IDoV= 1
 ScaDFX=  1.000000  1.000000  1.000000  1.000000
 FoFCou: FMM=F IPFlag=           0 FMFlag=      100000 FMFlg1=           0
         NFxFlg=           0 DoJE=T BraDBF=F KetDBF=T FulRan=T
         Omega=  0.000000  0.000000  1.000000  0.000000  0.000000 ICntrl=     500 IOpCl=  0
         NMat0=    1 NMatS0=    1 NMatT0=    0 NMatD0=    1 NMtDS0=    0 NMtDT0=    0
         I1Cent=           4 NGrid=           0.
 Symmetry not used in FoFCou.
 Requested convergence on RMS density matrix=1.00D-08 within 128 cycles.
 Requested convergence on MAX density matrix=1.00D-06.
 Requested convergence on             energy=1.00D-06.
 No special actions if energy rises.
 Keep R1 and R2 ints in memory in canonical form, NReq=524572698.
 SCF Done:  E(UM062X) =  -339.937146217     A.U. after   22 cycles
             Convg  =    0.9582D-08             -V/T =  2.0023
 <Sx>= 0.0000 <Sy>= 0.0000 <Sz>= 1.0000 <S**2>= 2.0108 S= 1.0036
 <L.S>= 0.000000000000E+00
 Annihilation of the first spin contaminant:
 S**2 before annihilation     2.0108,   after     2.0001
 Range of M.O.s used for correlation:     1   188
 NBasis=   188 NAE=    21 NBE=    19 NFC=     0 NFV=     0
 NROrb=    188 NOA=    21 NOB=    19 NVA=   167 NVB=   169

 **** Warning!!: The largest alpha MO coefficient is  0.14622782D+02


 **** Warning!!: The largest beta MO coefficient is  0.16098930D+02

 Symmetrizing basis deriv contribution to polar:
 IMax=3 JMax=2 DiffMx= 0.00D+00
 G2DrvN: will do     8 centers at a time, making    1 passes doing MaxLOS=3.
 Calling FoFCou, ICntrl=  3107 FMM=F I1Cent=   0 AccDes= 0.00D+00.
 FoFDir/FoFCou used for L=0 through L=3.
 End of G2Drv Frequency-dependent properties file   721 does not exist.
 End of G2Drv Frequency-dependent properties file   722 does not exist.
          IDoAtm=1111111
          Differentiating once with respect to electric field.
                with respect to dipole field.
          Differentiating once with respect to nuclear coordinates.
          Keep R1 and R2 ints in memory in canonical form, NReq=521395447.
          There are    24 degrees of freedom in the 1st order CPHF.  IDoFFX=5.
     21 vectors produced by pass  0 Test12= 2.80D-14 4.17D-09 XBig12= 4.20D+01 2.77D+00.
 AX will form    21 AO Fock derivatives at one time.
     21 vectors produced by pass  1 Test12= 2.80D-14 4.17D-09 XBig12= 8.29D+00 4.88D-01.
     21 vectors produced by pass  2 Test12= 2.80D-14 4.17D-09 XBig12= 6.52D-01 2.31D-01.
     21 vectors produced by pass  3 Test12= 2.80D-14 4.17D-09 XBig12= 1.98D-02 2.75D-02.
     21 vectors produced by pass  4 Test12= 2.80D-14 4.17D-09 XBig12= 4.24D-04 2.46D-03.
     21 vectors produced by pass  5 Test12= 2.80D-14 4.17D-09 XBig12= 6.58D-06 3.91D-04.
     21 vectors produced by pass  6 Test12= 2.80D-14 4.17D-09 XBig12= 7.46D-08 3.34D-05.
     18 vectors produced by pass  7 Test12= 2.80D-14 4.17D-09 XBig12= 8.39D-10 3.09D-06.
      6 vectors produced by pass  8 Test12= 2.80D-14 4.17D-09 XBig12= 7.34D-12 2.72D-07.
      3 vectors produced by pass  9 Test12= 2.80D-14 4.17D-09 XBig12= 6.38D-14 2.60D-08.
 Inverted reduced A of dimension   174 with in-core refinement.
 Isotropic polarizability for W=    0.000000       36.08 Bohr**3.
 End of Minotr Frequency-dependent properties file   721 does not exist.
 End of Minotr Frequency-dependent properties file   722 does not exist.
 Calling FoFJK, ICntrl=    100127 FMM=F ISym2X=0 I1Cent= 0 IOpClX= 1 NMat=1 NMatS=1 NMatT=0.
 -------------------------------------------------------------------
 Center     Atomic                   Forces (Hartrees/Bohr)
 Number     Number              X              Y              Z
 -------------------------------------------------------------------
      1        8          -0.011287615   -0.013166995   -0.009131226
      2        1          -0.011232752   -0.012453016    0.002083737
      3        6           0.003010860   -0.011844495    0.000423365
      4        8          -0.020001716    0.014001528    0.013120374
      5        8           0.002014024    0.001320016    0.000657920
      6        1          -0.000011953    0.000027662   -0.000141273
      7        8           0.037509152    0.022115300   -0.007012897
 -------------------------------------------------------------------
 Cartesian Forces:  Max     0.037509152 RMS     0.012981676
 IRC-IRC-IRC-IRC-IRC-IRC-IRC-IRC-IRC-IRC-IRC-IRC-IRC-IRC-IRC-IRC-IRC-IRC
 Pt  4 Step number   1 out of a maximum of  20
 CORRECTOR INTEGRATION CONVERGENCE:
   Recorrection delta-x convergence threshold:    0.010000
   Delta-x Convergence Met
 Point Number:   4          Path Number:   1
   CHANGE IN THE REACTION COORDINATE =    0.10292
   NET REACTION COORDINATE UP TO THIS POINT =    0.41470
  # OF POINTS ALONG THE PATH =   4
  # OF STEPS =   1

 Calculating another point on the path.
 IRC-IRC-IRC-IRC-IRC-IRC-IRC-IRC-IRC-IRC-IRC-IRC-IRC-IRC-IRC-IRC-IRC-IRC
                          Input orientation:                          
 ---------------------------------------------------------------------
 Center     Atomic      Atomic             Coordinates (Angstroms)
 Number     Number       Type             X           Y           Z
 ---------------------------------------------------------------------
      1          8           0       -1.833988   -0.654698   -0.327662
      2          1           0       -1.340399   -0.005692    0.222005
      3          6           0        1.214109   -0.257787   -0.218724
      4          8           0        0.574940    0.965995   -0.325880
      5          8           0        0.790667   -1.171470    0.387416
      6          1           0        2.127979   -0.199600   -0.816584
      7          8           0       -0.492114    1.066510    0.467685
 ---------------------------------------------------------------------
                    Distance matrix (angstroms):
                    1          2          3          4          5
     1  O    0.000000
     2  H    0.983347   0.000000
     3  C    3.075760   2.604477   0.000000
     4  O    2.903374   2.216501   1.384797   0.000000
     5  O    2.768971   2.434715   1.175383   2.263645   0.000000
     6  H    4.017878   3.625729   1.093610   2.002832   2.045129
     7  O    2.322877   1.389087   2.266301   1.333587   2.580800
                    6          7
     6  H    0.000000
     7  O    3.180766   0.000000
 Symmetry turned off by external request.
 Stoichiometry    CH2O4(3)
 Framework group  C1[X(CH2O4)]
 Deg. of freedom    15
 Full point group                 C1      NOp   1
 Rotational constants (GHZ):      6.8963886      4.6947598      3.1613206
 Standard basis: 6-311+G(2df,2p) (5D, 7F)
 Integral buffers will be    131072 words long.
 Raffenetti 2 integral format.
 Two-electron integral symmetry is turned off.
   188 basis functions,   282 primitive gaussians,   213 cartesian basis functions
    21 alpha electrons       19 beta electrons
       nuclear repulsion energy       173.2127544957 Hartrees.
 NAtoms=    7 NActive=    7 NUniq=    7 SFac= 1.00D+00 NAtFMM=   50 NAOKFM=F Big=F
 One-electron integrals computed using PRISM.
 NBasis=   188 RedAO= T  NBF=   188
 NBsUse=   188 1.00D-06 NBFU=   188
 Initial guess read from the read-write file.
 B after Tr=     0.000000    0.000000    0.000000
         Rot=    1.000000    0.000000    0.000000    0.000000 Ang=   0.00 deg.
 Initial guess <Sx>= 0.0000 <Sy>= 0.0000 <Sz>= 1.0000 <S**2>= 2.0108 S= 1.0036
 Harris functional with IExCor= 1009 diagonalized for initial guess.
 ExpMin= 4.38D-02 ExpMax= 8.59D+03 ExpMxC= 1.30D+03 IAcc=2 IRadAn=         0 AccDes= 0.00D+00
 HarFok:  IExCor= 1009 AccDes= 0.00D+00 IRadAn=         0 IDoV= 1
 ScaDFX=  1.000000  1.000000  1.000000  1.000000
 FoFCou: FMM=F IPFlag=           0 FMFlag=      100000 FMFlg1=           0
         NFxFlg=           0 DoJE=T BraDBF=F KetDBF=T FulRan=T
         Omega=  0.000000  0.000000  1.000000  0.000000  0.000000 ICntrl=     500 IOpCl=  0
         NMat0=    1 NMatS0=    1 NMatT0=    0 NMatD0=    1 NMtDS0=    0 NMtDT0=    0
         I1Cent=           4 NGrid=           0.
 Symmetry not used in FoFCou.
 Requested convergence on RMS density matrix=1.00D-08 within 128 cycles.
 Requested convergence on MAX density matrix=1.00D-06.
 Requested convergence on             energy=1.00D-06.
 No special actions if energy rises.
 Keep R1 and R2 ints in memory in canonical form, NReq=524572698.
 SCF Done:  E(UM062X) =  -339.939209327     A.U. after   22 cycles
             Convg  =    0.3751D-08             -V/T =  2.0023
 <Sx>= 0.0000 <Sy>= 0.0000 <Sz>= 1.0000 <S**2>= 2.0100 S= 1.0033
 <L.S>= 0.000000000000E+00
 Annihilation of the first spin contaminant:
 S**2 before annihilation     2.0100,   after     2.0001
 Range of M.O.s used for correlation:     1   188
 NBasis=   188 NAE=    21 NBE=    19 NFC=     0 NFV=     0
 NROrb=    188 NOA=    21 NOB=    19 NVA=   167 NVB=   169

 **** Warning!!: The largest alpha MO coefficient is  0.14675182D+02


 **** Warning!!: The largest beta MO coefficient is  0.16379750D+02

 Symmetrizing basis deriv contribution to polar:
 IMax=3 JMax=2 DiffMx= 0.00D+00
 G2DrvN: will do     8 centers at a time, making    1 passes doing MaxLOS=3.
 Calling FoFCou, ICntrl=  3107 FMM=F I1Cent=   0 AccDes= 0.00D+00.
 FoFDir/FoFCou used for L=0 through L=3.
 End of G2Drv Frequency-dependent properties file   721 does not exist.
 End of G2Drv Frequency-dependent properties file   722 does not exist.
          IDoAtm=1111111
          Differentiating once with respect to electric field.
                with respect to dipole field.
          Differentiating once with respect to nuclear coordinates.
          Keep R1 and R2 ints in memory in canonical form, NReq=521395447.
          There are    24 degrees of freedom in the 1st order CPHF.  IDoFFX=5.
     21 vectors produced by pass  0 Test12= 2.80D-14 4.17D-09 XBig12= 3.87D+01 2.57D+00.
 AX will form    21 AO Fock derivatives at one time.
     21 vectors produced by pass  1 Test12= 2.80D-14 4.17D-09 XBig12= 7.95D+00 4.72D-01.
     21 vectors produced by pass  2 Test12= 2.80D-14 4.17D-09 XBig12= 6.07D-01 2.30D-01.
     21 vectors produced by pass  3 Test12= 2.80D-14 4.17D-09 XBig12= 1.74D-02 2.26D-02.
     21 vectors produced by pass  4 Test12= 2.80D-14 4.17D-09 XBig12= 3.75D-04 2.22D-03.
     21 vectors produced by pass  5 Test12= 2.80D-14 4.17D-09 XBig12= 5.40D-06 3.42D-04.
     21 vectors produced by pass  6 Test12= 2.80D-14 4.17D-09 XBig12= 6.06D-08 3.19D-05.
     18 vectors produced by pass  7 Test12= 2.80D-14 4.17D-09 XBig12= 6.59D-10 2.63D-06.
      5 vectors produced by pass  8 Test12= 2.80D-14 4.17D-09 XBig12= 5.92D-12 2.71D-07.
      3 vectors produced by pass  9 Test12= 2.80D-14 4.17D-09 XBig12= 4.69D-14 2.35D-08.
 Inverted reduced A of dimension   173 with in-core refinement.
 Isotropic polarizability for W=    0.000000       34.85 Bohr**3.
 End of Minotr Frequency-dependent properties file   721 does not exist.
 End of Minotr Frequency-dependent properties file   722 does not exist.
 Calling FoFJK, ICntrl=    100127 FMM=F ISym2X=0 I1Cent= 0 IOpClX= 1 NMat=1 NMatS=1 NMatT=0.
 -------------------------------------------------------------------
 Center     Atomic                   Forces (Hartrees/Bohr)
 Number     Number              X              Y              Z
 -------------------------------------------------------------------
      1        8          -0.015575839   -0.018858259   -0.013622838
      2        1          -0.006482405   -0.006777618    0.006590905
      3        6           0.002377358   -0.009235967   -0.000621372
      4        8          -0.015895910    0.012661852    0.011090954
      5        8           0.001525769   -0.000166779    0.001598927
      6        1          -0.000012282   -0.000003956   -0.000181486
      7        8           0.034063310    0.022380728   -0.004855089
 -------------------------------------------------------------------
 Cartesian Forces:  Max     0.034063310 RMS     0.012406405
 IRC-IRC-IRC-IRC-IRC-IRC-IRC-IRC-IRC-IRC-IRC-IRC-IRC-IRC-IRC-IRC-IRC-IRC
 Pt  5 Step number   1 out of a maximum of  20
 CORRECTOR INTEGRATION CONVERGENCE:
   Recorrection delta-x convergence threshold:    0.010000
   Delta-x Convergence Met
 Point Number:   5          Path Number:   1
   CHANGE IN THE REACTION COORDINATE =    0.10254
   NET REACTION COORDINATE UP TO THIS POINT =    0.51724
  # OF POINTS ALONG THE PATH =   5
  # OF STEPS =   1

 Calculating another point on the path.
 IRC-IRC-IRC-IRC-IRC-IRC-IRC-IRC-IRC-IRC-IRC-IRC-IRC-IRC-IRC-IRC-IRC-IRC
                          Input orientation:                          
 ---------------------------------------------------------------------
 Center     Atomic      Atomic             Coordinates (Angstroms)
 Number     Number       Type             X           Y           Z
 ---------------------------------------------------------------------
      1          8           0       -1.837092   -0.658463   -0.330407
      2          1           0       -1.358825   -0.025382    0.243927
      3          6           0        1.214631   -0.259909   -0.218972
      4          8           0        0.572254    0.968333   -0.323937
      5          8           0        0.790936   -1.171599    0.387793
      6          1           0        2.127887   -0.199675   -0.817244
      7          8           0       -0.485818    1.070903    0.466958
 ---------------------------------------------------------------------
                    Distance matrix (angstroms):
                    1          2          3          4          5
     1  O    0.000000
     2  H    0.979484   0.000000
     3  C    3.079655   2.625253   0.000000
     4  O    2.907139   2.244773   1.390051   0.000000
     5  O    2.772300   2.440488   1.174248   2.265764   0.000000
     6  H    4.021014   3.648784   1.093433   2.006885   2.045529
     7  O    2.335046   1.419058   2.265632   1.324973   2.581702
                    6          7
     6  H    0.000000
     7  O    3.177263   0.000000
 Symmetry turned off by external request.
 Stoichiometry    CH2O4(3)
 Framework group  C1[X(CH2O4)]
 Deg. of freedom    15
 Full point group                 C1      NOp   1
 Rotational constants (GHZ):      6.8666229      4.6890851      3.1527335
 Standard basis: 6-311+G(2df,2p) (5D, 7F)
 Integral buffers will be    131072 words long.
 Raffenetti 2 integral format.
 Two-electron integral symmetry is turned off.
   188 basis functions,   282 primitive gaussians,   213 cartesian basis functions
    21 alpha electrons       19 beta electrons
       nuclear repulsion energy       173.1082342416 Hartrees.
 NAtoms=    7 NActive=    7 NUniq=    7 SFac= 1.00D+00 NAtFMM=   50 NAOKFM=F Big=F
 One-electron integrals computed using PRISM.
 NBasis=   188 RedAO= T  NBF=   188
 NBsUse=   188 1.00D-06 NBFU=   188
 Initial guess read from the read-write file.
 B after Tr=     0.000000    0.000000    0.000000
         Rot=    1.000000    0.000000    0.000000    0.000000 Ang=   0.00 deg.
 Initial guess <Sx>= 0.0000 <Sy>= 0.0000 <Sz>= 1.0000 <S**2>= 2.0100 S= 1.0033
 Harris functional with IExCor= 1009 diagonalized for initial guess.
 ExpMin= 4.38D-02 ExpMax= 8.59D+03 ExpMxC= 1.30D+03 IAcc=2 IRadAn=         0 AccDes= 0.00D+00
 HarFok:  IExCor= 1009 AccDes= 0.00D+00 IRadAn=         0 IDoV= 1
 ScaDFX=  1.000000  1.000000  1.000000  1.000000
 FoFCou: FMM=F IPFlag=           0 FMFlag=      100000 FMFlg1=           0
         NFxFlg=           0 DoJE=T BraDBF=F KetDBF=T FulRan=T
         Omega=  0.000000  0.000000  1.000000  0.000000  0.000000 ICntrl=     500 IOpCl=  0
         NMat0=    1 NMatS0=    1 NMatT0=    0 NMatD0=    1 NMtDS0=    0 NMtDT0=    0
         I1Cent=           4 NGrid=           0.
 Symmetry not used in FoFCou.
 Requested convergence on RMS density matrix=1.00D-08 within 128 cycles.
 Requested convergence on MAX density matrix=1.00D-06.
 Requested convergence on             energy=1.00D-06.
 No special actions if energy rises.
 Keep R1 and R2 ints in memory in canonical form, NReq=524572698.
 SCF Done:  E(UM062X) =  -339.940989273     A.U. after   21 cycles
             Convg  =    0.6560D-08             -V/T =  2.0023
 <Sx>= 0.0000 <Sy>= 0.0000 <Sz>= 1.0000 <S**2>= 2.0096 S= 1.0032
 <L.S>= 0.000000000000E+00
 Annihilation of the first spin contaminant:
 S**2 before annihilation     2.0096,   after     2.0001
 Range of M.O.s used for correlation:     1   188
 NBasis=   188 NAE=    21 NBE=    19 NFC=     0 NFV=     0
 NROrb=    188 NOA=    21 NOB=    19 NVA=   167 NVB=   169

 **** Warning!!: The largest alpha MO coefficient is  0.12753652D+02


 **** Warning!!: The largest beta MO coefficient is  0.16259856D+02

 Symmetrizing basis deriv contribution to polar:
 IMax=3 JMax=2 DiffMx= 0.00D+00
 G2DrvN: will do     8 centers at a time, making    1 passes doing MaxLOS=3.
 Calling FoFCou, ICntrl=  3107 FMM=F I1Cent=   0 AccDes= 0.00D+00.
 FoFDir/FoFCou used for L=0 through L=3.
 End of G2Drv Frequency-dependent properties file   721 does not exist.
 End of G2Drv Frequency-dependent properties file   722 does not exist.
          IDoAtm=1111111
          Differentiating once with respect to electric field.
                with respect to dipole field.
          Differentiating once with respect to nuclear coordinates.
          Keep R1 and R2 ints in memory in canonical form, NReq=521395447.
          There are    24 degrees of freedom in the 1st order CPHF.  IDoFFX=5.
     21 vectors produced by pass  0 Test12= 2.80D-14 4.17D-09 XBig12= 3.70D+01 2.45D+00.
 AX will form    21 AO Fock derivatives at one time.
     21 vectors produced by pass  1 Test12= 2.80D-14 4.17D-09 XBig12= 7.78D+00 4.65D-01.
     21 vectors produced by pass  2 Test12= 2.80D-14 4.17D-09 XBig12= 5.75D-01 2.32D-01.
     21 vectors produced by pass  3 Test12= 2.80D-14 4.17D-09 XBig12= 1.59D-02 1.94D-02.
     21 vectors produced by pass  4 Test12= 2.80D-14 4.17D-09 XBig12= 3.36D-04 2.03D-03.
     21 vectors produced by pass  5 Test12= 2.80D-14 4.17D-09 XBig12= 4.53D-06 2.91D-04.
     21 vectors produced by pass  6 Test12= 2.80D-14 4.17D-09 XBig12= 5.02D-08 2.95D-05.
     18 vectors produced by pass  7 Test12= 2.80D-14 4.17D-09 XBig12= 5.15D-10 2.37D-06.
      5 vectors produced by pass  8 Test12= 2.80D-14 4.17D-09 XBig12= 4.75D-12 2.57D-07.
      3 vectors produced by pass  9 Test12= 2.80D-14 4.17D-09 XBig12= 3.90D-14 2.18D-08.
 Inverted reduced A of dimension   173 with in-core refinement.
 Isotropic polarizability for W=    0.000000       34.22 Bohr**3.
 End of Minotr Frequency-dependent properties file   721 does not exist.
 End of Minotr Frequency-dependent properties file   722 does not exist.
 Calling FoFJK, ICntrl=    100127 FMM=F ISym2X=0 I1Cent= 0 IOpClX= 1 NMat=1 NMatS=1 NMatT=0.
 -------------------------------------------------------------------
 Center     Atomic                   Forces (Hartrees/Bohr)
 Number     Number              X              Y              Z
 -------------------------------------------------------------------
      1        8          -0.015260514   -0.018496910   -0.013483757
      2        1          -0.005577266   -0.006118040    0.006806625
      3        6           0.001568725   -0.006929208   -0.001164413
      4        8          -0.011175117    0.010877697    0.008409255
      5        8           0.001214702   -0.001010672    0.002106616
      6        1          -0.000046609   -0.000043012   -0.000237434
      7        8           0.029276079    0.021720145   -0.002436891
 -------------------------------------------------------------------
 Cartesian Forces:  Max     0.029276079 RMS     0.011082457
 IRC-IRC-IRC-IRC-IRC-IRC-IRC-IRC-IRC-IRC-IRC-IRC-IRC-IRC-IRC-IRC-IRC-IRC
 Pt  6 Step number   1 out of a maximum of  20
 CORRECTOR INTEGRATION CONVERGENCE:
   Recorrection delta-x convergence threshold:    0.010000
   Delta-x Convergence Met
 Point Number:   6          Path Number:   1
   CHANGE IN THE REACTION COORDINATE =    0.10386
   NET REACTION COORDINATE UP TO THIS POINT =    0.62110
  # OF POINTS ALONG THE PATH =   6
  # OF STEPS =   1

 Calculating another point on the path.
 IRC-IRC-IRC-IRC-IRC-IRC-IRC-IRC-IRC-IRC-IRC-IRC-IRC-IRC-IRC-IRC-IRC-IRC
                          Input orientation:                          
 ---------------------------------------------------------------------
 Center     Atomic      Atomic             Coordinates (Angstroms)
 Number     Number       Type             X           Y           Z
 ---------------------------------------------------------------------
      1          8           0       -1.840357   -0.662422   -0.333309
      2          1           0       -1.377235   -0.046126    0.267452
      3          6           0        1.214966   -0.261664   -0.219351
      4          8           0        0.570284    0.970530   -0.322372
      5          8           0        0.791184   -1.171866    0.388280
      6          1           0        2.127637   -0.199914   -0.818146
      7          8           0       -0.479907    1.075570    0.466665
 ---------------------------------------------------------------------
                    Distance matrix (angstroms):
                    1          2          3          4          5
     1  O    0.000000
     2  H    0.977352   0.000000
     3  C    3.083601   2.646306   0.000000
     4  O    2.911674   2.274712   1.394464   0.000000
     5  O    2.775830   2.446207   1.173573   2.267969   0.000000
     6  H    4.024172   3.672370   1.093315   2.010244   2.046035
     7  O    2.347637   1.450202   2.265261   1.317769   2.583174
                    6          7
     6  H    0.000000
     7  O    3.174411   0.000000
 Symmetry turned off by external request.
 Stoichiometry    CH2O4(3)
 Framework group  C1[X(CH2O4)]
 Deg. of freedom    15
 Full point group                 C1      NOp   1
 Rotational constants (GHZ):      6.8345019      4.6815193      3.1434398
 Standard basis: 6-311+G(2df,2p) (5D, 7F)
 Integral buffers will be    131072 words long.
 Raffenetti 2 integral format.
 Two-electron integral symmetry is turned off.
   188 basis functions,   282 primitive gaussians,   213 cartesian basis functions
    21 alpha electrons       19 beta electrons
       nuclear repulsion energy       172.9629774184 Hartrees.
 NAtoms=    7 NActive=    7 NUniq=    7 SFac= 1.00D+00 NAtFMM=   50 NAOKFM=F Big=F
 One-electron integrals computed using PRISM.
 NBasis=   188 RedAO= T  NBF=   188
 NBsUse=   188 1.00D-06 NBFU=   188
 Initial guess read from the read-write file.
 B after Tr=     0.000000    0.000000    0.000000
         Rot=    1.000000    0.000000    0.000000    0.000000 Ang=   0.00 deg.
 Initial guess <Sx>= 0.0000 <Sy>= 0.0000 <Sz>= 1.0000 <S**2>= 2.0097 S= 1.0032
 Harris functional with IExCor= 1009 diagonalized for initial guess.
 ExpMin= 4.38D-02 ExpMax= 8.59D+03 ExpMxC= 1.30D+03 IAcc=2 IRadAn=         0 AccDes= 0.00D+00
 HarFok:  IExCor= 1009 AccDes= 0.00D+00 IRadAn=         0 IDoV= 1
 ScaDFX=  1.000000  1.000000  1.000000  1.000000
 FoFCou: FMM=F IPFlag=           0 FMFlag=      100000 FMFlg1=           0
         NFxFlg=           0 DoJE=T BraDBF=F KetDBF=T FulRan=T
         Omega=  0.000000  0.000000  1.000000  0.000000  0.000000 ICntrl=     500 IOpCl=  0
         NMat0=    1 NMatS0=    1 NMatT0=    0 NMatD0=    1 NMtDS0=    0 NMtDT0=    0
         I1Cent=           4 NGrid=           0.
 Symmetry not used in FoFCou.
 Requested convergence on RMS density matrix=1.00D-08 within 128 cycles.
 Requested convergence on MAX density matrix=1.00D-06.
 Requested convergence on             energy=1.00D-06.
 No special actions if energy rises.
 Keep R1 and R2 ints in memory in canonical form, NReq=524572698.
 SCF Done:  E(UM062X) =  -339.942619909     A.U. after   21 cycles
             Convg  =    0.7641D-08             -V/T =  2.0022
 <Sx>= 0.0000 <Sy>= 0.0000 <Sz>= 1.0000 <S**2>= 2.0094 S= 1.0031
 <L.S>= 0.000000000000E+00
 Annihilation of the first spin contaminant:
 S**2 before annihilation     2.0094,   after     2.0001
 Range of M.O.s used for correlation:     1   188
 NBasis=   188 NAE=    21 NBE=    19 NFC=     0 NFV=     0
 NROrb=    188 NOA=    21 NOB=    19 NVA=   167 NVB=   169

 **** Warning!!: The largest alpha MO coefficient is  0.12625996D+02


 **** Warning!!: The largest beta MO coefficient is  0.15196495D+02

 Symmetrizing basis deriv contribution to polar:
 IMax=3 JMax=2 DiffMx= 0.00D+00
 G2DrvN: will do     8 centers at a time, making    1 passes doing MaxLOS=3.
 Calling FoFCou, ICntrl=  3107 FMM=F I1Cent=   0 AccDes= 0.00D+00.
 FoFDir/FoFCou used for L=0 through L=3.
 End of G2Drv Frequency-dependent properties file   721 does not exist.
 End of G2Drv Frequency-dependent properties file   722 does not exist.
          IDoAtm=1111111
          Differentiating once with respect to electric field.
                with respect to dipole field.
          Differentiating once with respect to nuclear coordinates.
          Keep R1 and R2 ints in memory in canonical form, NReq=521395447.
          There are    24 degrees of freedom in the 1st order CPHF.  IDoFFX=5.
     21 vectors produced by pass  0 Test12= 2.80D-14 4.17D-09 XBig12= 3.55D+01 2.36D+00.
 AX will form    21 AO Fock derivatives at one time.
     21 vectors produced by pass  1 Test12= 2.80D-14 4.17D-09 XBig12= 7.66D+00 4.60D-01.
     21 vectors produced by pass  2 Test12= 2.80D-14 4.17D-09 XBig12= 5.47D-01 2.30D-01.
     21 vectors produced by pass  3 Test12= 2.80D-14 4.17D-09 XBig12= 1.48D-02 1.68D-02.
     21 vectors produced by pass  4 Test12= 2.80D-14 4.17D-09 XBig12= 3.03D-04 2.01D-03.
     21 vectors produced by pass  5 Test12= 2.80D-14 4.17D-09 XBig12= 3.87D-06 2.35D-04.
     21 vectors produced by pass  6 Test12= 2.80D-14 4.17D-09 XBig12= 5.02D-08 2.71D-05.
     19 vectors produced by pass  7 Test12= 2.80D-14 4.17D-09 XBig12= 4.06D-10 2.32D-06.
      5 vectors produced by pass  8 Test12= 2.80D-14 4.17D-09 XBig12= 3.76D-12 2.49D-07.
[...]
 -------------------------------------------------------------------
 Cartesian Forces:  Max     0.012383514 RMS     0.005399322
 IRC-IRC-IRC-IRC-IRC-IRC-IRC-IRC-IRC-IRC-IRC-IRC-IRC-IRC-IRC-IRC-IRC-IRC
 Pt 20 Step number   1 out of a maximum of  20
 CORRECTOR INTEGRATION CONVERGENCE:
   Recorrection delta-x convergence threshold:    0.010000
   Delta-x Convergence Met
 Point Number:  10          Path Number:   2
   CHANGE IN THE REACTION COORDINATE =    0.10394
   NET REACTION COORDINATE UP TO THIS POINT =    1.02063
  # OF POINTS ALONG THE PATH =  20
  # OF STEPS =   1

 Maximum number of steps reached.
 Calculation of REVERSE path complete.
 Reaction path calculation complete.
 
 Energies reported relative to the TS energy of        -339.927059
 --------------------------------------------------------------------------
    Summary of reaction path following
 --------------------------------------------------------------------------
                        Energy   Rx Coord
   1                   -0.01272  -1.02063
   2                   -0.01156  -0.91669
   3                   -0.01037  -0.81275
   4                   -0.00914  -0.70881
   5                   -0.00787  -0.60486
   6                   -0.00654  -0.50105
   7                   -0.00520  -0.39889
   8                   -0.00383  -0.29897
   9                   -0.00241  -0.20755
  10                   -0.00077  -0.10394
  11                    0.00000   0.00000
  12                   -0.00097   0.10398
  13                   -0.00373   0.20792
  14                   -0.00723   0.31178
  15                   -0.01009   0.41470
  16                   -0.01214   0.51724
  17                   -0.01393   0.62110
  18                   -0.01556   0.72502
  19                   -0.01706   0.82894
  20                   -0.01843   0.93286
  21                   -0.01971   1.03681
 --------------------------------------------------------------------------
 
 Total number of points:                   20
 Total number of gradient calculations:    24
 Total number of Hessian calculations:     24
 IRC-IRC-IRC-IRC-IRC-IRC-IRC-IRC-IRC-IRC-IRC-IRC-IRC-IRC-IRC-IRC-IRC-IRC
                          Input orientation:                          
 ---------------------------------------------------------------------
 Center     Atomic      Atomic             Coordinates (Angstroms)
 Number     Number       Type             X           Y           Z
 ---------------------------------------------------------------------
      1          8           0       -1.860213   -0.691292   -0.352305
      2          1           0       -0.919804    0.211931    0.556117
      3          6           0        1.206641   -0.240832   -0.223417
      4          8           0        0.604231    0.949000   -0.341320
      5          8           0        0.785262   -1.173116    0.386835
      6          1           0        2.129926   -0.206161   -0.811384
      7          8           0       -0.510796    1.095726    0.490490
 ---------------------------------------------------------------------
                    Distance matrix (angstroms):
                    1          2          3          4          5
     1  O    0.000000
     2  H    1.589155   0.000000
     3  C    3.102438   2.309639   0.000000
     4  O    2.960433   1.916075   1.338843   0.000000
     5  O    2.788731   2.203238   1.191269   2.250857   0.000000
     6  H    4.045655   3.368340   1.095154   1.970560   2.044224
     7  O    2.392627   0.976057   2.290337   1.398829   2.614986
                    6          7
     6  H    0.000000
     7  O    3.219193   0.000000
 Symmetry turned off by external request.
 Stoichiometry    CH2O4(3)
 Framework group  C1[X(CH2O4)]
 Deg. of freedom    15
 Full point group                 C1      NOp   1
 Rotational constants (GHZ):      6.6913821      4.5993373      3.1146016

 **********************************************************************

            Population analysis using the SCF density.

 **********************************************************************

 Alpha  occ. eigenvalues --  -19.78773 -19.75168 -19.71436 -19.65785 -10.70364
 Alpha  occ. eigenvalues --   -1.34091  -1.21352  -1.18101  -1.07866  -0.76907
 Alpha  occ. eigenvalues --   -0.67586  -0.62400  -0.60311  -0.57842  -0.56989
 Alpha  occ. eigenvalues --   -0.52777  -0.52465  -0.49371  -0.46561  -0.40419
 Alpha  occ. eigenvalues --   -0.38701
 Alpha virt. eigenvalues --    0.00959   0.01756   0.03449   0.04996   0.06055
 Alpha virt. eigenvalues --    0.06762   0.13287   0.14987   0.16203   0.18025
 Alpha virt. eigenvalues --    0.18739   0.19666   0.22330   0.22819   0.23871
 Alpha virt. eigenvalues --    0.24670   0.25167   0.26507   0.28074   0.29778
 Alpha virt. eigenvalues --    0.30141   0.32092   0.33719   0.35356   0.37960
 Alpha virt. eigenvalues --    0.47003   0.51682   0.55272   0.56475   0.61331
 Alpha virt. eigenvalues --    0.65374   0.69566   0.73652   0.78070   0.83406
 Alpha virt. eigenvalues --    0.84396   0.91540   0.92808   0.97957   1.00743
 Alpha virt. eigenvalues --    1.03281   1.03944   1.04649   1.04963   1.07080
 Alpha virt. eigenvalues --    1.07553   1.10056   1.11276   1.16423   1.20940
 Alpha virt. eigenvalues --    1.23192   1.27790   1.29168   1.34660   1.38901
 Alpha virt. eigenvalues --    1.43581   1.45340   1.45682   1.48511   1.53747
 Alpha virt. eigenvalues --    1.55890   1.58990   1.63511   1.65009   1.68885
 Alpha virt. eigenvalues --    1.74006   1.83079   1.93428   1.96188   2.00125
 Alpha virt. eigenvalues --    2.07781   2.12468   2.19512   2.27947   2.34980
 Alpha virt. eigenvalues --    2.38884   2.41977   2.51763   2.62725   2.69702
 Alpha virt. eigenvalues --    2.76717   2.84879   2.95240   2.99478   3.03186
 Alpha virt. eigenvalues --    3.14541   3.21171   3.23314   3.33656   3.40931
 Alpha virt. eigenvalues --    3.45642   3.54031   3.54115   3.71809   3.77053
 Alpha virt. eigenvalues --    3.79682   3.94193   4.08537   4.10036   4.13270
 Alpha virt. eigenvalues --    4.32774   4.53007   4.59743   4.77367   4.85910
 Alpha virt. eigenvalues --    4.87931   4.89587   4.90960   4.91129   4.93302
 Alpha virt. eigenvalues --    4.94476   4.95143   4.95517   4.97687   4.99937
 Alpha virt. eigenvalues --    5.02218   5.04774   5.06271   5.08167   5.11466
 Alpha virt. eigenvalues --    5.12008   5.14302   5.15621   5.20379   5.24636
 Alpha virt. eigenvalues --    5.29534   5.39886   5.40978   5.43122   5.49678
 Alpha virt. eigenvalues --    5.52223   5.65240   5.82827   5.93441   6.02096
 Alpha virt. eigenvalues --    6.17628   6.34913   6.52977   6.53607   6.58611
 Alpha virt. eigenvalues --    6.60363   6.67647   6.74206   6.75170   6.80049
 Alpha virt. eigenvalues --    6.83425   6.87008   6.96563   7.02541   7.05299
 Alpha virt. eigenvalues --    7.09131   7.14093   7.15000   7.16651   7.26879
 Alpha virt. eigenvalues --    7.30253   7.43137   7.46417   7.61113   7.71443
 Alpha virt. eigenvalues --    7.79517   7.96504  24.77463  49.81026  49.97748
 Alpha virt. eigenvalues --   50.03199  50.24789
  Beta  occ. eigenvalues --  -19.75223 -19.75173 -19.71233 -19.65726 -10.70366
  Beta  occ. eigenvalues --   -1.33845  -1.21137  -1.08188  -0.99810  -0.76512
  Beta  occ. eigenvalues --   -0.66951  -0.61376  -0.59811  -0.52466  -0.51523
  Beta  occ. eigenvalues --   -0.46929  -0.43555  -0.40265  -0.38340
  Beta virt. eigenvalues --   -0.13710  -0.12995   0.01022   0.01758   0.03390
  Beta virt. eigenvalues --    0.04973   0.06024   0.07076   0.12550   0.15244
  Beta virt. eigenvalues --    0.16228   0.18023   0.18875   0.19733   0.22104
  Beta virt. eigenvalues --    0.22832   0.23926   0.25021   0.25617   0.26264
  Beta virt. eigenvalues --    0.27914   0.29804   0.30413   0.31906   0.33385
  Beta virt. eigenvalues --    0.35416   0.37533   0.46972   0.52342   0.55290
  Beta virt. eigenvalues --    0.56695   0.61561   0.65477   0.69627   0.73998
  Beta virt. eigenvalues --    0.78231   0.83548   0.85885   0.91863   0.93391
  Beta virt. eigenvalues --    0.98968   1.03079   1.04162   1.04593   1.05319
  Beta virt. eigenvalues --    1.06387   1.07317   1.09079   1.11097   1.11558
  Beta virt. eigenvalues --    1.16888   1.21144   1.23737   1.29010   1.30099
  Beta virt. eigenvalues --    1.35983   1.40885   1.45042   1.47300   1.50487
  Beta virt. eigenvalues --    1.52270   1.54590   1.56941   1.59572   1.64305
  Beta virt. eigenvalues --    1.67834   1.69486   1.77172   1.84287   1.93546
  Beta virt. eigenvalues --    1.96249   2.00414   2.08068   2.12630   2.19957
  Beta virt. eigenvalues --    2.28291   2.35654   2.39089   2.42012   2.51816
  Beta virt. eigenvalues --    2.62925   2.69791   2.76712   2.84986   2.95222
  Beta virt. eigenvalues --    2.99475   3.03172   3.14552   3.21186   3.23270
  Beta virt. eigenvalues --    3.33669   3.40964   3.45661   3.54048   3.54122
  Beta virt. eigenvalues --    3.71886   3.77540   3.79842   3.94723   4.08541
  Beta virt. eigenvalues --    4.10097   4.13308   4.32788   4.53193   4.59828
  Beta virt. eigenvalues --    4.77430   4.86114   4.92465   4.95435   4.97315
  Beta virt. eigenvalues --    4.98041   4.98339   4.99229   4.99407   4.99715
  Beta virt. eigenvalues --    5.01897   5.04115   5.04920   5.05851   5.09125
  Beta virt. eigenvalues --    5.09246   5.11709   5.13137   5.15138   5.16542
  Beta virt. eigenvalues --    5.21724   5.24993   5.29944   5.40063   5.41454
  Beta virt. eigenvalues --    5.43227   5.49727   5.52938   5.65376   5.82854
  Beta virt. eigenvalues --    5.93468   6.02215   6.17750   6.34984   6.58899
  Beta virt. eigenvalues --    6.70790   6.73461   6.75240   6.75999   6.80706
  Beta virt. eigenvalues --    6.81479   6.84516   6.86178   6.92152   6.97904
  Beta virt. eigenvalues --    7.02801   7.05424   7.09505   7.14817   7.16400
  Beta virt. eigenvalues --    7.23514   7.27249   7.32142   7.43223   7.46715
  Beta virt. eigenvalues --    7.61193   7.71533   7.79671   7.96502  24.77454
  Beta virt. eigenvalues --   49.80504  49.97642  50.03171  50.24740
          Condensed to atoms (all electrons):
              1          2          3          4          5          6
     1  O    7.971038   0.009549   0.010695   0.015027   0.002902   0.000185
     2  H    0.009549   0.471443  -0.017578  -0.024204   0.009707   0.000058
     3  C    0.010695  -0.017578   4.754938   0.222172   0.406035   0.454914
     4  O    0.015027  -0.024204   0.222172   7.868234  -0.076702  -0.075216
     5  O    0.002902   0.009707   0.406035  -0.076702   8.060521  -0.038456
     6  H    0.000185   0.000058   0.454914  -0.075216  -0.038456   0.489973
     7  O   -0.013400   0.263574  -0.028270   0.132582   0.015508   0.009000
              7
     1  O   -0.013400
     2  H    0.263574
     3  C   -0.028270
     4  O    0.132582
     5  O    0.015508
     6  H    0.009000
     7  O    7.827690
 Mulliken atomic charges:
              1
     1  O    0.004004
     2  H    0.287452
     3  C    0.197094
     4  O   -0.061893
     5  O   -0.379515
     6  H    0.159543
     7  O   -0.206684
 Sum of Mulliken atomic charges =   0.00000
 Mulliken charges with hydrogens summed into heavy atoms:
              1
     1  O    0.004004
     3  C    0.356636
     4  O   -0.061893
     5  O   -0.379515
     7  O    0.080768
 Sum of Mulliken charges with hydrogens summed into heavy atoms =   0.00000
          Atomic-Atomic Spin Densities.
              1          2          3          4          5          6
     1  O    1.957135  -0.010521   0.002837   0.007404  -0.011207  -0.000335
     2  H   -0.010521  -0.014586   0.002381  -0.001266   0.001261   0.000082
     3  C    0.002837   0.002381  -0.005210   0.002054   0.004260   0.001129
     4  O    0.007404  -0.001266   0.002054  -0.006431   0.000904   0.000179
     5  O   -0.011207   0.001261   0.004260   0.000904   0.015711  -0.001112
     6  H   -0.000335   0.000082   0.001129   0.000179  -0.001112   0.000796
     7  O   -0.017237   0.004608  -0.000317  -0.000323   0.000781   0.000137
              7
     1  O   -0.017237
     2  H    0.004608
     3  C   -0.000317
     4  O   -0.000323
     5  O    0.000781
     6  H    0.000137
     7  O    0.081190
 Mulliken atomic spin densities:
              1
     1  O    1.928076
     2  H   -0.018041
     3  C    0.007135
     4  O    0.002520
     5  O    0.010597
     6  H    0.000876
     7  O    0.068838
 Sum of Mulliken atomic spin densities =   2.00000
 APT atomic charges:
              1
     1  O    0.091620
     2  H    0.293496
     3  C    1.007270
     4  O   -0.459696
     5  O   -0.669800
     6  H    0.040749
     7  O   -0.303640
 Sum of APT charges=   0.00000
 APT Atomic charges with hydrogens summed into heavy atoms:
              1
     1  O    0.091620
     2  H    0.000000
     3  C    1.048019
     4  O   -0.459696
     5  O   -0.669800
     6  H    0.000000
     7  O   -0.010144
 Sum of APT charges=   0.00000
 Electronic spatial extent (au):  <R**2>=            383.6448
 Charge=              0.0000 electrons
 Dipole moment (field-independent basis, Debye):
    X=              0.5752    Y=             -0.2657    Z=             -1.0136  Tot=              1.1953
 Quadrupole moment (field-independent basis, Debye-Ang):
   XX=            -22.1577   YY=            -32.6671   ZZ=            -28.2562
   XY=              1.4688   XZ=             -2.2878   YZ=              0.9074
 Traceless Quadrupole moment (field-independent basis, Debye-Ang):
   XX=              5.5359   YY=             -4.9734   ZZ=             -0.5625
   XY=              1.4688   XZ=             -2.2878   YZ=              0.9074
 Octapole moment (field-independent basis, Debye-Ang**2):
  XXX=             -1.7651  YYY=              0.6933  ZZZ=              0.5677  XYY=             -4.7961
  XXY=             -0.6365  XXZ=             -2.2382  XZZ=             -0.2823  YZZ=              0.0783
  YYZ=             -1.5229  XYZ=              1.8520
 Hexadecapole moment (field-independent basis, Debye-Ang**3):
 XXXX=           -203.1752 YYYY=           -159.9976 ZZZZ=            -50.5152 XXXY=              2.1641
 XXXZ=             -6.4962 YYYX=              7.3339 YYYZ=             -0.3217 ZZZX=             -2.1984
 ZZZY=             -1.6969 XXYY=            -66.5525 XXZZ=            -45.7785 YYZZ=            -35.7387
 XXYZ=              1.3919 YYXZ=              0.0972 ZZXY=             -0.8339
 N-N= 1.716636812575D+02 E-N=-1.702591621863D+03  KE= 5.057331295004D+02
  Exact polarizability:  41.346   2.634  34.937  -2.322  -0.192  25.507
 Approx polarizability:  39.153   1.618  41.589  -4.056  -2.317  30.656
                          Isotropic Fermi Contact Couplings
        Atom                 a.u.       MegaHertz       Gauss      10(-4) cm-1
     1  O(17)              0.18438     -55.88511     -19.94120     -18.64127
     2  H(1)              -0.00684     -15.29567      -5.45788      -5.10209
     3  C(13)             -0.00144      -0.81074      -0.28929      -0.27043
     4  O(17)             -0.00122       0.37018       0.13209       0.12348
     5  O(17)              0.01793      -5.43440      -1.93913      -1.81272
     6  H(1)               0.00063       1.40469       0.50123       0.46855
     7  O(17)              0.00657      -1.99235      -0.71092      -0.66458
 --------------------------------------------------------
       Center         ----  Spin Dipole Couplings  ----
                      3XX-RR        3YY-RR        3ZZ-RR
 --------------------------------------------------------
     1   Atom        1.890181      1.874148     -3.764328
     2   Atom       -0.014637      0.022127     -0.007490
     3   Atom        0.016396     -0.007914     -0.008482
     4   Atom        0.014587      0.010075     -0.024662
     5   Atom        0.107332     -0.059393     -0.047938
     6   Atom        0.008813     -0.004272     -0.004540
     7   Atom       -0.015936      0.044253     -0.028317
 --------------------------------------------------------
                        XY            XZ            YZ
 --------------------------------------------------------
     1   Atom       -0.081983     -0.028135     -0.649867
     2   Atom        0.075758      0.066892      0.062385
     3   Atom        0.004091     -0.000879     -0.001264
     4   Atom        0.016541      0.011459      0.002641
     5   Atom       -0.028322      0.037978     -0.006489
     6   Atom        0.001600     -0.001906     -0.000306
     7   Atom        0.206498      0.185233      0.212805
 --------------------------------------------------------


 ---------------------------------------------------------------------------------
              Anisotropic Spin Dipole Couplings in Principal Axis System
 ---------------------------------------------------------------------------------

       Atom             a.u.   MegaHertz   Gauss  10(-4) cm-1        Axes

              Baa    -3.8385   277.751    99.109    92.648  0.0065  0.1131  0.9936
     1 O(17)  Bbb     1.8358  -132.840   -47.401   -44.311  0.8202  0.5677 -0.0700
              Bcc     2.0027  -144.912   -51.708   -48.337 -0.5720  0.8154 -0.0891
 
              Baa    -0.0821   -43.826   -15.638   -14.619  0.8223 -0.3132 -0.4751
     2 H(1)   Bbb    -0.0560   -29.887   -10.664    -9.969  0.1405 -0.6973  0.7029
              Bcc     0.1382    73.713    26.303    24.588  0.5514  0.6447  0.5294
 
              Baa    -0.0097    -1.296    -0.463    -0.432 -0.0882  0.7113  0.6974
     3 C(13)  Bbb    -0.0075    -1.000    -0.357    -0.334  0.1437 -0.6837  0.7155
              Bcc     0.0171     2.296     0.819     0.766  0.9857  0.1633 -0.0419
 
              Baa    -0.0279     2.016     0.719     0.672 -0.2803  0.0555  0.9583
     4 O(17)  Bbb    -0.0031     0.226     0.081     0.075 -0.5875  0.7796 -0.2170
              Bcc     0.0310    -2.242    -0.800    -0.748  0.7591  0.6239  0.1859
 
              Baa    -0.0641     4.637     1.654     1.547  0.1571  0.9872  0.0273
     5 O(17)  Bbb    -0.0567     4.105     1.465     1.369 -0.2241  0.0087  0.9745
              Bcc     0.1208    -8.742    -3.119    -2.916  0.9618 -0.1592  0.2226
 
              Baa    -0.0048    -2.575    -0.919    -0.859  0.1098  0.2189  0.9696
     6 H(1)   Bbb    -0.0044    -2.374    -0.847    -0.792 -0.1459  0.9684 -0.2021
              Bcc     0.0093     4.949     1.766     1.651  0.9832  0.1192 -0.1383
 
              Baa    -0.2116    15.310     5.463     5.107 -0.3894 -0.3826  0.8378
     7 O(17)  Bbb    -0.1945    14.073     5.022     4.694  0.7394 -0.6723  0.0367
              Bcc     0.4061   -29.383   -10.485    -9.801  0.5492  0.6338  0.5447
 

 ---------------------------------------------------------------------------------

 -------------------------------------------------------------------
 Center     Atomic                   Forces (Hartrees/Bohr)
 Number     Number              X              Y              Z
 -------------------------------------------------------------------
      1        8          -0.009943916   -0.012376503   -0.008660472
      2        1           0.006118407   -0.000528210    0.007170322
      3        6          -0.000533984   -0.000061344   -0.001444088
      4        8           0.004481036   -0.000016912   -0.000456185
      5        8          -0.002073478    0.000853561    0.000386356
      6        1          -0.000124968   -0.000254107   -0.000218284
      7        8           0.002076904    0.012383514    0.003222350
 -------------------------------------------------------------------
 Cartesian Forces:  Max     0.012383514 RMS     0.005399322

 This type of calculation cannot be archived.


 NATURE WILL TELL YOU A DIRECT LIE IF SHE CAN.

                                -- CHARLES DARWIN
 Job cpu time:  0 days 22 hours 48 minutes  5.6 seconds.
 File lengths (MBytes):  RWF=   1344 Int=      0 D2E=      0 Chk=     32 Scr=     32
 Normal termination of Gaussian 09 at Tue Aug  1 09:53:37 2017.
