 Entering Gaussian System, Link 0=/shared/apps/gaussian/G09_LINUX_LINDA/g09/g09
 Input=/gss_gpfs_scratch/westgroup/QMscratch/AALLQROOJJSXFA-UHFFFAOYSA-u1.gjf
 Output=/gss_gpfs_scratch/westgroup/QMscratch/AALLQROOJJSXFA-UHFFFAOYSA-u1.log
 Initial command:
 /shared/apps/gaussian/G09_LINUX_LINDA/g09/l1.exe /gss_gpfs_scratch/westgroup/rwest-autotst-1/Gau-998.inp -scrdir=/gss_gpfs_scratch/westgroup/rwest-autotst-1/
 Entering Link 1 = /shared/apps/gaussian/G09_LINUX_LINDA/g09/l1.exe PID=       999.
  
 Copyright (c) 1988,1990,1992,1993,1995,1998,2003,2009,2010,
            Gaussian, Inc.  All Rights Reserved.
  
 This is part of the Gaussian(R) 09 program.  It is based on
 the Gaussian(R) 03 system (copyright 2003, Gaussian, Inc.),
 the Gaussian(R) 98 system (copyright 1998, Gaussian, Inc.),
 the Gaussian(R) 94 system (copyright 1995, Gaussian, Inc.),
 the Gaussian 92(TM) system (copyright 1992, Gaussian, Inc.),
 the Gaussian 90(TM) system (copyright 1990, Gaussian, Inc.),
 the Gaussian 88(TM) system (copyright 1988, Gaussian, Inc.),
 the Gaussian 86(TM) system (copyright 1986, Carnegie Mellon
 University), and the Gaussian 82(TM) system (copyright 1983,
 Carnegie Mellon University). Gaussian is a federally registered
 trademark of Gaussian, Inc.
  
 This software contains proprietary and confidential information,
 including trade secrets, belonging to Gaussian, Inc.
  
 This software is provided under written license and may be
 used, copied, transmitted, or stored only in accord with that
 written license.
  
 The following legend is applicable only to US Government
 contracts under FAR:
  
                    RESTRICTED RIGHTS LEGEND
  
 Use, reproduction and disclosure by the US Government is
 subject to restrictions as set forth in subparagraphs (a)
 and (c) of the Commercial Computer Software - Restricted
 Rights clause in FAR 52.227-19.
  
 Gaussian, Inc.
 340 Quinnipiac St., Bldg. 40, Wallingford CT 06492
  
  
 ---------------------------------------------------------------
 Warning -- This program may not be used in any manner that
 competes with the business of Gaussian, Inc. or will provide
 assistance to any competitor of Gaussian, Inc.  The licensee
 of this program is prohibited from giving any competitor of
 Gaussian, Inc. access to this program.  By using this program,
 the user acknowledges that Gaussian, Inc. is engaged in the
 business of creating and licensing software in the field of
 computational chemistry and represents and warrants to the
 licensee that it is not a competitor of Gaussian, Inc. and that
 it will not use this program in any manner prohibited above.
 ---------------------------------------------------------------
  

 Cite this work as:
 Gaussian 09, Revision B.01,
 M. J. Frisch, G. W. Trucks, H. B. Schlegel, G. E. Scuseria, 
 M. A. Robb, J. R. Cheeseman, G. Scalmani, V. Barone, B. Mennucci, 
 G. A. Petersson, H. Nakatsuji, M. Caricato, X. Li, H. P. Hratchian, 
 A. F. Izmaylov, J. Bloino, G. Zheng, J. L. Sonnenberg, M. Hada, 
 M. Ehara, K. Toyota, R. Fukuda, J. Hasegawa, M. Ishida, T. Nakajima, 
 Y. Honda, O. Kitao, H. Nakai, T. Vreven, J. A. Montgomery, Jr., 
 J. E. Peralta, F. Ogliaro, M. Bearpark, J. J. Heyd, E. Brothers, 
 K. N. Kudin, V. N. Staroverov, T. Keith, R. Kobayashi, J. Normand, 
 K. Raghavachari, A. Rendell, J. C. Burant, S. S. Iyengar, J. Tomasi, 
 M. Cossi, N. Rega, J. M. Millam, M. Klene, J. E. Knox, J. B. Cross, 
 V. Bakken, C. Adamo, J. Jaramillo, R. Gomperts, R. E. Stratmann, 
 O. Yazyev, A. J. Austin, R. Cammi, C. Pomelli, J. W. Ochterski, 
 R. L. Martin, K. Morokuma, V. G. Zakrzewski, G. A. Voth, 
 P. Salvador, J. J. Dannenberg, S. Dapprich, A. D. Daniels, 
 O. Farkas, J. B. Foresman, J. V. Ortiz, J. Cioslowski, 
 and D. J. Fox, Gaussian, Inc., Wallingford CT, 2010.
 
 ******************************************
 Gaussian 09:  EM64L-G09RevB.01 12-Aug-2010
                10-Mar-2017 
 ******************************************
 %nprocshared=20
 Will use up to   20 processors via shared memory.
 %mem=5GB
 --------------------------------------------------------------
 # m062x/6-311+g(2df,2p) opt=(verytight,gdiis) freq IOP(2/16=3)
 --------------------------------------------------------------

 Warning!  Use of Opt=GDIIS is deprecated since it is seldom a good choice.

 1/7=1,14=-1,18=20,19=11,26=3,38=1/1,3;
 2/9=110,12=2,16=3,17=6,18=5,40=1/2;
 3/5=4,6=6,7=214,11=2,16=1,25=1,30=1,71=1,74=-55/1,2,3;
 4//1;
 5/5=2,38=5/2;
 6/7=2,8=2,9=2,10=2,28=1/1;
 7//1,2,3,16;
 1/7=1,14=-1,18=20,19=11/3(2);
 2/9=110,16=3/2;
 99//99;
 2/9=110,16=3/2;
 3/5=4,6=6,7=214,11=2,16=1,25=1,30=1,71=1,74=-55/1,2,3;
 4/5=5,16=3/1;
 5/5=2,38=5/2;
 7//1,2,3,16;
 1/7=1,14=-1,18=20,19=11/3(-5);
 2/9=110,16=3/2;
 6/7=2,8=2,9=2,10=2,19=2,28=1/1;
 99/9=1/99;
 ---------------------------------------
 InChI=1S/C3H3O3/c4-1-2-6-3-5/h3H,2H2/u1
 ---------------------------------------
 Symbolic Z-matrix:
 Charge =  0 Multiplicity = 2
 C                     0.7154   -0.3896   -0.176 
 C                    -1.6737    0.2479   -0.2352 
 O                    -0.3268    0.5357   -0.4671 
 C                     2.033     0.2096   -0.5401 
 H                     0.7103   -0.6401    0.9069 
 H                     0.5692   -1.3179   -0.768 
 O                    -2.028    -0.8602    0.2492 
 H                    -2.4239    0.9887   -0.4754 
 O                     2.4245    1.2259    0.0107 
 

 GradGradGradGradGradGradGradGradGradGradGradGradGradGradGradGradGradGrad
 Berny optimization.
 Initialization pass.
                           ----------------------------
                           !    Initial Parameters    !
                           ! (Angstroms and Degrees)  !
 --------------------------                            --------------------------
 ! Name  Definition              Value          Derivative Info.                !
 --------------------------------------------------------------------------------
 ! R1    R(1,3)                  1.4238         estimate D2E/DX2                !
 ! R2    R(1,4)                  1.4925         estimate D2E/DX2                !
 ! R3    R(1,5)                  1.1115         estimate D2E/DX2                !
 ! R4    R(1,6)                  1.1107         estimate D2E/DX2                !
 ! R5    R(2,3)                  1.3967         estimate D2E/DX2                !
 ! R6    R(2,7)                  1.2602         estimate D2E/DX2                !
 ! R7    R(2,8)                  1.0813         estimate D2E/DX2                !
 ! R8    R(4,9)                  1.2205         estimate D2E/DX2                !
 ! A1    A(3,1,4)              109.598          estimate D2E/DX2                !
 ! A2    A(3,1,5)              110.0173         estimate D2E/DX2                !
 ! A3    A(3,1,6)              109.7461         estimate D2E/DX2                !
 ! A4    A(4,1,5)              109.4021         estimate D2E/DX2                !
 ! A5    A(4,1,6)              108.7671         estimate D2E/DX2                !
 ! A6    A(5,1,6)              109.2886         estimate D2E/DX2                !
 ! A7    A(3,2,7)              121.0737         estimate D2E/DX2                !
 ! A8    A(3,2,8)              119.4058         estimate D2E/DX2                !
 ! A9    A(7,2,8)              119.5205         estimate D2E/DX2                !
 ! A10   A(1,3,2)              122.5506         estimate D2E/DX2                !
 ! A11   A(1,4,9)              120.4904         estimate D2E/DX2                !
 ! D1    D(4,1,3,2)            179.7353         estimate D2E/DX2                !
 ! D2    D(5,1,3,2)            -59.9329         estimate D2E/DX2                !
 ! D3    D(6,1,3,2)             60.3522         estimate D2E/DX2                !
 ! D4    D(3,1,4,9)             61.7462         estimate D2E/DX2                !
 ! D5    D(5,1,4,9)            -58.9596         estimate D2E/DX2                !
 ! D6    D(6,1,4,9)           -178.2707         estimate D2E/DX2                !
 ! D7    D(7,2,3,1)              0.0118         estimate D2E/DX2                !
 ! D8    D(8,2,3,1)           -179.9988         estimate D2E/DX2                !
 ! D9    D(3,2,7,8)            179.9894         estimate D2E/DX2                !
 --------------------------------------------------------------------------------
 Trust Radius=3.00D-01 FncErr=1.00D-07 GrdErr=1.00D-06
 Number of steps in this run=     38 maximum allowed number of steps=    100.
 GradGradGradGradGradGradGradGradGradGradGradGradGradGradGradGradGradGrad

                          Input orientation:                          
 ---------------------------------------------------------------------
 Center     Atomic      Atomic             Coordinates (Angstroms)
 Number     Number       Type             X           Y           Z
 ---------------------------------------------------------------------
      1          6           0        0.715400   -0.389600   -0.176000
      2          6           0       -1.673700    0.247900   -0.235200
      3          8           0       -0.326800    0.535700   -0.467100
      4          6           0        2.033000    0.209600   -0.540100
      5          1           0        0.710300   -0.640100    0.906900
      6          1           0        0.569200   -1.317900   -0.768000
      7          8           0       -2.028000   -0.860200    0.249200
      8          1           0       -2.423900    0.988700   -0.475400
      9          8           0        2.424500    1.225900    0.010700
 ---------------------------------------------------------------------
                    Distance matrix (angstroms):
                    1          2          3          4          5
     1  C    0.000000
     2  C    2.473400   0.000000
     3  O    1.423763   1.396691   0.000000
     4  C    1.492541   3.719416   2.383344   0.000000
     5  H    1.111507   2.788618   2.084696   2.136664   0.000000
     6  H    1.110666   2.786791   2.080671   2.127887   1.812350
     7  O    2.815760   1.260182   2.314239   4.273077   2.824766
     8  H    3.441592   1.081333   2.145485   4.524946   3.793014
     9  O    2.359178   4.220450   2.876512   1.220458   2.687678
                    6          7          8          9
     6  H    0.000000
     7  O    2.826594   0.000000
     8  H    3.790075   2.024898   0.000000
     9  O    3.243367   4.922748   4.878477   0.000000
 Stoichiometry    C3H3O3(2)
 Framework group  C1[X(C3H3O3)]
 Deg. of freedom    21
 Full point group                 C1      NOp   1
 Largest Abelian subgroup         C1      NOp   1
 Largest concise Abelian subgroup C1      NOp   1
                         Standard orientation:                         
 ---------------------------------------------------------------------
 Center     Atomic      Atomic             Coordinates (Angstroms)
 Number     Number       Type             X           Y           Z
 ---------------------------------------------------------------------
      1          6           0       -0.429132    0.663465   -0.082690
      2          6           0        1.714838   -0.569600   -0.057140
      3          8           0        0.330250   -0.531012   -0.236514
      4          6           0       -1.870233    0.377938   -0.346094
      5          1           0       -0.313564    1.057429    0.950212
      6          1           0       -0.077822    1.427513   -0.808218
      7          8           0        2.359626    0.467631    0.253436
      8          1           0        2.241145   -1.505246   -0.186940
      9          8           0       -2.482700   -0.412933    0.353138
 ---------------------------------------------------------------------
 Rotational constants (GHZ):     14.8212143      1.7976987      1.6786022
 Standard basis: 6-311+G(2df,2p) (5D, 7F)
 There are   231 symmetry adapted basis functions of A   symmetry.
 Integral buffers will be    131072 words long.
 Raffenetti 2 integral format.
 Two-electron integral symmetry is turned on.
   231 basis functions,   345 primitive gaussians,   261 cartesian basis functions
    23 alpha electrons       22 beta electrons
       nuclear repulsion energy       209.2550265765 Hartrees.
 NAtoms=    9 NActive=    9 NUniq=    9 SFac= 1.00D+00 NAtFMM=   50 NAOKFM=F Big=F
 One-electron integrals computed using PRISM.
 NBasis=   231 RedAO= T  NBF=   231
 NBsUse=   231 1.00D-06 NBFU=   231
 Harris functional with IExCor= 1009 diagonalized for initial guess.
 ExpMin= 4.38D-02 ExpMax= 8.59D+03 ExpMxC= 1.30D+03 IAcc=2 IRadAn=         0 AccDes= 0.00D+00
 HarFok:  IExCor= 1009 AccDes= 0.00D+00 IRadAn=         0 IDoV= 1
 ScaDFX=  1.000000  1.000000  1.000000  1.000000
 FoFCou: FMM=F IPFlag=           0 FMFlag=      100000 FMFlg1=           0
         NFxFlg=           0 DoJE=T BraDBF=F KetDBF=T FulRan=T
         Omega=  0.000000  0.000000  1.000000  0.000000  0.000000 ICntrl=     500 IOpCl=  0
         NMat0=    1 NMatS0=    1 NMatT0=    0 NMatD0=    1 NMtDS0=    0 NMtDT0=    0
         I1Cent=           4 NGrid=           0.
 Petite list used in FoFCou.
 Initial guess orbital symmetries:
 Alpha Orbitals:
       Occupied  (A) (A) (A) (A) (A) (A) (A) (A) (A) (A) (A) (A)
                 (A) (A) (A) (A) (A) (A) (A) (A) (A) (A) (A)
       Virtual   (A) (A) (A) (A) (A) (A) (A) (A) (A) (A) (A) (A)
                 (A) (A) (A) (A) (A) (A) (A) (A) (A) (A) (A) (A)
                 (A) (A) (A) (A) (A) (A) (A) (A) (A) (A) (A) (A)
                 (A) (A) (A) (A) (A) (A) (A) (A) (A) (A) (A) (A)
                 (A) (A) (A) (A) (A) (A) (A) (A) (A) (A) (A) (A)
                 (A) (A) (A) (A) (A) (A) (A) (A) (A) (A) (A) (A)
                 (A) (A) (A) (A) (A) (A) (A) (A) (A) (A) (A) (A)
                 (A) (A) (A) (A) (A) (A) (A) (A) (A) (A) (A) (A)
                 (A) (A) (A) (A) (A) (A) (A) (A) (A) (A) (A) (A)
                 (A) (A) (A) (A) (A) (A) (A) (A) (A) (A) (A) (A)
                 (A) (A) (A) (A) (A) (A) (A) (A) (A) (A) (A) (A)
                 (A) (A) (A) (A) (A) (A) (A) (A) (A) (A) (A) (A)
                 (A) (A) (A) (A) (A) (A) (A) (A) (A) (A) (A) (A)
                 (A) (A) (A) (A) (A) (A) (A) (A) (A) (A) (A) (A)
                 (A) (A) (A) (A) (A) (A) (A) (A) (A) (A) (A) (A)
                 (A) (A) (A) (A) (A) (A) (A) (A) (A) (A) (A) (A)
                 (A) (A) (A) (A) (A) (A) (A) (A) (A) (A) (A) (A)
                 (A) (A) (A) (A)
 Beta  Orbitals:
       Occupied  (A) (A) (A) (A) (A) (A) (A) (A) (A) (A) (A) (A)
                 (A) (A) (A) (A) (A) (A) (A) (A) (A) (A)
       Virtual   (A) (A) (A) (A) (A) (A) (A) (A) (A) (A) (A) (A)
                 (A) (A) (A) (A) (A) (A) (A) (A) (A) (A) (A) (A)
                 (A) (A) (A) (A) (A) (A) (A) (A) (A) (A) (A) (A)
                 (A) (A) (A) (A) (A) (A) (A) (A) (A) (A) (A) (A)
                 (A) (A) (A) (A) (A) (A) (A) (A) (A) (A) (A) (A)
                 (A) (A) (A) (A) (A) (A) (A) (A) (A) (A) (A) (A)
                 (A) (A) (A) (A) (A) (A) (A) (A) (A) (A) (A) (A)
                 (A) (A) (A) (A) (A) (A) (A) (A) (A) (A) (A) (A)
                 (A) (A) (A) (A) (A) (A) (A) (A) (A) (A) (A) (A)
                 (A) (A) (A) (A) (A) (A) (A) (A) (A) (A) (A) (A)
                 (A) (A) (A) (A) (A) (A) (A) (A) (A) (A) (A) (A)
                 (A) (A) (A) (A) (A) (A) (A) (A) (A) (A) (A) (A)
                 (A) (A) (A) (A) (A) (A) (A) (A) (A) (A) (A) (A)
                 (A) (A) (A) (A) (A) (A) (A) (A) (A) (A) (A) (A)
                 (A) (A) (A) (A) (A) (A) (A) (A) (A) (A) (A) (A)
                 (A) (A) (A) (A) (A) (A) (A) (A) (A) (A) (A) (A)
                 (A) (A) (A) (A) (A) (A) (A) (A) (A) (A) (A) (A)
                 (A) (A) (A) (A) (A)
 The electronic state of the initial guess is 2-A.
 Initial guess <Sx>= 0.0000 <Sy>= 0.0000 <Sz>= 0.5000 <S**2>= 0.7500 S= 0.5000
 Requested convergence on RMS density matrix=1.00D-08 within 128 cycles.
 Requested convergence on MAX density matrix=1.00D-06.
 Requested convergence on             energy=1.00D-06.
 No special actions if energy rises.
 SCF Done:  E(UM062X) =  -341.685702078     A.U. after   16 cycles
             Convg  =    0.7150D-08             -V/T =  2.0048
 <Sx>= 0.0000 <Sy>= 0.0000 <Sz>= 0.5000 <S**2>= 0.7543 S= 0.5021
 <L.S>= 0.000000000000E+00
 Annihilation of the first spin contaminant:
 S**2 before annihilation     0.7543,   after     0.7500

 **********************************************************************

            Population analysis using the SCF density.

 **********************************************************************

 Orbital symmetries:
 Alpha Orbitals:
       Occupied  (A) (A) (A) (A) (A) (A) (A) (A) (A) (A) (A) (A)
                 (A) (A) (A) (A) (A) (A) (A) (A) (A) (A) (A)
       Virtual   (A) (A) (A) (A) (A) (A) (A) (A) (A) (A) (A) (A)
                 (A) (A) (A) (A) (A) (A) (A) (A) (A) (A) (A) (A)
                 (A) (A) (A) (A) (A) (A) (A) (A) (A) (A) (A) (A)
                 (A) (A) (A) (A) (A) (A) (A) (A) (A) (A) (A) (A)
                 (A) (A) (A) (A) (A) (A) (A) (A) (A) (A) (A) (A)
                 (A) (A) (A) (A) (A) (A) (A) (A) (A) (A) (A) (A)
                 (A) (A) (A) (A) (A) (A) (A) (A) (A) (A) (A) (A)
                 (A) (A) (A) (A) (A) (A) (A) (A) (A) (A) (A) (A)
                 (A) (A) (A) (A) (A) (A) (A) (A) (A) (A) (A) (A)
                 (A) (A) (A) (A) (A) (A) (A) (A) (A) (A) (A) (A)
                 (A) (A) (A) (A) (A) (A) (A) (A) (A) (A) (A) (A)
                 (A) (A) (A) (A) (A) (A) (A) (A) (A) (A) (A) (A)
                 (A) (A) (A) (A) (A) (A) (A) (A) (A) (A) (A) (A)
                 (A) (A) (A) (A) (A) (A) (A) (A) (A) (A) (A) (A)
                 (A) (A) (A) (A) (A) (A) (A) (A) (A) (A) (A) (A)
                 (A) (A) (A) (A) (A) (A) (A) (A) (A) (A) (A) (A)
                 (A) (A) (A) (A) (A) (A) (A) (A) (A) (A) (A) (A)
                 (A) (A) (A) (A)
 Beta  Orbitals:
       Occupied  (A) (A) (A) (A) (A) (A) (A) (A) (A) (A) (A) (A)
                 (A) (A) (A) (A) (A) (A) (A) (A) (A) (A)
       Virtual   (A) (A) (A) (A) (A) (A) (A) (A) (A) (A) (A) (A)
                 (A) (A) (A) (A) (A) (A) (A) (A) (A) (A) (A) (A)
                 (A) (A) (A) (A) (A) (A) (A) (A) (A) (A) (A) (A)
                 (A) (A) (A) (A) (A) (A) (A) (A) (A) (A) (A) (A)
                 (A) (A) (A) (A) (A) (A) (A) (A) (A) (A) (A) (A)
                 (A) (A) (A) (A) (A) (A) (A) (A) (A) (A) (A) (A)
                 (A) (A) (A) (A) (A) (A) (A) (A) (A) (A) (A) (A)
                 (A) (A) (A) (A) (A) (A) (A) (A) (A) (A) (A) (A)
                 (A) (A) (A) (A) (A) (A) (A) (A) (A) (A) (A) (A)
                 (A) (A) (A) (A) (A) (A) (A) (A) (A) (A) (A) (A)
                 (A) (A) (A) (A) (A) (A) (A) (A) (A) (A) (A) (A)
                 (A) (A) (A) (A) (A) (A) (A) (A) (A) (A) (A) (A)
                 (A) (A) (A) (A) (A) (A) (A) (A) (A) (A) (A) (A)
                 (A) (A) (A) (A) (A) (A) (A) (A) (A) (A) (A) (A)
                 (A) (A) (A) (A) (A) (A) (A) (A) (A) (A) (A) (A)
                 (A) (A) (A) (A) (A) (A) (A) (A) (A) (A) (A) (A)
                 (A) (A) (A) (A) (A) (A) (A) (A) (A) (A) (A) (A)
                 (A) (A) (A) (A) (A)
 The electronic state is 2-A.
 Alpha  occ. eigenvalues --  -19.70564 -19.70011 -19.65018 -10.71434 -10.66472
 Alpha  occ. eigenvalues --  -10.65062  -1.24573  -1.22231  -1.14986  -0.89468
 Alpha  occ. eigenvalues --   -0.74590  -0.66629  -0.64093  -0.60577  -0.58881
 Alpha  occ. eigenvalues --   -0.55940  -0.52517  -0.50634  -0.47579  -0.46185
 Alpha  occ. eigenvalues --   -0.40165  -0.38786  -0.30550
 Alpha virt. eigenvalues --   -0.03894  -0.00850   0.01471   0.02483   0.03969
 Alpha virt. eigenvalues --    0.04258   0.05963   0.06314   0.07417   0.08720
 Alpha virt. eigenvalues --    0.09345   0.11161   0.13929   0.15617   0.17000
 Alpha virt. eigenvalues --    0.19135   0.20219   0.21207   0.21890   0.22338
 Alpha virt. eigenvalues --    0.23443   0.24624   0.26566   0.27402   0.27866
 Alpha virt. eigenvalues --    0.28470   0.29268   0.30923   0.31415   0.33573
 Alpha virt. eigenvalues --    0.35975   0.37990   0.41424   0.44277   0.48799
 Alpha virt. eigenvalues --    0.49967   0.50530   0.54197   0.55263   0.55875
 Alpha virt. eigenvalues --    0.57967   0.59188   0.60851   0.63060   0.64996
 Alpha virt. eigenvalues --    0.65867   0.68784   0.70786   0.77281   0.78902
 Alpha virt. eigenvalues --    0.81059   0.83121   0.83522   0.85780   0.91916
 Alpha virt. eigenvalues --    0.95962   0.97286   1.02492   1.04833   1.04952
 Alpha virt. eigenvalues --    1.07713   1.08813   1.11477   1.12082   1.13442
 Alpha virt. eigenvalues --    1.14026   1.16624   1.19028   1.20917   1.21862
 Alpha virt. eigenvalues --    1.25483   1.26376   1.28043   1.32529   1.34694
 Alpha virt. eigenvalues --    1.36394   1.38109   1.43483   1.44967   1.49795
 Alpha virt. eigenvalues --    1.53509   1.55124   1.58739   1.61417   1.64293
 Alpha virt. eigenvalues --    1.67727   1.68020   1.79426   1.83497   1.89594
 Alpha virt. eigenvalues --    1.95474   2.00089   2.02080   2.07220   2.15707
 Alpha virt. eigenvalues --    2.23159   2.24897   2.37665   2.43456   2.45360
 Alpha virt. eigenvalues --    2.47480   2.58349   2.62526   2.72391   2.74229
 Alpha virt. eigenvalues --    2.76135   2.78592   2.79001   2.85949   2.88144
 Alpha virt. eigenvalues --    2.91112   2.98196   2.98915   3.01569   3.02989
 Alpha virt. eigenvalues --    3.08069   3.08943   3.12105   3.14097   3.21515
 Alpha virt. eigenvalues --    3.23779   3.25586   3.29817   3.32690   3.34205
 Alpha virt. eigenvalues --    3.35056   3.37847   3.43871   3.45768   3.48473
 Alpha virt. eigenvalues --    3.49992   3.52419   3.54267   3.56785   3.58202
 Alpha virt. eigenvalues --    3.63082   3.67111   3.76637   3.77134   3.83504
 Alpha virt. eigenvalues --    3.87088   3.90147   3.94267   4.02179   4.05044
 Alpha virt. eigenvalues --    4.10045   4.15489   4.19659   4.24864   4.29551
 Alpha virt. eigenvalues --    4.38911   4.43373   4.44779   4.62155   5.02207
 Alpha virt. eigenvalues --    5.03142   5.03692   5.04760   5.08402   5.09839
 Alpha virt. eigenvalues --    5.11089   5.13219   5.14466   5.15822   5.16473
 Alpha virt. eigenvalues --    5.19707   5.26232   5.32664   5.34073   5.36518
 Alpha virt. eigenvalues --    5.39203   5.41098   5.44138   5.51706   5.58442
 Alpha virt. eigenvalues --    5.66214   5.73066   5.83687   5.88616   6.09094
 Alpha virt. eigenvalues --    6.16676   6.30646   6.35331   6.51181   6.69276
 Alpha virt. eigenvalues --    6.76246   6.77694   6.78133   6.87633   6.90361
 Alpha virt. eigenvalues --    6.96347   7.03692   7.07802   7.14096   7.15536
 Alpha virt. eigenvalues --    7.21599   7.27927   7.40835   7.51832   7.57211
 Alpha virt. eigenvalues --    7.67635   7.74526  24.27651  24.51595  24.58592
 Alpha virt. eigenvalues --   50.05912  50.11585  50.18984
  Beta  occ. eigenvalues --  -19.70547 -19.69277 -19.65021 -10.71422 -10.65743
  Beta  occ. eigenvalues --  -10.64803  -1.24299  -1.20195  -1.14911  -0.88185
  Beta  occ. eigenvalues --   -0.73760  -0.65499  -0.63222  -0.59852  -0.57821
  Beta  occ. eigenvalues --   -0.54060  -0.50605  -0.48461  -0.46469  -0.44006
  Beta  occ. eigenvalues --   -0.39967  -0.38728
  Beta virt. eigenvalues --   -0.07322  -0.02566  -0.00813   0.01628   0.02510
  Beta virt. eigenvalues --    0.03845   0.04213   0.06047   0.06341   0.07283
  Beta virt. eigenvalues --    0.08417   0.09515   0.10731   0.13474   0.15261
  Beta virt. eigenvalues --    0.17320   0.18908   0.20265   0.21228   0.22009
  Beta virt. eigenvalues --    0.22412   0.23392   0.24664   0.26664   0.27338
  Beta virt. eigenvalues --    0.28157   0.28438   0.29534   0.31057   0.31481
  Beta virt. eigenvalues --    0.33695   0.35877   0.38294   0.42323   0.44212
  Beta virt. eigenvalues --    0.49011   0.49810   0.50719   0.54244   0.55255
  Beta virt. eigenvalues --    0.56268   0.58009   0.59332   0.60974   0.63565
  Beta virt. eigenvalues --    0.64915   0.65535   0.68686   0.71001   0.77315
  Beta virt. eigenvalues --    0.79245   0.81551   0.83252   0.83347   0.85950
  Beta virt. eigenvalues --    0.91974   0.96113   0.96972   1.01895   1.04915
  Beta virt. eigenvalues --    1.04991   1.07679   1.08803   1.11781   1.12384
  Beta virt. eigenvalues --    1.13554   1.13969   1.16639   1.18799   1.21211
  Beta virt. eigenvalues --    1.21938   1.25507   1.26462   1.28265   1.32955
  Beta virt. eigenvalues --    1.34767   1.36529   1.38319   1.43539   1.44965
  Beta virt. eigenvalues --    1.49802   1.53699   1.55387   1.59100   1.61732
  Beta virt. eigenvalues --    1.64438   1.67987   1.68280   1.80121   1.83527
  Beta virt. eigenvalues --    1.89657   1.95523   2.00197   2.02254   2.07466
  Beta virt. eigenvalues --    2.16389   2.23389   2.25136   2.37777   2.43719
  Beta virt. eigenvalues --    2.45790   2.47944   2.58837   2.62780   2.74140
  Beta virt. eigenvalues --    2.74823   2.76836   2.79908   2.80989   2.87324
  Beta virt. eigenvalues --    2.89922   2.91255   2.98513   2.99817   3.02367
  Beta virt. eigenvalues --    3.03189   3.08851   3.09896   3.13247   3.15615
  Beta virt. eigenvalues --    3.25143   3.25477   3.27086   3.30857   3.33696
  Beta virt. eigenvalues --    3.35053   3.38095   3.41797   3.44816   3.47392
  Beta virt. eigenvalues --    3.49344   3.51993   3.53302   3.55570   3.58490
  Beta virt. eigenvalues --    3.59506   3.64061   3.68463   3.77293   3.77981
  Beta virt. eigenvalues --    3.84570   3.87539   3.90592   3.95666   4.02838
  Beta virt. eigenvalues --    4.05696   4.10231   4.16608   4.20423   4.25347
  Beta virt. eigenvalues --    4.31374   4.39821   4.43748   4.44920   4.64507
  Beta virt. eigenvalues --    5.02440   5.03623   5.04310   5.04884   5.08643
  Beta virt. eigenvalues --    5.10121   5.11435   5.13237   5.15065   5.15989
  Beta virt. eigenvalues --    5.16561   5.21882   5.26296   5.32753   5.34171
  Beta virt. eigenvalues --    5.36518   5.39413   5.41324   5.44498   5.51919
  Beta virt. eigenvalues --    5.59103   5.66419   5.73160   5.83742   5.88741
  Beta virt. eigenvalues --    6.09115   6.17045   6.30880   6.36859   6.51309
  Beta virt. eigenvalues --    6.69339   6.77880   6.79108   6.80751   6.87766
  Beta virt. eigenvalues --    6.92086   6.96489   7.03722   7.07882   7.14062
  Beta virt. eigenvalues --    7.15500   7.23095   7.29143   7.40852   7.52423
  Beta virt. eigenvalues --    7.57220   7.67661   7.74547  24.28037  24.52503
  Beta virt. eigenvalues --   24.58650  50.05895  50.11000  50.18975
          Condensed to atoms (all electrons):
              1          2          3          4          5          6
     1  C    5.296222  -0.087694   0.093162   0.007668   0.393322   0.474414
     2  C   -0.087694   4.764172   0.197754  -0.009782   0.007997   0.005697
     3  O    0.093162   0.197754   8.126356  -0.073115  -0.030277  -0.044644
     4  C    0.007668  -0.009782  -0.073115   5.775554  -0.011657  -0.086110
     5  H    0.393322   0.007997  -0.030277  -0.011657   0.499249  -0.031659
     6  H    0.474414   0.005697  -0.044644  -0.086110  -0.031659   0.506425
     7  O   -0.027631   0.428708  -0.047882   0.036491   0.003025   0.002530
     8  H    0.008257   0.448436  -0.058505   0.000900   0.000031  -0.000041
     9  O   -0.059884   0.001524   0.020990   0.320215  -0.008098   0.005351
              7          8          9
     1  C   -0.027631   0.008257  -0.059884
     2  C    0.428708   0.448436   0.001524
     3  O   -0.047882  -0.058505   0.020990
     4  C    0.036491   0.000900   0.320215
     5  H    0.003025   0.000031  -0.008098
     6  H    0.002530  -0.000041   0.005351
     7  O    8.013120  -0.037359   0.000207
     8  H   -0.037359   0.454417   0.000020
     9  O    0.000207   0.000020   7.879765
 Mulliken atomic charges:
              1
     1  C   -0.097836
     2  C    0.243190
     3  O   -0.183839
     4  C    0.039837
     5  H    0.178066
     6  H    0.168036
     7  O   -0.371210
     8  H    0.183844
     9  O   -0.160089
 Sum of Mulliken atomic charges =   0.00000
 Mulliken charges with hydrogens summed into heavy atoms:
              1
     1  C    0.248266
     2  C    0.427034
     3  O   -0.183839
     4  C    0.039837
     7  O   -0.371210
     9  O   -0.160089
 Sum of Mulliken charges with hydrogens summed into heavy atoms =   0.00000
          Atomic-Atomic Spin Densities.
              1          2          3          4          5          6
     1  C    0.253709  -0.000984  -0.035152  -0.099734  -0.011465   0.005171
     2  C   -0.000984   0.008269  -0.000432   0.002719  -0.000225  -0.000595
     3  O   -0.035152  -0.000432   0.017837   0.016574   0.003153  -0.000763
     4  C   -0.099734   0.002719   0.016574   0.865449   0.007017  -0.002695
     5  H   -0.011465  -0.000225   0.003153   0.007017   0.004372  -0.000136
     6  H    0.005171  -0.000595  -0.000763  -0.002695  -0.000136  -0.005065
     7  O    0.000359   0.000107  -0.000095  -0.000223  -0.000039   0.000046
     8  H   -0.000343   0.000653  -0.000248   0.000074   0.000050  -0.000017
     9  O   -0.006821   0.000211   0.006518  -0.182106   0.004507  -0.001061
              7          8          9
     1  C    0.000359  -0.000343  -0.006821
     2  C    0.000107   0.000653   0.000211
     3  O   -0.000095  -0.000248   0.006518
     4  C   -0.000223   0.000074  -0.182106
     5  H   -0.000039   0.000050   0.004507
     6  H    0.000046  -0.000017  -0.001061
     7  O   -0.001427  -0.000341   0.000019
     8  H   -0.000341   0.000983   0.000082
     9  O    0.000019   0.000082   0.448300
 Mulliken atomic spin densities:
              1
     1  C    0.104740
     2  C    0.009723
     3  O    0.007392
     4  C    0.607075
     5  H    0.007234
     6  H   -0.005113
     7  O   -0.001593
     8  H    0.000895
     9  O    0.269649
 Sum of Mulliken atomic spin densities =   1.00000
 Electronic spatial extent (au):  <R**2>=            653.0960
 Charge=              0.0000 electrons
 Dipole moment (field-independent basis, Debye):
    X=              0.6946    Y=             -0.2084    Z=             -0.6147  Tot=              0.9507
 Quadrupole moment (field-independent basis, Debye-Ang):
   XX=            -43.5490   YY=            -32.1401   ZZ=            -33.4975
   XY=             -7.6539   XZ=             -1.1894   YZ=              0.3191
 Traceless Quadrupole moment (field-independent basis, Debye-Ang):
   XX=             -7.1535   YY=              4.2554   ZZ=              2.8981
   XY=             -7.6539   XZ=             -1.1894   YZ=              0.3191
 Octapole moment (field-independent basis, Debye-Ang**2):
  XXX=              8.0805  YYY=             -4.3830  ZZZ=              2.9129  XYY=              5.4497
  XXY=            -12.5872  XXZ=             -4.8325  XZZ=              1.9880  YZZ=             -0.0900
  YYZ=              0.4461  XYZ=             -2.0470
 Hexadecapole moment (field-independent basis, Debye-Ang**3):
 XXXX=           -746.9648 YYYY=            -99.0753 ZZZZ=            -50.5783 XXXY=            -32.5684
 XXXZ=            -11.9766 YYYX=             -2.3555 YYYZ=              0.7869 ZZZX=             -5.6237
 ZZZY=              1.7297 XXYY=           -119.5454 XXZZ=           -120.9041 YYZZ=            -24.9099
 XXYZ=              4.3131 YYXZ=             -3.5118 ZZXY=              2.4463
 N-N= 2.092550265765D+02 E-N=-1.823116534816D+03  KE= 5.089584399397D+02
                          Isotropic Fermi Contact Couplings
        Atom                 a.u.       MegaHertz       Gauss      10(-4) cm-1
     1  C(13)              0.18927     212.77761      75.92434      70.97497
     2  C(13)              0.00809       9.09973       3.24701       3.03534
     3  O(17)              0.02624     -15.90670      -5.67590      -5.30590
     4  C(13)              0.37896     426.01871     152.01407     142.10455
     5  H(1)               0.00262      11.70774       4.17761       3.90528
     6  H(1)              -0.00097      -4.34071      -1.54887      -1.44790
     7  O(17)              0.00023      -0.13839      -0.04938      -0.04616
     8  H(1)               0.00055       2.47800       0.88421       0.82657
     9  O(17)              0.08171     -49.53408     -17.67499     -16.52279
 --------------------------------------------------------
       Center         ----  Spin Dipole Couplings  ----
                      3XX-RR        3YY-RR        3ZZ-RR
 --------------------------------------------------------
     1   Atom        0.152138     -0.076352     -0.075785
     2   Atom        0.014228     -0.007576     -0.006652
     3   Atom        0.020864     -0.008927     -0.011937
     4   Atom       -0.097394     -0.086279      0.183674
     5   Atom        0.001700     -0.009153      0.007452
     6   Atom        0.010537     -0.000164     -0.010373
     7   Atom        0.006069     -0.001375     -0.004693
     8   Atom        0.002057     -0.000129     -0.001928
     9   Atom        0.455344     -0.534500      0.079156
 --------------------------------------------------------
                        XY            XZ            YZ
 --------------------------------------------------------
     1   Atom        0.081596      0.071824      0.015614
     2   Atom       -0.002480     -0.001085     -0.000271
     3   Atom       -0.022479      0.006892     -0.013271
     4   Atom       -0.242653      0.346228     -0.331647
     5   Atom        0.006808      0.011623      0.010331
     6   Atom        0.018540     -0.008204     -0.009974
     7   Atom        0.000943      0.000574      0.001756
     8   Atom       -0.002065     -0.000044      0.000057
     9   Atom       -0.577316      1.055151     -0.561955
 --------------------------------------------------------


 ---------------------------------------------------------------------------------
              Anisotropic Spin Dipole Couplings in Principal Axis System
 ---------------------------------------------------------------------------------

       Atom             a.u.   MegaHertz   Gauss  10(-4) cm-1        Axes

              Baa    -0.1066   -14.308    -5.105    -4.773 -0.3837  0.7759  0.5007
     1 C(13)  Bbb    -0.0912   -12.243    -4.369    -4.084 -0.0558 -0.5607  0.8261
              Bcc     0.1979    26.551     9.474     8.856  0.9218  0.2890  0.2584
 
              Baa    -0.0080    -1.070    -0.382    -0.357  0.1202  0.9485  0.2932
     2 C(13)  Bbb    -0.0066    -0.884    -0.315    -0.295  0.0144 -0.2970  0.9548
              Bcc     0.0146     1.954     0.697     0.652  0.9926 -0.1106 -0.0494
 
              Baa    -0.0268     1.938     0.691     0.646  0.2851  0.7766  0.5618
     3 O(17)  Bbb    -0.0094     0.681     0.243     0.227 -0.4731 -0.3958  0.7871
              Bcc     0.0362    -2.619    -0.934    -0.873  0.8336 -0.4902  0.2546
 
              Baa    -0.3392   -45.511   -16.240   -15.181  0.8466  0.4588 -0.2697
     4 C(13)  Bbb    -0.3077   -41.293   -14.734   -13.774 -0.1981  0.7420  0.6404
              Bcc     0.6469    86.804    30.974    28.955  0.4939 -0.4888  0.7191
 
              Baa    -0.0142    -7.598    -2.711    -2.534 -0.1205  0.9198 -0.3735
     5 H(1)   Bbb    -0.0073    -3.881    -1.385    -1.295  0.8187 -0.1208 -0.5614
              Bcc     0.0215    11.479     4.096     3.829  0.5615  0.3734  0.7384
 
              Baa    -0.0172    -9.162    -3.269    -3.056 -0.2470  0.6763  0.6940
     6 H(1)   Bbb    -0.0114    -6.073    -2.167    -2.026  0.6175 -0.4421  0.6506
              Bcc     0.0286    15.235     5.436     5.082  0.7468  0.5893 -0.3084
 
              Baa    -0.0055     0.394     0.141     0.132 -0.0137 -0.3928  0.9195
     7 O(17)  Bbb    -0.0008     0.057     0.020     0.019 -0.1572  0.9090  0.3860
              Bcc     0.0062    -0.452    -0.161    -0.151  0.9875  0.1393  0.0742
 
              Baa    -0.0019    -1.030    -0.367    -0.343 -0.0132 -0.0466  0.9988
     8 H(1)   Bbb    -0.0014    -0.732    -0.261    -0.244  0.5158  0.8554  0.0468
              Bcc     0.0033     1.762     0.629     0.588  0.8566 -0.5158 -0.0127
 
              Baa    -0.8763    63.407    22.625    21.150 -0.1921  0.7384  0.6464
     9 O(17)  Bbb    -0.7603    55.012    19.630    18.350  0.6739  0.5781 -0.4601
              Bcc     1.6365  -118.419   -42.255   -39.500  0.7134 -0.3473  0.6086
 

 ---------------------------------------------------------------------------------

 Calling FoFJK, ICntrl=      2127 FMM=F ISym2X=0 I1Cent= 0 IOpClX= 1 NMat=1 NMatS=1 NMatT=0.
 ***** Axes restored to original set *****
 -------------------------------------------------------------------
 Center     Atomic                   Forces (Hartrees/Bohr)
 Number     Number              X              Y              Z
 -------------------------------------------------------------------
      1        6          -0.037733817   -0.036955816   -0.000935458
      2        6           0.026211645   -0.111959880    0.043407422
      3        8          -0.041687212    0.019640928   -0.002814004
      4        6           0.032114712    0.084902416    0.048929765
      5        1           0.003445013    0.001673757   -0.011608698
      6        1          -0.002266572    0.009970140    0.010081616
      7        8           0.027762027    0.084290310   -0.036621066
      8        1           0.010785528    0.014023231   -0.006712103
      9        8          -0.018631323   -0.065585086   -0.043727473
 -------------------------------------------------------------------
 Cartesian Forces:  Max     0.111959880 RMS     0.041790073

 GradGradGradGradGradGradGradGradGradGradGradGradGradGradGradGradGradGrad
 Berny optimization.
 Internal  Forces:  Max     0.095985725 RMS     0.028892019
 Search for a local minimum.
 Step number   1 out of a maximum of   38
 All quantities printed in internal units (Hartrees-Bohrs-Radians)
 Swaping is turned off.
 Second derivative matrix not updated -- first step.
 ITU=  0
     Eigenvalues ---    0.00865   0.01377   0.01736   0.02940   0.08095
     Eigenvalues ---    0.09530   0.11963   0.14357   0.16000   0.22000
     Eigenvalues ---    0.22212   0.25000   0.25000   0.32441   0.32530
     Eigenvalues ---    0.33173   0.35834   0.41899   0.46173   0.79586
     Eigenvalues ---    0.95180
 Quadratic step=5.150D-01 exceeds max=3.000D-01 adjusted using Lamda=-5.073D-02.
 Angle between NR and scaled steps=  36.49 degrees.
 Angle between quadratic step and forces=  31.73 degrees.
 Linear search not attempted -- option 19 set.
 Iteration  1 RMS(Cart)=  0.09270298 RMS(Int)=  0.00251778
 Iteration  2 RMS(Cart)=  0.00261358 RMS(Int)=  0.00021894
 Iteration  3 RMS(Cart)=  0.00000675 RMS(Int)=  0.00021891
 Iteration  4 RMS(Cart)=  0.00000000 RMS(Int)=  0.00021891
 Variable       Old X    -DE/DX   Delta X   Delta X   Delta X     New X
                                 (Linear)    (Quad)   (Total)
    R1        2.69052  -0.01246   0.00000  -0.02654  -0.02654   2.66398
    R2        2.82049   0.01839   0.00000   0.04809   0.04809   2.86859
    R3        2.10044  -0.01171   0.00000  -0.03121  -0.03121   2.06924
    R4        2.09885  -0.01341   0.00000  -0.03567  -0.03567   2.06318
    R5        2.63936  -0.05961   0.00000  -0.11632  -0.11632   2.52304
    R6        2.38140  -0.09599   0.00000  -0.11338  -0.11338   2.26802
    R7        2.04342   0.00361   0.00000   0.00882   0.00882   2.05224
    R8        2.30633  -0.08031   0.00000  -0.08011  -0.08011   2.22623
    A1        1.91285  -0.01135   0.00000  -0.04155  -0.04166   1.87118
    A2        1.92016   0.00441   0.00000   0.01200   0.01140   1.93157
    A3        1.91543   0.00198   0.00000   0.01100   0.01126   1.92669
    A4        1.90943  -0.00222   0.00000  -0.02189  -0.02214   1.88729
    A5        1.89834   0.00934   0.00000   0.04884   0.04908   1.94742
    A6        1.90745  -0.00209   0.00000  -0.00801  -0.00795   1.89950
    A7        2.11313   0.01137   0.00000   0.04200   0.04200   2.15513
    A8        2.08402  -0.02464   0.00000  -0.11095  -0.11095   1.97308
    A9        2.08603   0.01327   0.00000   0.06895   0.06895   2.15497
   A10        2.13891  -0.03992   0.00000  -0.13273  -0.13273   2.00618
   A11        2.10295   0.02312   0.00000   0.07687   0.07687   2.17982
    D1        3.13697   0.00443   0.00000   0.03128   0.03120  -3.11502
    D2       -1.04603  -0.00271   0.00000  -0.01443  -0.01443  -1.06046
    D3        1.05334  -0.00127   0.00000  -0.00984  -0.00975   1.04359
    D4        1.07767  -0.00330   0.00000  -0.04569  -0.04503   1.03265
    D5       -1.02904  -0.00029   0.00000  -0.02100  -0.02155  -1.05059
    D6       -3.11141  -0.00200   0.00000  -0.02748  -0.02760  -3.13901
    D7        0.00021   0.00039   0.00000   0.00554   0.00548   0.00569
    D8       -3.14157   0.00024   0.00000   0.00368   0.00374  -3.13783
    D9        3.14141  -0.00015   0.00000  -0.00189  -0.00194   3.13946
         Item               Value     Threshold  Converged?
 Maximum Force            0.095986     0.000002     NO 
 RMS     Force            0.028892     0.000001     NO 
 Maximum Displacement     0.270417     0.000006     NO 
 RMS     Displacement     0.093449     0.000004     NO 
 Predicted change in Energy=-2.178838D-02
 GradGradGradGradGradGradGradGradGradGradGradGradGradGradGradGradGradGrad

                          Input orientation:                          
 ---------------------------------------------------------------------
 Center     Atomic      Atomic             Coordinates (Angstroms)
 Number     Number       Type             X           Y           Z
 ---------------------------------------------------------------------
      1          6           0        0.642812   -0.387223   -0.178399
      2          6           0       -1.595320    0.201254   -0.223017
      3          8           0       -0.340347    0.576565   -0.481421
      4          6           0        1.991552    0.230366   -0.500546
      5          1           0        0.626818   -0.633491    0.888423
      6          1           0        0.471256   -1.299402   -0.753294
      7          8           0       -1.884902   -0.868424    0.237821
      8          1           0       -2.326993    0.964484   -0.471064
      9          8           0        2.415123    1.215871   -0.013502
 ---------------------------------------------------------------------
                    Distance matrix (angstroms):
                    1          2          3          4          5
     1  C    0.000000
     2  C    2.314634   0.000000
     3  O    1.409720   1.335136   0.000000
     4  C    1.517991   3.597711   2.357535   0.000000
     5  H    1.094994   2.621068   2.067877   2.130254   0.000000
     6  H    1.091790   2.608429   2.062006   2.171491   1.778446
     7  O    2.606555   1.200184   2.234044   4.096269   2.605228
     8  H    3.276050   1.085998   2.024191   4.380597   3.623083
     9  O    2.395452   4.142101   2.867103   1.178068   2.726104
                    6          7          8          9
     6  H    0.000000
     7  O    2.592206   0.000000
     8  H    3.610406   2.014328   0.000000
     9  O    3.263818   4.785150   4.770768   0.000000
 Stoichiometry    C3H3O3(2)
 Framework group  C1[X(C3H3O3)]
 Deg. of freedom    21
 Full point group                 C1      NOp   1
 Largest Abelian subgroup         C1      NOp   1
 Largest concise Abelian subgroup C1      NOp   1
                         Standard orientation:                         
 ---------------------------------------------------------------------
 Center     Atomic      Atomic             Coordinates (Angstroms)
 Number     Number       Type             X           Y           Z
 ---------------------------------------------------------------------
      1          6           0       -0.333556    0.642653   -0.103794
      2          6           0        1.657060   -0.535981   -0.027625
      3          8           0        0.337526   -0.591299   -0.223476
      4          6           0       -1.811679    0.372865   -0.319807
      5          1           0       -0.206016    1.056038    0.902118
      6          1           0        0.054375    1.358753   -0.830923
      7          8           0        2.245244    0.476151    0.237084
      8          1           0        2.143056   -1.501684   -0.130672
      9          8           0       -2.465566   -0.358642    0.332246
 ---------------------------------------------------------------------
 Rotational constants (GHZ):     15.3564718      1.9114298      1.7758424
 Standard basis: 6-311+G(2df,2p) (5D, 7F)
 There are   231 symmetry adapted basis functions of A   symmetry.
 Integral buffers will be    131072 words long.
 Raffenetti 2 integral format.
 Two-electron integral symmetry is turned on.
   231 basis functions,   345 primitive gaussians,   261 cartesian basis functions
    23 alpha electrons       22 beta electrons
       nuclear repulsion energy       215.0340992070 Hartrees.
 NAtoms=    9 NActive=    9 NUniq=    9 SFac= 1.00D+00 NAtFMM=   50 NAOKFM=F Big=F
 One-electron integrals computed using PRISM.
 NBasis=   231 RedAO= T  NBF=   231
 NBsUse=   231 1.00D-06 NBFU=   231
 Initial guess read from the read-write file.
 B after Tr=     0.000000    0.000000    0.000000
         Rot=    1.000000    0.000000    0.000000    0.000000 Ang=   0.00 deg.
 Initial guess orbital symmetries:
 Alpha Orbitals:
       Occupied  (A) (A) (A) (A) (A) (A) (A) (A) (A) (A) (A) (A)
                 (A) (A) (A) (A) (A) (A) (A) (A) (A) (A) (A)
       Virtual   (A) (A) (A) (A) (A) (A) (A) (A) (A) (A) (A) (A)
                 (A) (A) (A) (A) (A) (A) (A) (A) (A) (A) (A) (A)
                 (A) (A) (A) (A) (A) (A) (A) (A) (A) (A) (A) (A)
                 (A) (A) (A) (A) (A) (A) (A) (A) (A) (A) (A) (A)
                 (A) (A) (A) (A) (A) (A) (A) (A) (A) (A) (A) (A)
                 (A) (A) (A) (A) (A) (A) (A) (A) (A) (A) (A) (A)
                 (A) (A) (A) (A) (A) (A) (A) (A) (A) (A) (A) (A)
                 (A) (A) (A) (A) (A) (A) (A) (A) (A) (A) (A) (A)
                 (A) (A) (A) (A) (A) (A) (A) (A) (A) (A) (A) (A)
                 (A) (A) (A) (A) (A) (A) (A) (A) (A) (A) (A) (A)
                 (A) (A) (A) (A) (A) (A) (A) (A) (A) (A) (A) (A)
                 (A) (A) (A) (A) (A) (A) (A) (A) (A) (A) (A) (A)
                 (A) (A) (A) (A) (A) (A) (A) (A) (A) (A) (A) (A)
                 (A) (A) (A) (A) (A) (A) (A) (A) (A) (A) (A) (A)
                 (A) (A) (A) (A) (A) (A) (A) (A) (A) (A) (A) (A)
                 (A) (A) (A) (A) (A) (A) (A) (A) (A) (A) (A) (A)
                 (A) (A) (A) (A) (A) (A) (A) (A) (A) (A) (A) (A)
                 (A) (A) (A) (A)
 Beta  Orbitals:
       Occupied  (A) (A) (A) (A) (A) (A) (A) (A) (A) (A) (A) (A)
                 (A) (A) (A) (A) (A) (A) (A) (A) (A) (A)
       Virtual   (A) (A) (A) (A) (A) (A) (A) (A) (A) (A) (A) (A)
                 (A) (A) (A) (A) (A) (A) (A) (A) (A) (A) (A) (A)
                 (A) (A) (A) (A) (A) (A) (A) (A) (A) (A) (A) (A)
                 (A) (A) (A) (A) (A) (A) (A) (A) (A) (A) (A) (A)
                 (A) (A) (A) (A) (A) (A) (A) (A) (A) (A) (A) (A)
                 (A) (A) (A) (A) (A) (A) (A) (A) (A) (A) (A) (A)
                 (A) (A) (A) (A) (A) (A) (A) (A) (A) (A) (A) (A)
                 (A) (A) (A) (A) (A) (A) (A) (A) (A) (A) (A) (A)
                 (A) (A) (A) (A) (A) (A) (A) (A) (A) (A) (A) (A)
                 (A) (A) (A) (A) (A) (A) (A) (A) (A) (A) (A) (A)
                 (A) (A) (A) (A) (A) (A) (A) (A) (A) (A) (A) (A)
                 (A) (A) (A) (A) (A) (A) (A) (A) (A) (A) (A) (A)
                 (A) (A) (A) (A) (A) (A) (A) (A) (A) (A) (A) (A)
                 (A) (A) (A) (A) (A) (A) (A) (A) (A) (A) (A) (A)
                 (A) (A) (A) (A) (A) (A) (A) (A) (A) (A) (A) (A)
                 (A) (A) (A) (A) (A) (A) (A) (A) (A) (A) (A) (A)
                 (A) (A) (A) (A) (A) (A) (A) (A) (A) (A) (A) (A)
                 (A) (A) (A) (A) (A)
 Initial guess <Sx>= 0.0000 <Sy>= 0.0000 <Sz>= 0.5000 <S**2>= 0.7542 S= 0.5021
 Harris functional with IExCor= 1009 diagonalized for initial guess.
 ExpMin= 4.38D-02 ExpMax= 8.59D+03 ExpMxC= 1.30D+03 IAcc=2 IRadAn=         0 AccDes= 0.00D+00
 HarFok:  IExCor= 1009 AccDes= 0.00D+00 IRadAn=         0 IDoV= 1
 ScaDFX=  1.000000  1.000000  1.000000  1.000000
 FoFCou: FMM=F IPFlag=           0 FMFlag=      100000 FMFlg1=           0
         NFxFlg=           0 DoJE=T BraDBF=F KetDBF=T FulRan=T
         Omega=  0.000000  0.000000  1.000000  0.000000  0.000000 ICntrl=     500 IOpCl=  0
         NMat0=    1 NMatS0=    1 NMatT0=    0 NMatD0=    1 NMtDS0=    0 NMtDT0=    0
         I1Cent=           4 NGrid=           0.
 Petite list used in FoFCou.
 Requested convergence on RMS density matrix=1.00D-08 within 128 cycles.
 Requested convergence on MAX density matrix=1.00D-06.
 Requested convergence on             energy=1.00D-06.
 No special actions if energy rises.
 SCF Done:  E(UM062X) =  -341.708636058     A.U. after   15 cycles
             Convg  =    0.6216D-08             -V/T =  2.0031
 <Sx>= 0.0000 <Sy>= 0.0000 <Sz>= 0.5000 <S**2>= 0.7539 S= 0.5019
 <L.S>= 0.000000000000E+00
 Annihilation of the first spin contaminant:
 S**2 before annihilation     0.7539,   after     0.7500
 Calling FoFJK, ICntrl=      2127 FMM=F ISym2X=0 I1Cent= 0 IOpClX= 1 NMat=1 NMatS=1 NMatT=0.
 ***** Axes restored to original set *****
 -------------------------------------------------------------------
 Center     Atomic                   Forces (Hartrees/Bohr)
 Number     Number              X              Y              Z
 -------------------------------------------------------------------
      1        6          -0.003193167   -0.011202987   -0.001045859
      2        6          -0.001276475   -0.021859928    0.009089829
      3        8          -0.006093206    0.011854493   -0.003008120
      4        6           0.011030715    0.015628721    0.011323894
      5        1           0.001622609   -0.000395548   -0.001317562
      6        1           0.000798894    0.002739453    0.001571866
      7        8           0.000959257    0.008854533   -0.003557139
      8        1           0.001685156    0.007058531   -0.003182909
      9        8          -0.005533783   -0.012677270   -0.009874000
 -------------------------------------------------------------------
 Cartesian Forces:  Max     0.021859928 RMS     0.008251863

 GradGradGradGradGradGradGradGradGradGradGradGradGradGradGradGradGradGrad
 Berny optimization.
 Using GDIIS optimizer.
 Internal  Forces:  Max     0.016681058 RMS     0.004916953
 Search for a local minimum.
 Step number   2 out of a maximum of   38
 All quantities printed in internal units (Hartrees-Bohrs-Radians)
 Swaping is turned off.
 Update second derivatives using D2CorX and points    1    2
 DE= -2.29D-02 DEPred=-2.18D-02 R= 1.05D+00
 SS=  1.41D+00  RLast= 3.00D-01 DXNew= 5.0454D-01 9.0015D-01
 Trust test= 1.05D+00 RLast= 3.00D-01 DXMaxT set to 5.05D-01
 ITU=  1  0
     Eigenvalues ---    0.00864   0.01377   0.01736   0.03015   0.08364
     Eigenvalues ---    0.09600   0.11683   0.14258   0.15590   0.21592
     Eigenvalues ---    0.22236   0.24885   0.26350   0.32316   0.32481
     Eigenvalues ---    0.32932   0.35778   0.42133   0.49164   0.77120
     Eigenvalues ---    0.91344
 DIIS coeff's:      1.13958     -0.13958
 Cosine:  1.000 >  0.970
 Length:  1.000
 GDIIS step was calculated using  2 of the last  2 vectors.
 Iteration  1 RMS(Cart)=  0.05638750 RMS(Int)=  0.00404085
 Iteration  2 RMS(Cart)=  0.00401303 RMS(Int)=  0.00004511
 Iteration  3 RMS(Cart)=  0.00002689 RMS(Int)=  0.00004197
 Iteration  4 RMS(Cart)=  0.00000000 RMS(Int)=  0.00004197
 Variable       Old X    -DE/DX   Delta X   Delta X   Delta X     New X
                                  (DIIS)     (GDIIS)  (Total)
    R1        2.66398   0.00749  -0.00370   0.02368   0.01998   2.68396
    R2        2.86859   0.00578   0.00671   0.01361   0.02033   2.88891
    R3        2.06924  -0.00122  -0.00436  -0.00021  -0.00457   2.06467
    R4        2.06318  -0.00324  -0.00498  -0.00672  -0.01170   2.05148
    R5        2.52304   0.00083  -0.01624   0.01642   0.00019   2.52323
    R6        2.26802  -0.00949  -0.01583  -0.00032  -0.01615   2.25187
    R7        2.05224   0.00456   0.00123   0.01336   0.01459   2.06683
    R8        2.22623  -0.01668  -0.01118  -0.01071  -0.02189   2.20433
    A1        1.87118  -0.00041  -0.00582   0.00388  -0.00196   1.86922
    A2        1.93157   0.00081   0.00159   0.00390   0.00536   1.93693
    A3        1.92669   0.00112   0.00157   0.01082   0.01239   1.93909
    A4        1.88729  -0.00153  -0.00309  -0.01252  -0.01566   1.87163
    A5        1.94742   0.00010   0.00685  -0.00629   0.00056   1.94798
    A6        1.89950  -0.00015  -0.00111  -0.00019  -0.00136   1.89814
    A7        2.15513   0.00654   0.00586   0.02799   0.03385   2.18898
    A8        1.97308  -0.00993  -0.01549  -0.04772  -0.06321   1.90987
    A9        2.15497   0.00339   0.00962   0.01974   0.02936   2.18433
   A10        2.00618   0.00015  -0.01853   0.01881   0.00028   2.00646
   A11        2.17982   0.00425   0.01073   0.00886   0.01959   2.19941
    D1       -3.11502   0.00084   0.00435   0.01227   0.01663  -3.09839
    D2       -1.06046  -0.00079  -0.00201   0.00165  -0.00041  -1.06086
    D3        1.04359   0.00030  -0.00136   0.01108   0.00976   1.05335
    D4        1.03265  -0.00204  -0.00628  -0.18832  -0.19448   0.83817
    D5       -1.05059  -0.00196  -0.00301  -0.18831  -0.19140  -1.24198
    D6       -3.13901  -0.00086  -0.00385  -0.17625  -0.18014   2.96404
    D7        0.00569   0.00027   0.00077   0.01540   0.01618   0.02187
    D8       -3.13783   0.00029   0.00052   0.01666   0.01718  -3.12066
    D9        3.13946   0.00001  -0.00027   0.00132   0.00105   3.14052
         Item               Value     Threshold  Converged?
 Maximum Force            0.016681     0.000002     NO 
 RMS     Force            0.004917     0.000001     NO 
 Maximum Displacement     0.128574     0.000006     NO 
 RMS     Displacement     0.055347     0.000004     NO 
 Predicted change in Energy=-1.461831D-03
 GradGradGradGradGradGradGradGradGradGradGradGradGradGradGradGradGradGrad

                          Input orientation:                          
 ---------------------------------------------------------------------
 Center     Atomic      Atomic             Coordinates (Angstroms)
 Number     Number       Type             X           Y           Z
 ---------------------------------------------------------------------
      1          6           0        0.646921   -0.410790   -0.169282
      2          6           0       -1.596968    0.192434   -0.211674
      3          8           0       -0.339631    0.570123   -0.455206
      4          6           0        2.008203    0.225595   -0.450338
      5          1           0        0.630195   -0.685791    0.887987
      6          1           0        0.493004   -1.305157   -0.765051
      7          8           0       -1.927392   -0.862960    0.232137
      8          1           0       -2.279251    1.003370   -0.482033
      9          8           0        2.364919    1.273175   -0.081540
 ---------------------------------------------------------------------
                    Distance matrix (angstroms):
                    1          2          3          4          5
     1  C    0.000000
     2  C    2.323944   0.000000
     3  O    1.420291   1.335236   0.000000
     4  C    1.528747   3.613215   2.372982   0.000000
     5  H    1.092577   2.634538   2.078954   2.126181   0.000000
     6  H    1.085598   2.630016   2.075081   2.176712   1.770585
     7  O    2.644368   1.191639   2.246587   4.140003   2.646277
     8  H    3.264987   1.093718   1.987599   4.357545   3.632505
     9  O    2.407270   4.108708   2.819307   1.166483   2.790483
                    6          7          8          9
     6  H    0.000000
     7  O    2.654851   0.000000
     8  H    3.618672   2.029046   0.000000
     9  O    3.258688   4.804726   4.669207   0.000000
 Stoichiometry    C3H3O3(2)
 Framework group  C1[X(C3H3O3)]
 Deg. of freedom    21
 Full point group                 C1      NOp   1
 Largest Abelian subgroup         C1      NOp   1
 Largest concise Abelian subgroup C1      NOp   1
                         Standard orientation:                         
 ---------------------------------------------------------------------
 Center     Atomic      Atomic             Coordinates (Angstroms)
 Number     Number       Type             X           Y           Z
 ---------------------------------------------------------------------
      1          6           0       -0.335130    0.679627   -0.091251
      2          6           0        1.645647   -0.534517   -0.035635
      3          8           0        0.322198   -0.573955   -0.208214
      4          6           0       -1.832436    0.419157   -0.256471
      5          1           0       -0.188672    1.106767    0.903649
      6          1           0        0.032189    1.384078   -0.831082
      7          8           0        2.279879    0.441122    0.221040
      8          1           0        2.059523   -1.538541   -0.165493
      9          8           0       -2.448518   -0.409406    0.286307
 ---------------------------------------------------------------------
 Rotational constants (GHZ):     15.3740480      1.9115191      1.7622078
 Standard basis: 6-311+G(2df,2p) (5D, 7F)
 There are   231 symmetry adapted basis functions of A   symmetry.
 Integral buffers will be    131072 words long.
 Raffenetti 2 integral format.
 Two-electron integral symmetry is turned on.
   231 basis functions,   345 primitive gaussians,   261 cartesian basis functions
    23 alpha electrons       22 beta electrons
       nuclear repulsion energy       214.8444937183 Hartrees.
 NAtoms=    9 NActive=    9 NUniq=    9 SFac= 1.00D+00 NAtFMM=   50 NAOKFM=F Big=F
 One-electron integrals computed using PRISM.
 NBasis=   231 RedAO= T  NBF=   231
 NBsUse=   231 1.00D-06 NBFU=   231
 Initial guess read from the read-write file.
 B after Tr=     0.000000    0.000000    0.000000
         Rot=    1.000000    0.000000    0.000000    0.000000 Ang=   0.00 deg.
 Initial guess orbital symmetries:
 Alpha Orbitals:
       Occupied  (A) (A) (A) (A) (A) (A) (A) (A) (A) (A) (A) (A)
                 (A) (A) (A) (A) (A) (A) (A) (A) (A) (A) (A)
       Virtual   (A) (A) (A) (A) (A) (A) (A) (A) (A) (A) (A) (A)
                 (A) (A) (A) (A) (A) (A) (A) (A) (A) (A) (A) (A)
                 (A) (A) (A) (A) (A) (A) (A) (A) (A) (A) (A) (A)
                 (A) (A) (A) (A) (A) (A) (A) (A) (A) (A) (A) (A)
                 (A) (A) (A) (A) (A) (A) (A) (A) (A) (A) (A) (A)
                 (A) (A) (A) (A) (A) (A) (A) (A) (A) (A) (A) (A)
                 (A) (A) (A) (A) (A) (A) (A) (A) (A) (A) (A) (A)
                 (A) (A) (A) (A) (A) (A) (A) (A) (A) (A) (A) (A)
                 (A) (A) (A) (A) (A) (A) (A) (A) (A) (A) (A) (A)
                 (A) (A) (A) (A) (A) (A) (A) (A) (A) (A) (A) (A)
                 (A) (A) (A) (A) (A) (A) (A) (A) (A) (A) (A) (A)
                 (A) (A) (A) (A) (A) (A) (A) (A) (A) (A) (A) (A)
                 (A) (A) (A) (A) (A) (A) (A) (A) (A) (A) (A) (A)
                 (A) (A) (A) (A) (A) (A) (A) (A) (A) (A) (A) (A)
                 (A) (A) (A) (A) (A) (A) (A) (A) (A) (A) (A) (A)
                 (A) (A) (A) (A) (A) (A) (A) (A) (A) (A) (A) (A)
                 (A) (A) (A) (A) (A) (A) (A) (A) (A) (A) (A) (A)
                 (A) (A) (A) (A)
 Beta  Orbitals:
       Occupied  (A) (A) (A) (A) (A) (A) (A) (A) (A) (A) (A) (A)
                 (A) (A) (A) (A) (A) (A) (A) (A) (A) (A)
       Virtual   (A) (A) (A) (A) (A) (A) (A) (A) (A) (A) (A) (A)
                 (A) (A) (A) (A) (A) (A) (A) (A) (A) (A) (A) (A)
                 (A) (A) (A) (A) (A) (A) (A) (A) (A) (A) (A) (A)
                 (A) (A) (A) (A) (A) (A) (A) (A) (A) (A) (A) (A)
                 (A) (A) (A) (A) (A) (A) (A) (A) (A) (A) (A) (A)
                 (A) (A) (A) (A) (A) (A) (A) (A) (A) (A) (A) (A)
                 (A) (A) (A) (A) (A) (A) (A) (A) (A) (A) (A) (A)
                 (A) (A) (A) (A) (A) (A) (A) (A) (A) (A) (A) (A)
                 (A) (A) (A) (A) (A) (A) (A) (A) (A) (A) (A) (A)
                 (A) (A) (A) (A) (A) (A) (A) (A) (A) (A) (A) (A)
                 (A) (A) (A) (A) (A) (A) (A) (A) (A) (A) (A) (A)
                 (A) (A) (A) (A) (A) (A) (A) (A) (A) (A) (A) (A)
                 (A) (A) (A) (A) (A) (A) (A) (A) (A) (A) (A) (A)
                 (A) (A) (A) (A) (A) (A) (A) (A) (A) (A) (A) (A)
                 (A) (A) (A) (A) (A) (A) (A) (A) (A) (A) (A) (A)
                 (A) (A) (A) (A) (A) (A) (A) (A) (A) (A) (A) (A)
                 (A) (A) (A) (A) (A) (A) (A) (A) (A) (A) (A) (A)
                 (A) (A) (A) (A) (A)
 Initial guess <Sx>= 0.0000 <Sy>= 0.0000 <Sz>= 0.5000 <S**2>= 0.7539 S= 0.5019
 Harris functional with IExCor= 1009 diagonalized for initial guess.
 ExpMin= 4.38D-02 ExpMax= 8.59D+03 ExpMxC= 1.30D+03 IAcc=2 IRadAn=         0 AccDes= 0.00D+00
 HarFok:  IExCor= 1009 AccDes= 0.00D+00 IRadAn=         0 IDoV= 1
 ScaDFX=  1.000000  1.000000  1.000000  1.000000
 FoFCou: FMM=F IPFlag=           0 FMFlag=      100000 FMFlg1=           0
         NFxFlg=           0 DoJE=T BraDBF=F KetDBF=T FulRan=T
         Omega=  0.000000  0.000000  1.000000  0.000000  0.000000 ICntrl=     500 IOpCl=  0
         NMat0=    1 NMatS0=    1 NMatT0=    0 NMatD0=    1 NMtDS0=    0 NMtDT0=    0
         I1Cent=           4 NGrid=           0.
 Petite list used in FoFCou.
 Requested convergence on RMS density matrix=1.00D-08 within 128 cycles.
 Requested convergence on MAX density matrix=1.00D-06.
 Requested convergence on             energy=1.00D-06.
 No special actions if energy rises.
 SCF Done:  E(UM062X) =  -341.710553979     A.U. after   15 cycles
             Convg  =    0.9410D-08             -V/T =  2.0030
 <Sx>= 0.0000 <Sy>= 0.0000 <Sz>= 0.5000 <S**2>= 0.7538 S= 0.5019
 <L.S>= 0.000000000000E+00
 Annihilation of the first spin contaminant:
 S**2 before annihilation     0.7538,   after     0.7500
 Calling FoFJK, ICntrl=      2127 FMM=F ISym2X=0 I1Cent= 0 IOpClX= 1 NMat=1 NMatS=1 NMatT=0.
 ***** Axes restored to original set *****
 -------------------------------------------------------------------
 Center     Atomic                   Forces (Hartrees/Bohr)
 Number     Number              X              Y              Z
 -------------------------------------------------------------------
      1        6           0.000776780    0.001975244   -0.002003083
      2        6          -0.004069806    0.001418491   -0.000088592
      3        8           0.000964136   -0.000389528    0.000601727
      4        6           0.000354885   -0.006647894    0.004014426
      5        1           0.000887366   -0.000430832    0.000179477
      6        1          -0.000461044    0.000274469   -0.001300169
      7        8           0.001648864   -0.001564096    0.000425869
      8        1          -0.000441930    0.000661649   -0.000119131
      9        8           0.000340749    0.004702496   -0.001710522
 -------------------------------------------------------------------
 Cartesian Forces:  Max     0.006647894 RMS     0.002135354

 GradGradGradGradGradGradGradGradGradGradGradGradGradGradGradGradGradGrad
 Berny optimization.
 Using GDIIS optimizer.
 Internal  Forces:  Max     0.003778901 RMS     0.001590961
 Search for a local minimum.
 Step number   3 out of a maximum of   38
 All quantities printed in internal units (Hartrees-Bohrs-Radians)
 Swaping is turned off.
 Update second derivatives using D2CorX and points    1    2    3
 DE= -1.92D-03 DEPred=-1.46D-03 R= 1.31D+00
 SS=  1.41D+00  RLast= 3.41D-01 DXNew= 8.4853D-01 1.0243D+00
 Trust test= 1.31D+00 RLast= 3.41D-01 DXMaxT set to 8.49D-01
 ITU=  1  1  0
     Eigenvalues ---    0.00416   0.01377   0.01742   0.03048   0.08308
     Eigenvalues ---    0.09618   0.11658   0.14232   0.16035   0.21813
     Eigenvalues ---    0.24511   0.26194   0.26615   0.32478   0.32705
     Eigenvalues ---    0.34514   0.35950   0.42620   0.49258   0.81636
     Eigenvalues ---    1.04816
 DIIS coeff's:      1.27480     -0.20554     -0.06926
 Cosine:  0.997 >  0.840
 Length:  0.887
 GDIIS step was calculated using  3 of the last  3 vectors.
 Iteration  1 RMS(Cart)=  0.04333599 RMS(Int)=  0.06513810
 Iteration  2 RMS(Cart)=  0.04649241 RMS(Int)=  0.00410879
 Iteration  3 RMS(Cart)=  0.00463775 RMS(Int)=  0.00004358
 Iteration  4 RMS(Cart)=  0.00003630 RMS(Int)=  0.00003624
 Iteration  5 RMS(Cart)=  0.00000000 RMS(Int)=  0.00003624
 Variable       Old X    -DE/DX   Delta X   Delta X   Delta X     New X
                                  (DIIS)     (GDIIS)  (Total)
    R1        2.68396   0.00128   0.00365   0.01292   0.01657   2.70053
    R2        2.88891  -0.00062   0.00892   0.00477   0.01368   2.90260
    R3        2.06467   0.00028  -0.00342   0.00013  -0.00328   2.06139
    R4        2.05148   0.00055  -0.00569  -0.00176  -0.00745   2.04404
    R5        2.52323   0.00256  -0.00800   0.01061   0.00261   2.52584
    R6        2.25187   0.00107  -0.01229  -0.00121  -0.01349   2.23838
    R7        2.06683   0.00081   0.00462   0.00850   0.01312   2.07995
    R8        2.20433   0.00378  -0.01156  -0.00171  -0.01327   2.19106
    A1        1.86922   0.00369  -0.00343   0.02039   0.01691   1.88613
    A2        1.93693  -0.00076   0.00226  -0.00243  -0.00018   1.93675
    A3        1.93909  -0.00096   0.00419   0.00195   0.00606   1.94515
    A4        1.87163  -0.00164  -0.00584  -0.01789  -0.02375   1.84788
    A5        1.94798  -0.00087   0.00355  -0.00389  -0.00045   1.94753
    A6        1.89814   0.00051  -0.00092   0.00121   0.00021   1.89835
    A7        2.18898  -0.00298   0.01221  -0.00295   0.00926   2.19824
    A8        1.90987   0.00140  -0.02505  -0.01604  -0.04110   1.86877
    A9        2.18433   0.00158   0.01284   0.01900   0.03184   2.21617
   A10        2.00646  -0.00088  -0.00911   0.00028  -0.00884   1.99762
   A11        2.19941   0.00096   0.01071   0.01029   0.02100   2.22041
    D1       -3.09839   0.00039   0.00673   0.01621   0.02301  -3.07538
    D2       -1.06086   0.00017  -0.00111   0.00539   0.00426  -1.05660
    D3        1.05335  -0.00036   0.00201   0.00659   0.00855   1.06190
    D4        0.83817  -0.00210  -0.05656  -0.34953  -0.40611   0.43206
    D5       -1.24198  -0.00229  -0.05409  -0.34804  -0.40209  -1.64407
    D6        2.96404  -0.00139  -0.05141  -0.33609  -0.38753   2.57651
    D7        0.02187  -0.00013   0.00483  -0.00219   0.00264   0.02451
    D8       -3.12066  -0.00014   0.00498  -0.00191   0.00306  -3.11760
    D9        3.14052   0.00000   0.00016   0.00030   0.00046   3.14098
         Item               Value     Threshold  Converged?
 Maximum Force            0.003779     0.000002     NO 
 RMS     Force            0.001591     0.000001     NO 
 Maximum Displacement     0.294628     0.000006     NO 
 RMS     Displacement     0.087381     0.000004     NO 
 Predicted change in Energy=-1.314734D-03
 GradGradGradGradGradGradGradGradGradGradGradGradGradGradGradGradGradGrad

                          Input orientation:                          
 ---------------------------------------------------------------------
 Center     Atomic      Atomic             Coordinates (Angstroms)
 Number     Number       Type             X           Y           Z
 ---------------------------------------------------------------------
      1          6           0        0.646919   -0.425061   -0.143559
      2          6           0       -1.595773    0.188679   -0.206130
      3          8           0       -0.333859    0.579903   -0.408761
      4          6           0        2.035817    0.204090   -0.329006
      5          1           0        0.602532   -0.748802    0.897186
      6          1           0        0.512238   -1.287512   -0.782326
      7          8           0       -1.939805   -0.875816    0.183135
      8          1           0       -2.243717    1.038977   -0.468089
      9          8           0        2.315648    1.325543   -0.237450
 ---------------------------------------------------------------------
                    Distance matrix (angstroms):
                    1          2          3          4          5
     1  C    0.000000
     2  C    2.325996   0.000000
     3  O    1.429060   1.336616   0.000000
     4  C    1.535988   3.633700   2.400616   0.000000
     5  H    1.090839   2.632247   2.085134   2.113257   0.000000
     6  H    1.081658   2.637205   2.083907   2.179832   1.766104
     7  O    2.645949   1.184498   2.246892   4.151391   2.643762
     8  H    3.256456   1.100663   1.965153   4.362429   3.627846
     9  O    2.420349   4.073408   2.757755   1.159459   2.919773
                    6          7          8          9
     6  H    0.000000
     7  O    2.667231   0.000000
     8  H    3.620301   2.045211   0.000000
     9  O    3.221371   4.809548   4.574180   0.000000
 Stoichiometry    C3H3O3(2)
 Framework group  C1[X(C3H3O3)]
 Deg. of freedom    21
 Full point group                 C1      NOp   1
 Largest Abelian subgroup         C1      NOp   1
 Largest concise Abelian subgroup C1      NOp   1
                         Standard orientation:                         
 ---------------------------------------------------------------------
 Center     Atomic      Atomic             Coordinates (Angstroms)
 Number     Number       Type             X           Y           Z
 ---------------------------------------------------------------------
      1          6           0       -0.326616    0.705502   -0.072574
      2          6           0        1.635889   -0.542131   -0.025215
      3          8           0        0.305030   -0.574344   -0.144879
      4          6           0       -1.846421    0.490542   -0.129532
      5          1           0       -0.128797    1.184763    0.887168
      6          1           0        0.012747    1.359378   -0.864573
      7          8           0        2.294865    0.425935    0.152648
      8          1           0        1.994260   -1.578251   -0.122605
      9          8           0       -2.431810   -0.462762    0.175224
 ---------------------------------------------------------------------
 Rotational constants (GHZ):     15.4291662      1.9312733      1.7525282
 Standard basis: 6-311+G(2df,2p) (5D, 7F)
 There are   231 symmetry adapted basis functions of A   symmetry.
 Integral buffers will be    131072 words long.
 Raffenetti 2 integral format.
 Two-electron integral symmetry is turned on.
   231 basis functions,   345 primitive gaussians,   261 cartesian basis functions
    23 alpha electrons       22 beta electrons
       nuclear repulsion energy       214.9479880128 Hartrees.
 NAtoms=    9 NActive=    9 NUniq=    9 SFac= 1.00D+00 NAtFMM=   50 NAOKFM=F Big=F
 One-electron integrals computed using PRISM.
 NBasis=   231 RedAO= T  NBF=   231
 NBsUse=   231 1.00D-06 NBFU=   231
 Initial guess read from the read-write file.
 B after Tr=     0.000000    0.000000    0.000000
         Rot=    1.000000    0.000000    0.000000    0.000000 Ang=   0.00 deg.
 Initial guess orbital symmetries:
 Alpha Orbitals:
       Occupied  (A) (A) (A) (A) (A) (A) (A) (A) (A) (A) (A) (A)
                 (A) (A) (A) (A) (A) (A) (A) (A) (A) (A) (A)
       Virtual   (A) (A) (A) (A) (A) (A) (A) (A) (A) (A) (A) (A)
                 (A) (A) (A) (A) (A) (A) (A) (A) (A) (A) (A) (A)
                 (A) (A) (A) (A) (A) (A) (A) (A) (A) (A) (A) (A)
                 (A) (A) (A) (A) (A) (A) (A) (A) (A) (A) (A) (A)
                 (A) (A) (A) (A) (A) (A) (A) (A) (A) (A) (A) (A)
                 (A) (A) (A) (A) (A) (A) (A) (A) (A) (A) (A) (A)
                 (A) (A) (A) (A) (A) (A) (A) (A) (A) (A) (A) (A)
                 (A) (A) (A) (A) (A) (A) (A) (A) (A) (A) (A) (A)
                 (A) (A) (A) (A) (A) (A) (A) (A) (A) (A) (A) (A)
                 (A) (A) (A) (A) (A) (A) (A) (A) (A) (A) (A) (A)
                 (A) (A) (A) (A) (A) (A) (A) (A) (A) (A) (A) (A)
                 (A) (A) (A) (A) (A) (A) (A) (A) (A) (A) (A) (A)
                 (A) (A) (A) (A) (A) (A) (A) (A) (A) (A) (A) (A)
                 (A) (A) (A) (A) (A) (A) (A) (A) (A) (A) (A) (A)
                 (A) (A) (A) (A) (A) (A) (A) (A) (A) (A) (A) (A)
                 (A) (A) (A) (A) (A) (A) (A) (A) (A) (A) (A) (A)
                 (A) (A) (A) (A) (A) (A) (A) (A) (A) (A) (A) (A)
                 (A) (A) (A) (A)
 Beta  Orbitals:
       Occupied  (A) (A) (A) (A) (A) (A) (A) (A) (A) (A) (A) (A)
                 (A) (A) (A) (A) (A) (A) (A) (A) (A) (A)
       Virtual   (A) (A) (A) (A) (A) (A) (A) (A) (A) (A) (A) (A)
                 (A) (A) (A) (A) (A) (A) (A) (A) (A) (A) (A) (A)
                 (A) (A) (A) (A) (A) (A) (A) (A) (A) (A) (A) (A)
                 (A) (A) (A) (A) (A) (A) (A) (A) (A) (A) (A) (A)
                 (A) (A) (A) (A) (A) (A) (A) (A) (A) (A) (A) (A)
                 (A) (A) (A) (A) (A) (A) (A) (A) (A) (A) (A) (A)
                 (A) (A) (A) (A) (A) (A) (A) (A) (A) (A) (A) (A)
                 (A) (A) (A) (A) (A) (A) (A) (A) (A) (A) (A) (A)
                 (A) (A) (A) (A) (A) (A) (A) (A) (A) (A) (A) (A)
                 (A) (A) (A) (A) (A) (A) (A) (A) (A) (A) (A) (A)
                 (A) (A) (A) (A) (A) (A) (A) (A) (A) (A) (A) (A)
                 (A) (A) (A) (A) (A) (A) (A) (A) (A) (A) (A) (A)
                 (A) (A) (A) (A) (A) (A) (A) (A) (A) (A) (A) (A)
                 (A) (A) (A) (A) (A) (A) (A) (A) (A) (A) (A) (A)
                 (A) (A) (A) (A) (A) (A) (A) (A) (A) (A) (A) (A)
                 (A) (A) (A) (A) (A) (A) (A) (A) (A) (A) (A) (A)
                 (A) (A) (A) (A) (A) (A) (A) (A) (A) (A) (A) (A)
                 (A) (A) (A) (A) (A)
 Initial guess <Sx>= 0.0000 <Sy>= 0.0000 <Sz>= 0.5000 <S**2>= 0.7538 S= 0.5019
 Harris functional with IExCor= 1009 diagonalized for initial guess.
 ExpMin= 4.38D-02 ExpMax= 8.59D+03 ExpMxC= 1.30D+03 IAcc=2 IRadAn=         0 AccDes= 0.00D+00
 HarFok:  IExCor= 1009 AccDes= 0.00D+00 IRadAn=         0 IDoV= 1
 ScaDFX=  1.000000  1.000000  1.000000  1.000000
 FoFCou: FMM=F IPFlag=           0 FMFlag=      100000 FMFlg1=           0
         NFxFlg=           0 DoJE=T BraDBF=F KetDBF=T FulRan=T
         Omega=  0.000000  0.000000  1.000000  0.000000  0.000000 ICntrl=     500 IOpCl=  0
         NMat0=    1 NMatS0=    1 NMatT0=    0 NMatD0=    1 NMtDS0=    0 NMtDT0=    0
         I1Cent=           4 NGrid=           0.
 Petite list used in FoFCou.
 Requested convergence on RMS density matrix=1.00D-08 within 128 cycles.
 Requested convergence on MAX density matrix=1.00D-06.
 Requested convergence on             energy=1.00D-06.
 No special actions if energy rises.
 SCF Done:  E(UM062X) =  -341.712306236     A.U. after   17 cycles
             Convg  =    0.3865D-08             -V/T =  2.0030
 <Sx>= 0.0000 <Sy>= 0.0000 <Sz>= 0.5000 <S**2>= 0.7536 S= 0.5018
 <L.S>= 0.000000000000E+00
 Annihilation of the first spin contaminant:
 S**2 before annihilation     0.7536,   after     0.7500
 Calling FoFJK, ICntrl=      2127 FMM=F ISym2X=0 I1Cent= 0 IOpClX= 1 NMat=1 NMatS=1 NMatT=0.
 ***** Axes restored to original set *****
 -------------------------------------------------------------------
 Center     Atomic                   Forces (Hartrees/Bohr)
 Number     Number              X              Y              Z
 -------------------------------------------------------------------
      1        6           0.006193666    0.013505236   -0.000491841
      2        6          -0.001117800    0.019250672   -0.006396790
      3        8           0.006033770   -0.008351655    0.002164003
      4        6          -0.009298674   -0.021784856    0.002600913
      5        1          -0.000373076   -0.001236137    0.000803333
      6        1           0.000102868   -0.001968872   -0.003177470
      7        8          -0.002466790   -0.010825539    0.003683846
      8        1          -0.002408096   -0.004616046    0.001939068
      9        8           0.003334132    0.016027195   -0.001125061
 -------------------------------------------------------------------
 Cartesian Forces:  Max     0.021784856 RMS     0.008086717

 GradGradGradGradGradGradGradGradGradGradGradGradGradGradGradGradGradGrad
 Berny optimization.
 Using GDIIS optimizer.
 Internal  Forces:  Max     0.016204821 RMS     0.004807292
 Search for a local minimum.
 Step number   4 out of a maximum of   38
 All quantities printed in internal units (Hartrees-Bohrs-Radians)
 Swaping is turned off.
 Update second derivatives using D2CorX and points    3    4
 DE= -1.75D-03 DEPred=-1.31D-03 R= 1.33D+00
 SS=  1.41D+00  RLast= 6.95D-01 DXNew= 1.4270D+00 2.0842D+00
 Trust test= 1.33D+00 RLast= 6.95D-01 DXMaxT set to 1.43D+00
 ITU=  1  1  1  0
     Eigenvalues ---    0.00215   0.01378   0.01742   0.03074   0.08277
     Eigenvalues ---    0.09640   0.11771   0.14399   0.17449   0.21668
     Eigenvalues ---    0.24328   0.26387   0.26575   0.32480   0.32710
     Eigenvalues ---    0.35187   0.37647   0.44646   0.49088   0.84535
     Eigenvalues ---    1.22242
 DIIS coeff's:      2.31267     -2.39641      0.98676      0.09697
 Cosine:  0.905 >  0.710
 Length:  1.533
 GDIIS step was calculated using  4 of the last  4 vectors.
 Iteration  1 RMS(Cart)=  0.05261730 RMS(Int)=  0.09878875
 Iteration  2 RMS(Cart)=  0.04577459 RMS(Int)=  0.03341014
 Iteration  3 RMS(Cart)=  0.02336205 RMS(Int)=  0.00106097
 Iteration  4 RMS(Cart)=  0.00120370 RMS(Int)=  0.00010938
 Iteration  5 RMS(Cart)=  0.00000242 RMS(Int)=  0.00010937
 Iteration  6 RMS(Cart)=  0.00000000 RMS(Int)=  0.00010937
 Variable       Old X    -DE/DX   Delta X   Delta X   Delta X     New X
                                  (DIIS)     (GDIIS)  (Total)
    R1        2.70053  -0.00345   0.00268  -0.00530  -0.00263   2.69790
    R2        2.90260  -0.00793  -0.00873  -0.02159  -0.03032   2.87227
    R3        2.06139   0.00116   0.00367  -0.00283   0.00083   2.06222
    R4        2.04404   0.00343   0.00637   0.00265   0.00901   2.05305
    R5        2.52584   0.00440   0.01450  -0.00268   0.01182   2.53766
    R6        2.23838   0.01164   0.01078   0.00079   0.01157   2.24995
    R7        2.07995  -0.00260   0.00056  -0.00349  -0.00293   2.07703
    R8        2.19106   0.01620   0.01407  -0.00243   0.01164   2.20270
    A1        1.88613   0.00497   0.02837   0.00902   0.03739   1.92352
    A2        1.93675  -0.00121  -0.00716   0.00877   0.00167   1.93841
    A3        1.94515  -0.00117  -0.00657   0.00670   0.00032   1.94547
    A4        1.84788  -0.00013  -0.01206   0.01073  -0.00155   1.84633
    A5        1.94753  -0.00270  -0.00596  -0.02462  -0.03065   1.91688
    A6        1.89835   0.00026   0.00252  -0.01037  -0.00794   1.89041
    A7        2.19824  -0.00481  -0.02861   0.02397  -0.00464   2.19360
    A8        1.86877   0.00748   0.02532  -0.00675   0.01857   1.88734
    A9        2.21617  -0.00267   0.00329  -0.01722  -0.01393   2.20225
   A10        1.99762   0.00198   0.00096   0.00779   0.00876   2.00638
   A11        2.22041  -0.00023  -0.00112   0.02315   0.02203   2.24244
    D1       -3.07538  -0.00097   0.00915  -0.01532  -0.00624  -3.08162
    D2       -1.05660   0.00111   0.00743   0.00761   0.01527  -1.04134
    D3        1.06190  -0.00020   0.00159   0.00507   0.00652   1.06842
    D4        0.43206  -0.00116  -0.31795  -0.17777  -0.49566  -0.06360
    D5       -1.64407  -0.00220  -0.31829  -0.19825  -0.51630  -2.16037
    D6        2.57651  -0.00099  -0.31080  -0.17908  -0.49018   2.08633
    D7        0.02451  -0.00036  -0.01460  -0.00755  -0.02218   0.00233
    D8       -3.11760  -0.00035  -0.01496  -0.00628  -0.02120  -3.13880
    D9        3.14098   0.00001  -0.00034   0.00153   0.00115  -3.14105
         Item               Value     Threshold  Converged?
 Maximum Force            0.016205     0.000002     NO 
 RMS     Force            0.004807     0.000001     NO 
[...]
 Frequencies --  3104.1697              3126.0122              3146.1883
 Red. masses --     1.0575                 1.0943                 1.1054
 Frc consts  --     6.0036                 6.3003                 6.4467
 IR Inten    --     9.1452                29.4752                 0.1113
  Atom  AN      X      Y      Z        X      Y      Z        X      Y      Z
     1   6    -0.03  -0.06   0.00     0.00   0.00   0.00     0.00   0.00  -0.09
     2   6     0.00   0.00   0.00    -0.03   0.08   0.00     0.00   0.00   0.00
     3   8     0.00   0.00   0.00     0.00   0.00   0.00     0.00   0.00   0.00
     4   6     0.00   0.00   0.00     0.00   0.00   0.00     0.00   0.00   0.00
     5   1     0.18   0.36   0.58     0.01   0.02   0.02     0.20   0.37   0.56
     6   1     0.18   0.36  -0.58     0.01   0.02  -0.02    -0.20  -0.37   0.56
     7   8     0.00   0.00   0.00     0.00   0.00   0.00     0.00   0.00   0.00
     8   1    -0.01   0.04   0.00     0.37  -0.92   0.00     0.00   0.00   0.00
     9   8     0.00   0.00   0.00     0.00   0.00   0.00     0.00   0.00   0.00

 -------------------
 - Thermochemistry -
 -------------------
 Temperature   298.150 Kelvin.  Pressure   1.00000 Atm.
 Atom     1 has atomic number  6 and mass  12.00000
 Atom     2 has atomic number  6 and mass  12.00000
 Atom     3 has atomic number  8 and mass  15.99491
 Atom     4 has atomic number  6 and mass  12.00000
 Atom     5 has atomic number  1 and mass   1.00783
 Atom     6 has atomic number  1 and mass   1.00783
 Atom     7 has atomic number  8 and mass  15.99491
 Atom     8 has atomic number  1 and mass   1.00783
 Atom     9 has atomic number  8 and mass  15.99491
 Molecular mass:    87.00822 amu.
 Principal axes and moments of inertia in atomic units:
                           1         2         3
     Eigenvalues --   113.81487 935.435871038.10935
           X            0.99990  -0.01420   0.00000
           Y            0.01420   0.99990   0.00000
           Z            0.00000   0.00000   1.00000
 This molecule is an asymmetric top.
 Rotational symmetry number  1.
 Rotational temperatures (Kelvin)      0.76101     0.09259     0.08343
 Rotational constants (GHZ):          15.85681     1.92931     1.73849
 Zero-point vibrational energy     157720.7 (Joules/Mol)
                                   37.69616 (Kcal/Mol)
 Warning -- explicit consideration of   5 degrees of freedom as
           vibrations may cause significant error
 Vibrational temperatures:     64.14   252.15   307.69   382.50   491.72
          (Kelvin)            926.00  1139.23  1298.00  1318.52  1470.47
                             1527.99  1769.92  1834.44  1965.51  2020.92
                             2116.28  2663.56  2899.32  4466.20  4497.63
                             4526.66
 
 Zero-point correction=                           0.060073 (Hartree/Particle)
 Thermal correction to Energy=                    0.066162
 Thermal correction to Enthalpy=                  0.067106
 Thermal correction to Gibbs Free Energy=         0.028958
 Sum of electronic and zero-point Energies=           -341.654363
 Sum of electronic and thermal Energies=              -341.648274
 Sum of electronic and thermal Enthalpies=            -341.647329
 Sum of electronic and thermal Free Energies=         -341.685478
 
                     E (Thermal)             CV                S
                      KCal/Mol        Cal/Mol-Kelvin    Cal/Mol-Kelvin
 Total                   41.517             18.895             80.291
 Electronic               0.000              0.000              1.377
 Translational            0.889              2.981             39.303
 Rotational               0.889              2.981             26.205
 Vibrational             39.740             12.933             13.405
 Vibration     1          0.595              1.980              5.044
 Vibration     2          0.627              1.873              2.378
 Vibration     3          0.644              1.820              2.011
 Vibration     4          0.672              1.736              1.623
 Vibration     5          0.721              1.592              1.204
                       Q            Log10(Q)             Ln(Q)
 Total Bot       0.479108D-13        -13.319567        -30.669436
 Total V=0       0.205058D+15         14.311877         32.954315
 Vib (Bot)       0.631005D-26        -26.199967        -60.327653
 Vib (Bot)    1  0.463946D+01          0.666467          1.534598
 Vib (Bot)    2  0.114794D+01          0.059918          0.137967
 Vib (Bot)    3  0.927304D+00         -0.032778         -0.075474
 Vib (Bot)    4  0.728483D+00         -0.137581         -0.316792
 Vib (Bot)    5  0.542705D+00         -0.265436         -0.611189
 Vib (V=0)       0.270071D+02          1.431477          3.296098
 Vib (V=0)    1  0.516633D+01          0.713182          1.642162
 Vib (V=0)    2  0.175210D+01          0.243560          0.560817
 Vib (V=0)    3  0.155351D+01          0.191315          0.440519
 Vib (V=0)    4  0.138356D+01          0.141000          0.324663
 Vib (V=0)    5  0.123792D+01          0.092693          0.213434
 Electronic      0.200000D+01          0.301030          0.693147
 Translational   0.319004D+08          7.503796         17.278128
 Rotational      0.119008D+06          5.075574         11.686942
 ***** Axes restored to original set *****
 -------------------------------------------------------------------
 Center     Atomic                   Forces (Hartrees/Bohr)
 Number     Number              X              Y              Z
 -------------------------------------------------------------------
      1        6           0.000002610    0.000004035   -0.000001035
      2        6          -0.000001334   -0.000010003    0.000002397
      3        8          -0.000004039   -0.000002039    0.000000493
      4        6          -0.000001273    0.000012674   -0.000002942
      5        1           0.000006657    0.000003436   -0.000000828
      6        1           0.000006633    0.000003461   -0.000000813
      7        8           0.000006050   -0.000012044    0.000002892
      8        1          -0.000006818   -0.000014198    0.000003395
      9        8          -0.000008485    0.000014677   -0.000003558
 -------------------------------------------------------------------
 Cartesian Forces:  Max     0.000014677 RMS     0.000006629

 GradGradGradGradGradGradGradGradGradGradGradGradGradGradGradGradGradGrad
 Berny optimization.
 Internal  Forces:  Max     0.000000039 RMS     0.000000019
 Search for a local minimum.
 Step number   1 out of a maximum of    2
 All quantities printed in internal units (Hartrees-Bohrs-Radians)
 Swaping is turned off.
 Second derivative matrix not updated -- analytic derivatives used.
 ITU=  0
     Eigenvalues ---    0.00243   0.00437   0.02390   0.04954   0.06932
     Eigenvalues ---    0.07530   0.10326   0.13680   0.13885   0.14341
     Eigenvalues ---    0.23058   0.24408   0.27594   0.28584   0.34315
     Eigenvalues ---    0.34535   0.34992   0.37523   0.46669   0.95542
     Eigenvalues ---    1.05395
 Angle between quadratic step and forces=  90.00 degrees.
 Linear search not attempted -- option 19 set.
 Iteration  1 RMS(Cart)=  0.00000179 RMS(Int)=  0.00000000
 Iteration  2 RMS(Cart)=  0.00000000 RMS(Int)=  0.00000000
 Variable       Old X    -DE/DX   Delta X   Delta X   Delta X     New X
                                 (Linear)    (Quad)   (Total)
    R1        2.68756   0.00000   0.00000   0.00000   0.00000   2.68756
    R2        2.84450   0.00000   0.00000   0.00000   0.00000   2.84450
    R3        2.06141   0.00000   0.00000   0.00000   0.00000   2.06141
    R4        2.06141   0.00000   0.00000   0.00000   0.00000   2.06141
    R5        2.52903   0.00000   0.00000   0.00000   0.00000   2.52903
    R6        2.25394   0.00000   0.00000   0.00000   0.00000   2.25394
    R7        2.06879   0.00000   0.00000   0.00000   0.00000   2.06879
    R8        2.20824   0.00000   0.00000   0.00000   0.00000   2.20824
    A1        1.92605   0.00000   0.00000   0.00000   0.00000   1.92605
    A2        1.93813   0.00000   0.00000   0.00000   0.00000   1.93813
    A3        1.93813   0.00000   0.00000   0.00000   0.00000   1.93813
    A4        1.89177   0.00000   0.00000   0.00000   0.00000   1.89177
    A5        1.89177   0.00000   0.00000   0.00000   0.00000   1.89177
    A6        1.87628   0.00000   0.00000   0.00000   0.00000   1.87628
    A7        2.18071   0.00000   0.00000   0.00000   0.00000   2.18071
    A8        1.91304   0.00000   0.00000   0.00000   0.00000   1.91304
    A9        2.18944   0.00000   0.00000   0.00000   0.00000   2.18944
   A10        2.00515   0.00000   0.00000   0.00000   0.00000   2.00515
   A11        2.24772   0.00000   0.00000   0.00000   0.00000   2.24772
    D1        3.14158   0.00000   0.00000   0.00000   0.00000   3.14158
    D2       -1.04338   0.00000   0.00000   0.00000   0.00000  -1.04338
    D3        1.04335   0.00000   0.00000   0.00000   0.00000   1.04336
    D4        0.00001   0.00000   0.00000   0.00000   0.00000   0.00001
    D5       -2.12586   0.00000   0.00000   0.00000   0.00000  -2.12586
    D6        2.12588   0.00000   0.00000   0.00000   0.00000   2.12588
    D7        0.00000   0.00000   0.00000   0.00000   0.00000   0.00000
    D8       -3.14159   0.00000   0.00000   0.00000   0.00000  -3.14159
    D9       -3.14159   0.00000   0.00000   0.00000   0.00000  -3.14159
         Item               Value     Threshold  Converged?
 Maximum Force            0.000000     0.000002     YES
 RMS     Force            0.000000     0.000001     YES
 Maximum Displacement     0.000005     0.000006     YES
 RMS     Displacement     0.000002     0.000004     YES
 Predicted change in Energy=-2.108081D-13
 Optimization completed.
    -- Stationary point found.
                           ----------------------------
                           !   Optimized Parameters   !
                           ! (Angstroms and Degrees)  !
 --------------------------                            --------------------------
 ! Name  Definition              Value          Derivative Info.                !
 --------------------------------------------------------------------------------
 ! R1    R(1,3)                  1.4222         -DE/DX =    0.0                 !
 ! R2    R(1,4)                  1.5052         -DE/DX =    0.0                 !
 ! R3    R(1,5)                  1.0909         -DE/DX =    0.0                 !
 ! R4    R(1,6)                  1.0909         -DE/DX =    0.0                 !
 ! R5    R(2,3)                  1.3383         -DE/DX =    0.0                 !
 ! R6    R(2,7)                  1.1927         -DE/DX =    0.0                 !
 ! R7    R(2,8)                  1.0948         -DE/DX =    0.0                 !
 ! R8    R(4,9)                  1.1685         -DE/DX =    0.0                 !
 ! A1    A(3,1,4)              110.3547         -DE/DX =    0.0                 !
 ! A2    A(3,1,5)              111.0466         -DE/DX =    0.0                 !
 ! A3    A(3,1,6)              111.0466         -DE/DX =    0.0                 !
 ! A4    A(4,1,5)              108.3903         -DE/DX =    0.0                 !
 ! A5    A(4,1,6)              108.3904         -DE/DX =    0.0                 !
 ! A6    A(5,1,6)              107.5027         -DE/DX =    0.0                 !
 ! A7    A(3,2,7)              124.9455         -DE/DX =    0.0                 !
 ! A8    A(3,2,8)              109.609          -DE/DX =    0.0                 !
 ! A9    A(7,2,8)              125.4455         -DE/DX =    0.0                 !
 ! A10   A(1,3,2)              114.8864         -DE/DX =    0.0                 !
 ! A11   A(1,4,9)              128.785          -DE/DX =    0.0                 !
 ! D1    D(4,1,3,2)            179.9991         -DE/DX =    0.0                 !
 ! D2    D(5,1,3,2)            -59.7815         -DE/DX =    0.0                 !
 ! D3    D(6,1,3,2)             59.7796         -DE/DX =    0.0                 !
 ! D4    D(3,1,4,9)              0.0007         -DE/DX =    0.0                 !
 ! D5    D(5,1,4,9)           -121.8026         -DE/DX =    0.0                 !
 ! D6    D(6,1,4,9)            121.8041         -DE/DX =    0.0                 !
 ! D7    D(7,2,3,1)              0.0002         -DE/DX =    0.0                 !
 ! D8    D(8,2,3,1)           -179.9998         -DE/DX =    0.0                 !
 ! D9    D(3,2,7,8)           -180.0            -DE/DX =    0.0                 !
 --------------------------------------------------------------------------------
 GradGradGradGradGradGradGradGradGradGradGradGradGradGradGradGradGradGrad


 Test job not archived.
 1\1\GINC-COMPUTE-3-042\Freq\UM062X\6-311+G(2df,2p)\C3H3O3(2)\ROOT\10-M
 ar-2017\0\\#N Geom=AllCheck Guess=TCheck SCRF=Check Test GenChk UM062X
 /6-311+G(2df,2p) Freq\\InChI=1S/C3H3O3/c4-1-2-6-3-5/h3H,2H2/u1\\0,2\C,
 0.6510748541,-0.387220283,-0.0718938868\C,-1.5970838111,0.1961272309,-
 0.2171907757\O,-0.3294201056,0.6141866135,-0.3136762997\C,2.0342858474
 ,0.1910630301,-0.2063641497\H,0.5477292188,-0.8025138385,0.9315056637\
 H,0.5522510241,-1.2112691047,-0.7798039719\O,-1.9307909361,-0.91784497
 27,0.0479913783\H,-2.2756954738,1.0312715183,-0.4184645657\O,2.3476493
 822,1.286199806,-0.4671033924\\Version=EM64L-G09RevB.01\State=2-A\HF=-
 341.7144356\S2=0.753621\S2-1=0.\S2A=0.750008\RMSD=3.302e-09\RMSF=6.629
 e-06\ZeroPoint=0.0600727\Thermal=0.0661621\Dipole=-0.2484748,-0.088739
 9,0.0205445\DipoleDeriv=0.7067295,-0.267228,0.0647077,-0.4123906,0.324
 4766,0.0110549,0.0993804,0.0114427,0.3728729,1.8924215,0.3244177,-0.07
 32368,0.7352382,1.2475797,-0.2263786,-0.1713566,-0.2274674,0.3454894,-
 1.8479923,-0.2288553,0.050436,0.0237459,-0.5815169,0.078065,-0.009899,
 0.0773939,-0.2734506,0.4698359,0.4065,-0.0956321,0.4111067,0.6541349,-
 0.1749517,-0.0967319,-0.174965,-0.0413729,-0.0057076,-0.0020298,0.0105
 103,0.0938155,0.0876277,-0.0102,-0.0285067,0.0296958,0.0179945,-0.0056
 838,-0.0063768,-0.0086723,0.096555,0.0656549,-0.0134163,-0.0171334,-0.
 0538382,0.0399473,-0.7757558,-0.0938693,0.0213059,-0.5364882,-0.964691
 2,0.1440151,0.1270235,0.1451897,-0.3901105,-0.0339254,0.0604524,-0.014
 7922,0.0634865,-0.0313216,0.0313731,-0.015518,0.0313649,0.0917922,-0.3
 99922,-0.1930109,0.0453734,-0.4750691,-0.801944,0.1604386,0.1127415,0.
 1611837,-0.1631623\Polar=54.1771286,4.0291031,46.9943679,-0.90146,-3.7
 605591,32.1009097\PG=C01 [X(C3H3O3)]\NImag=0\\0.42561248,0.01751250,0.
 52391177,-0.00455578,0.01032765,0.56447269,-0.06965379,0.02009467,-0.0
 0499145,0.64090009,0.02105809,0.02096352,-0.00430243,0.02391333,1.0509
 2886,-0.00522169,-0.00430520,0.00372930,-0.00454432,-0.20286734,0.2497
 4116,-0.11411396,0.07122519,-0.01712062,-0.27603901,-0.02717558,0.0059
 2877,0.53092314,0.03853926,-0.16833832,0.02280868,-0.02866304,-0.12532
 122,0.01446879,-0.00274078,0.34621826,-0.00931355,0.02289543,-0.078763
 36,0.00628422,0.01447276,-0.06786416,0.00185256,-0.06367484,0.09486614
 ,-0.12759053,-0.00873223,0.00188244,-0.00085020,0.00680340,-0.00162693
 ,-0.05304440,0.00046468,-0.00026795,0.29034173,-0.03880271,-0.06737361
 ,0.00389847,-0.00031203,-0.00937887,0.00222383,0.03645539,0.00815505,-
 0.00034404,0.24851858,0.98485143,0.00906464,0.00397784,-0.05154638,0.0
 0007236,0.00224254,-0.00059998,-0.00886400,-0.00043924,0.00639237,-0.0
 5872624,-0.22228387,0.10437280,-0.05037321,-0.01195244,0.03806564,0.00
 541502,0.00585017,-0.00238530,-0.00832378,0.01591083,-0.02575737,-0.00
 371569,-0.01067272,0.02597373,0.05920642,-0.00677351,-0.07738145,0.091
 40668,-0.00352909,-0.00097436,0.00072966,0.00878062,-0.01649304,0.0242
 1718,-0.00712417,-0.00938560,0.00899325,0.00477367,0.09245659,0.027405
 14,0.09173764,-0.28201517,0.00266789,0.00243700,0.00014840,-0.00667749
 ,0.00462886,0.00124150,0.00230393,0.00129915,0.00077053,-0.02954271,-0
 .10296374,0.30068243,-0.05007243,-0.02700947,-0.02781025,0.00541913,0.
 00631228,-0.00049514,-0.00845618,0.02581050,0.01571120,-0.00359556,-0.
 02127399,-0.01837578,0.00198601,0.00372869,0.00419337,0.05892682,-0.01
 757387,-0.19306359,-0.13662235,-0.00434679,-0.00201936,0.00034724,0.01
 092542,-0.02445638,-0.01110290,-0.00737277,-0.01149492,-0.00285556,0.0
 0138719,0.00941105,0.00701896,0.01669502,0.21804410,-0.02064064,-0.136
 99206,-0.16663434,-0.00076232,-0.00130701,0.00118934,0.00188988,0.0085
 4361,0.00933695,0.00112626,0.00479242,0.00275953,-0.00529155,-0.021741
 50,-0.01967937,0.02344232,0.14496492,0.17537524,0.00789495,-0.00972226
 ,0.00235991,-0.15400707,-0.15628312,0.03712240,-0.04201976,-0.07189606
 ,0.01698182,0.00189180,-0.00114666,0.00027610,-0.00059944,0.00098490,0
 .00074593,-0.00059477,0.00054053,-0.00111298,0.17286707,0.01424399,-0.
 01113912,0.00119059,-0.13735348,-0.73880411,0.15776958,-0.08356468,-0.
 03183043,0.01446434,-0.00221379,0.00217407,-0.00027924,-0.00344599,0.0
 0101582,-0.00173287,-0.00341826,0.00169688,0.00101845,0.22587493,0.813
 62504,-0.00336432,0.00112715,-0.00659006,0.03260111,0.15771925,-0.1143
 1242,0.01976883,0.01449527,0.02624814,0.00053105,-0.00027652,0.0010965
 5,0.00074397,-0.00031418,0.00032635,0.00089280,-0.00037799,-0.00035921
 ,-0.05357303,-0.18629377,0.07549356,-0.00127059,-0.00471794,0.00110528
 ,-0.15385558,0.12122246,-0.02919054,-0.03735124,0.02389114,-0.00583424
 ,-0.00140939,0.00214703,-0.00051570,-0.00017709,0.00020056,-0.00010211
 ,-0.00017195,0.00022351,0.00000218,0.01648289,-0.01049200,0.00249169,0
 .17750421,-0.00287107,0.00160905,0.00124156,0.12826915,-0.19795487,0.0
 3218427,-0.00634124,0.00829201,0.00058915,-0.00029064,0.00038703,-0.00
 016644,0.00009789,-0.00021413,-0.00018830,-0.00038959,0.00001349,0.000
 03032,0.01272105,-0.03697386,0.01408734,-0.13131223,0.22492743,0.00066
 422,0.00123665,0.00654556,-0.03087363,0.03216561,-0.07239702,0.0013866
 4,0.00066944,0.01067292,0.00006645,-0.00015995,-0.00026828,0.00105446,
 -0.00041745,-0.00029431,-0.00098343,0.00026133,-0.00052705,-0.00305264
 ,0.01402567,0.01850725,0.03176561,-0.04784253,0.03759249,-0.02043292,-
 0.04669802,0.01106483,0.00267143,-0.00170102,0.00041275,0.00842520,-0.
 00131653,0.00034330,-0.10202776,-0.21491289,0.05109489,-0.00341824,-0.
 00104167,-0.00099395,-0.00344107,-0.00047824,0.00134684,-0.00191568,0.
 00036928,-0.00009210,0.00024875,0.00011668,-0.00002768,0.11989030,-0.0
 2533269,-0.02918825,0.01005114,0.00192729,0.00256041,-0.00055084,-0.00
 756435,0.00377408,-0.00151710,-0.23005305,-0.89793459,0.21081071,-0.00
 194860,0.00156513,-0.00223670,-0.00045516,0.00186874,0.00069085,-0.001
 07332,0.00023571,-0.00016654,-0.00116254,-0.00008614,0.00006122,0.2656
 6241,0.91720491,0.00596198,0.00999490,0.01080177,-0.00045386,-0.000560
 38,0.00036537,0.00183543,-0.00150057,-0.00213050,0.05471099,0.21085051
 ,-0.06297714,-0.00286089,0.00009010,-0.00118036,0.00342491,-0.00163366
 ,-0.00146108,0.00025250,-0.00016277,-0.00041016,0.00027783,0.00006462,
 0.00016844,-0.06314888,-0.21714275,0.05682367\\-0.00000261,-0.00000403
 ,0.00000103,0.00000133,0.00001000,-0.00000240,0.00000404,0.00000204,-0
 .00000049,0.00000127,-0.00001267,0.00000294,-0.00000666,-0.00000344,0.
 00000083,-0.00000663,-0.00000346,0.00000081,-0.00000605,0.00001204,-0.
 00000289,0.00000682,0.00001420,-0.00000339,0.00000849,-0.00001468,0.00
 000356\\\@


 OLD HORSE! OLD HORSE! WHAT BROUGHT YOU HERE?
 FROM SACARAP' TO PORTLAND PIER
 I'VE CARTED STONE THIS MANY A YEAR;
 TILL, KILLED BY BLOWS AND SORE ABUSE,
 THEY SALTED ME DOWN FOR SAILORS' USE.
 THE SAILORS THEY DO ME DESPISE;
 THEY TURN ME OVER AND DAMN MY EYES;
 CUT OFF MY MEAT, AND SCRAPE MY BONES,
 AND PITCH ME OVER TO DAVY JONES.

    SAILORS' COMPLAINT ABOUT THE BEEF
    SERVED ON SHIPBOARD, CIRCA 1835.
 Job cpu time:  0 days  1 hours 20 minutes  5.2 seconds.
 File lengths (MBytes):  RWF=   2480 Int=      0 D2E=      0 Chk=     32 Scr=     32
 Normal termination of Gaussian 09 at Fri Mar 10 16:17:34 2017.
