 Entering Gaussian System, Link 0=/shared/apps/gaussian/G09_LINUX_LINDA/g09/g09
 Input=/gss_gpfs_scratch/harms.n/QMscratch/ABFCHIFPZBUDOG-UHFFFAOYSA-u7.gjf
 Output=/gss_gpfs_scratch/harms.n/QMscratch/ABFCHIFPZBUDOG-UHFFFAOYSA-u7.log
 Initial command:
 /shared/apps/gaussian/G09_LINUX_LINDA/g09/l1.exe /gss_gpfs_scratch/harms.n/comparerTST/Gau-19130.inp -scrdir=/gss_gpfs_scratch/harms.n/comparerTST/
 Entering Link 1 = /shared/apps/gaussian/G09_LINUX_LINDA/g09/l1.exe PID=     19131.
  
 Copyright (c) 1988,1990,1992,1993,1995,1998,2003,2009,2010,
            Gaussian, Inc.  All Rights Reserved.
  
 This is part of the Gaussian(R) 09 program.  It is based on
 the Gaussian(R) 03 system (copyright 2003, Gaussian, Inc.),
 the Gaussian(R) 98 system (copyright 1998, Gaussian, Inc.),
 the Gaussian(R) 94 system (copyright 1995, Gaussian, Inc.),
 the Gaussian 92(TM) system (copyright 1992, Gaussian, Inc.),
 the Gaussian 90(TM) system (copyright 1990, Gaussian, Inc.),
 the Gaussian 88(TM) system (copyright 1988, Gaussian, Inc.),
 the Gaussian 86(TM) system (copyright 1986, Carnegie Mellon
 University), and the Gaussian 82(TM) system (copyright 1983,
 Carnegie Mellon University). Gaussian is a federally registered
 trademark of Gaussian, Inc.
  
 This software contains proprietary and confidential information,
 including trade secrets, belonging to Gaussian, Inc.
  
 This software is provided under written license and may be
 used, copied, transmitted, or stored only in accord with that
 written license.
  
 The following legend is applicable only to US Government
 contracts under FAR:
  
                    RESTRICTED RIGHTS LEGEND
  
 Use, reproduction and disclosure by the US Government is
 subject to restrictions as set forth in subparagraphs (a)
 and (c) of the Commercial Computer Software - Restricted
 Rights clause in FAR 52.227-19.
  
 Gaussian, Inc.
 340 Quinnipiac St., Bldg. 40, Wallingford CT 06492
  
  
 ---------------------------------------------------------------
 Warning -- This program may not be used in any manner that
 competes with the business of Gaussian, Inc. or will provide
 assistance to any competitor of Gaussian, Inc.  The licensee
 of this program is prohibited from giving any competitor of
 Gaussian, Inc. access to this program.  By using this program,
 the user acknowledges that Gaussian, Inc. is engaged in the
 business of creating and licensing software in the field of
 computational chemistry and represents and warrants to the
 licensee that it is not a competitor of Gaussian, Inc. and that
 it will not use this program in any manner prohibited above.
 ---------------------------------------------------------------
  

 Cite this work as:
 Gaussian 09, Revision B.01,
 M. J. Frisch, G. W. Trucks, H. B. Schlegel, G. E. Scuseria, 
 M. A. Robb, J. R. Cheeseman, G. Scalmani, V. Barone, B. Mennucci, 
 G. A. Petersson, H. Nakatsuji, M. Caricato, X. Li, H. P. Hratchian, 
 A. F. Izmaylov, J. Bloino, G. Zheng, J. L. Sonnenberg, M. Hada, 
 M. Ehara, K. Toyota, R. Fukuda, J. Hasegawa, M. Ishida, T. Nakajima, 
 Y. Honda, O. Kitao, H. Nakai, T. Vreven, J. A. Montgomery, Jr., 
 J. E. Peralta, F. Ogliaro, M. Bearpark, J. J. Heyd, E. Brothers, 
 K. N. Kudin, V. N. Staroverov, T. Keith, R. Kobayashi, J. Normand, 
 K. Raghavachari, A. Rendell, J. C. Burant, S. S. Iyengar, J. Tomasi, 
 M. Cossi, N. Rega, J. M. Millam, M. Klene, J. E. Knox, J. B. Cross, 
 V. Bakken, C. Adamo, J. Jaramillo, R. Gomperts, R. E. Stratmann, 
 O. Yazyev, A. J. Austin, R. Cammi, C. Pomelli, J. W. Ochterski, 
 R. L. Martin, K. Morokuma, V. G. Zakrzewski, G. A. Voth, 
 P. Salvador, J. J. Dannenberg, S. Dapprich, A. D. Daniels, 
 O. Farkas, J. B. Foresman, J. V. Ortiz, J. Cioslowski, 
 and D. J. Fox, Gaussian, Inc., Wallingford CT, 2010.
 
 ******************************************
 Gaussian 09:  EM64L-G09RevB.01 12-Aug-2010
                23-Oct-2017 
 ******************************************
 %nprocshared=20
 Will use up to   20 processors via shared memory.
 %mem=5GB
 --------------------------------------------
 # m062x/6-311+g(2df,2p) opt freq IOP(2/16=3)
 --------------------------------------------
 1/14=-1,18=20,19=15,26=3,38=1/1,3;
 2/9=110,12=2,16=3,17=6,18=5,40=1/2;
 3/5=4,6=6,7=214,11=2,16=1,25=1,30=1,71=1,74=-55/1,2,3;
 4//1;
 5/5=2,38=5/2;
 6/7=2,8=2,9=2,10=2,28=1/1;
 7//1,2,3,16;
 1/14=-1,18=20,19=15/3(2);
 2/9=110,16=3/2;
 99//99;
 2/9=110,16=3/2;
 3/5=4,6=6,7=214,11=2,16=1,25=1,30=1,71=1,74=-55/1,2,3;
 4/5=5,16=3/1;
 5/5=2,38=5/2;
 7//1,2,3,16;
 1/14=-1,18=20,19=15/3(-5);
 2/9=110,16=3/2;
 6/7=2,8=2,9=2,10=2,19=2,28=1/1;
 99/9=1/99;
 ------------------------------------------------------
 InChI=1S/C7H15O2/c1-3-5-7(9-8)6-4-2/h8H,3-6H2,1-2H3/u7
 ------------------------------------------------------
 Symbolic Z-matrix:
 Charge =  0 Multiplicity = 2
 C                    -2.5509    0.0509   -0.2907 
 C                     2.4646    0.5116   -0.0418 
 C                    -1.2507   -0.6222    0.1626 
 C                     1.2701   -0.3925    0.2813 
 C                    -3.7283   -0.9168   -0.2146 
 C                     3.7843   -0.2338    0.1363 
 C                    -0.0573    0.3326    0.0236 
 O                    -0.1971    1.4114    0.9073 
 O                    -0.3543    2.4667    0.1333 
 H                    -2.7687    0.9277    0.357 
 H                    -2.4422    0.4052   -1.3391 
 H                     2.4627    1.3954    0.6321 
 H                     2.3904    0.8682   -1.0924 
 H                    -1.0752   -1.52     -0.47 
 H                    -1.3447   -0.9508    1.2213 
 H                     1.3221   -1.2965   -0.3645 
 H                     1.3188   -0.7164    1.3445 
 H                    -3.8696   -1.271     0.8288 
 H                    -4.6552   -0.401    -0.5431 
 H                    -3.5541   -1.7903   -0.8785 
 H                     3.8902   -0.5852    1.1848 
 H                     3.8309   -1.1061   -0.5499 
 H                     4.63      0.4468   -0.0975 
 H                     0.4842    2.9858    0.2364 
 

 GradGradGradGradGradGradGradGradGradGradGradGradGradGradGradGradGradGrad
 Berny optimization.
 Initialization pass.
                           ----------------------------
                           !    Initial Parameters    !
                           ! (Angstroms and Degrees)  !
 --------------------------                            --------------------------
 ! Name  Definition              Value          Derivative Info.                !
 --------------------------------------------------------------------------------
 ! R1    R(1,3)                  1.5327         estimate D2E/DX2                !
 ! R2    R(1,5)                  1.5259         estimate D2E/DX2                !
 ! R3    R(1,10)                 1.1116         estimate D2E/DX2                !
 ! R4    R(1,11)                 1.112          estimate D2E/DX2                !
 ! R5    R(2,4)                  1.5325         estimate D2E/DX2                !
 ! R6    R(2,6)                  1.5261         estimate D2E/DX2                !
 ! R7    R(2,12)                 1.1114         estimate D2E/DX2                !
 ! R8    R(2,13)                 1.1119         estimate D2E/DX2                !
 ! R9    R(3,7)                  1.5347         estimate D2E/DX2                !
 ! R10   R(3,14)                 1.1122         estimate D2E/DX2                !
 ! R11   R(3,15)                 1.1125         estimate D2E/DX2                !
 ! R12   R(4,7)                  1.5343         estimate D2E/DX2                !
 ! R13   R(4,16)                 1.1122         estimate D2E/DX2                !
 ! R14   R(4,17)                 1.1125         estimate D2E/DX2                !
 ! R15   R(5,18)                 1.1109         estimate D2E/DX2                !
 ! R16   R(5,19)                 1.1105         estimate D2E/DX2                !
 ! R17   R(5,20)                 1.1109         estimate D2E/DX2                !
 ! R18   R(6,21)                 1.1109         estimate D2E/DX2                !
 ! R19   R(6,22)                 1.1108         estimate D2E/DX2                !
 ! R20   R(6,23)                 1.1104         estimate D2E/DX2                !
 ! R21   R(7,8)                  1.4015         estimate D2E/DX2                !
 ! R22   R(8,9)                  1.3181         estimate D2E/DX2                !
 ! R23   R(9,24)                 0.9916         estimate D2E/DX2                !
 ! A1    A(3,1,5)              111.1802         estimate D2E/DX2                !
 ! A2    A(3,1,10)             109.8939         estimate D2E/DX2                !
 ! A3    A(3,1,11)             109.6243         estimate D2E/DX2                !
 ! A4    A(5,1,10)             108.6607         estimate D2E/DX2                !
 ! A5    A(5,1,11)             108.9356         estimate D2E/DX2                !
 ! A6    A(10,1,11)            108.4927         estimate D2E/DX2                !
 ! A7    A(4,2,6)              111.1781         estimate D2E/DX2                !
 ! A8    A(4,2,12)             109.8742         estimate D2E/DX2                !
 ! A9    A(4,2,13)             109.6564         estimate D2E/DX2                !
 ! A10   A(6,2,12)             108.6099         estimate D2E/DX2                !
 ! A11   A(6,2,13)             108.942          estimate D2E/DX2                !
 ! A12   A(12,2,13)            108.5273         estimate D2E/DX2                !
 ! A13   A(1,3,7)              111.0796         estimate D2E/DX2                !
 ! A14   A(1,3,14)             108.6717         estimate D2E/DX2                !
 ! A15   A(1,3,15)             109.8461         estimate D2E/DX2                !
 ! A16   A(7,3,14)             109.1472         estimate D2E/DX2                !
 ! A17   A(7,3,15)             109.6131         estimate D2E/DX2                !
 ! A18   A(14,3,15)            108.4316         estimate D2E/DX2                !
 ! A19   A(2,4,7)              111.1068         estimate D2E/DX2                !
 ! A20   A(2,4,16)             108.7022         estimate D2E/DX2                !
 ! A21   A(2,4,17)             109.8235         estimate D2E/DX2                !
 ! A22   A(7,4,16)             109.0895         estimate D2E/DX2                !
 ! A23   A(7,4,17)             109.6317         estimate D2E/DX2                !
 ! A24   A(16,4,17)            108.4349         estimate D2E/DX2                !
 ! A25   A(1,5,18)             110.3148         estimate D2E/DX2                !
 ! A26   A(1,5,19)             109.556          estimate D2E/DX2                !
 ! A27   A(1,5,20)             110.3556         estimate D2E/DX2                !
 ! A28   A(18,5,19)            108.6496         estimate D2E/DX2                !
 ! A29   A(18,5,20)            109.3021         estimate D2E/DX2                !
 ! A30   A(19,5,20)            108.6223         estimate D2E/DX2                !
 ! A31   A(2,6,21)             110.3097         estimate D2E/DX2                !
 ! A32   A(2,6,22)             110.3491         estimate D2E/DX2                !
 ! A33   A(2,6,23)             109.5513         estimate D2E/DX2                !
 ! A34   A(21,6,22)            109.3081         estimate D2E/DX2                !
 ! A35   A(21,6,23)            108.663          estimate D2E/DX2                !
 ! A36   A(22,6,23)            108.6197         estimate D2E/DX2                !
 ! A37   A(3,7,4)              111.3166         estimate D2E/DX2                !
 ! A38   A(3,7,8)              110.1341         estimate D2E/DX2                !
 ! A39   A(4,7,8)              110.1304         estimate D2E/DX2                !
 ! A40   A(7,8,9)              104.9458         estimate D2E/DX2                !
 ! A41   A(8,9,24)             104.9057         estimate D2E/DX2                !
 ! D1    D(5,1,3,7)            177.3689         estimate D2E/DX2                !
 ! D2    D(5,1,3,14)            57.2825         estimate D2E/DX2                !
 ! D3    D(5,1,3,15)           -61.1928         estimate D2E/DX2                !
 ! D4    D(10,1,3,7)           -62.2905         estimate D2E/DX2                !
 ! D5    D(10,1,3,14)          177.623          estimate D2E/DX2                !
 ! D6    D(10,1,3,15)           59.1477         estimate D2E/DX2                !
 ! D7    D(11,1,3,7)            56.8626         estimate D2E/DX2                !
 ! D8    D(11,1,3,14)          -63.2239         estimate D2E/DX2                !
 ! D9    D(11,1,3,15)          178.3008         estimate D2E/DX2                !
 ! D10   D(3,1,5,18)            60.142          estimate D2E/DX2                !
 ! D11   D(3,1,5,19)           179.7042         estimate D2E/DX2                !
 ! D12   D(3,1,5,20)           -60.7421         estimate D2E/DX2                !
 ! D13   D(10,1,5,18)          -60.9248         estimate D2E/DX2                !
 ! D14   D(10,1,5,19)           58.6374         estimate D2E/DX2                !
 ! D15   D(10,1,5,20)          178.1911         estimate D2E/DX2                !
 ! D16   D(11,1,5,18)         -178.946          estimate D2E/DX2                !
 ! D17   D(11,1,5,19)          -59.3838         estimate D2E/DX2                !
 ! D18   D(11,1,5,20)           60.1699         estimate D2E/DX2                !
 ! D19   D(6,2,4,7)           -176.7047         estimate D2E/DX2                !
 ! D20   D(6,2,4,16)           -56.6533         estimate D2E/DX2                !
 ! D21   D(6,2,4,17)            61.831          estimate D2E/DX2                !
 ! D22   D(12,2,4,7)            63.0328         estimate D2E/DX2                !
 ! D23   D(12,2,4,16)         -176.9158         estimate D2E/DX2                !
 ! D24   D(12,2,4,17)          -58.4315         estimate D2E/DX2                !
 ! D25   D(13,2,4,7)           -56.1704         estimate D2E/DX2                !
 ! D26   D(13,2,4,16)           63.881          estimate D2E/DX2                !
 ! D27   D(13,2,4,17)         -177.6347         estimate D2E/DX2                !
 ! D28   D(4,2,6,21)           -60.0416         estimate D2E/DX2                !
 ! D29   D(4,2,6,22)            60.8424         estimate D2E/DX2                !
 ! D30   D(4,2,6,23)          -179.6141         estimate D2E/DX2                !
 ! D31   D(12,2,6,21)           60.9662         estimate D2E/DX2                !
 ! D32   D(12,2,6,22)         -178.1499         estimate D2E/DX2                !
 ! D33   D(12,2,6,23)          -58.6063         estimate D2E/DX2                !
 ! D34   D(13,2,6,21)          179.0035         estimate D2E/DX2                !
 ! D35   D(13,2,6,22)          -60.1125         estimate D2E/DX2                !
 ! D36   D(13,2,6,23)           59.431          estimate D2E/DX2                !
 ! D37   D(1,3,7,4)           -171.8135         estimate D2E/DX2                !
 ! D38   D(1,3,7,8)             65.738          estimate D2E/DX2                !
 ! D39   D(14,3,7,4)           -52.0098         estimate D2E/DX2                !
 ! D40   D(14,3,7,8)          -174.4583         estimate D2E/DX2                !
 ! D41   D(15,3,7,4)            66.6119         estimate D2E/DX2                !
 ! D42   D(15,3,7,8)           -55.8366         estimate D2E/DX2                !
 ! D43   D(2,4,7,3)            172.3453         estimate D2E/DX2                !
 ! D44   D(2,4,7,8)            -65.204          estimate D2E/DX2                !
 ! D45   D(16,4,7,3)            52.5241         estimate D2E/DX2                !
 ! D46   D(16,4,7,8)           174.9747         estimate D2E/DX2                !
 ! D47   D(17,4,7,3)           -66.0782         estimate D2E/DX2                !
 ! D48   D(17,4,7,8)            56.3724         estimate D2E/DX2                !
 ! D49   D(3,7,8,9)           -114.0562         estimate D2E/DX2                !
 ! D50   D(4,7,8,9)            122.7988         estimate D2E/DX2                !
 ! D51   D(7,8,9,24)          -109.9028         estimate D2E/DX2                !
 --------------------------------------------------------------------------------
 Trust Radius=3.00D-01 FncErr=1.00D-07 GrdErr=1.00D-06
 Number of steps in this run=    125 maximum allowed number of steps=    144.
 GradGradGradGradGradGradGradGradGradGradGradGradGradGradGradGradGradGrad

                          Input orientation:                          
 ---------------------------------------------------------------------
 Center     Atomic      Atomic             Coordinates (Angstroms)
 Number     Number       Type             X           Y           Z
 ---------------------------------------------------------------------
      1          6           0       -2.550900    0.050900   -0.290700
      2          6           0        2.464600    0.511600   -0.041800
      3          6           0       -1.250700   -0.622200    0.162600
      4          6           0        1.270100   -0.392500    0.281300
      5          6           0       -3.728300   -0.916800   -0.214600
      6          6           0        3.784300   -0.233800    0.136300
      7          6           0       -0.057300    0.332600    0.023600
      8          8           0       -0.197100    1.411400    0.907300
      9          8           0       -0.354300    2.466700    0.133300
     10          1           0       -2.768700    0.927700    0.357000
     11          1           0       -2.442200    0.405200   -1.339100
     12          1           0        2.462700    1.395400    0.632100
     13          1           0        2.390400    0.868200   -1.092400
     14          1           0       -1.075200   -1.520000   -0.470000
     15          1           0       -1.344700   -0.950800    1.221300
     16          1           0        1.322100   -1.296500   -0.364500
     17          1           0        1.318800   -0.716400    1.344500
     18          1           0       -3.869600   -1.271000    0.828800
     19          1           0       -4.655200   -0.401000   -0.543100
     20          1           0       -3.554100   -1.790300   -0.878500
     21          1           0        3.890200   -0.585200    1.184800
     22          1           0        3.830900   -1.106100   -0.549900
     23          1           0        4.630000    0.446800   -0.097500
     24          1           0        0.484200    2.985800    0.236400
 ---------------------------------------------------------------------
                    Distance matrix (angstroms):
                    1          2          3          4          5
     1  C    0.000000
     2  C    5.042761   0.000000
     3  C    1.532666   3.889825   0.000000
     4  C    3.888937   1.532521   2.534025   0.000000
     5  C    1.525944   6.357845   2.523405   5.050229   0.000000
     6  C    6.355953   1.526089   5.050027   2.523373   7.551740
     7  C    2.529067   2.529090   1.534656   1.534330   3.885097
     8  O    2.970949   2.965650   2.408356   2.408030   4.375905
     9  O    3.292555   3.435007   3.216472   3.291748   4.790927
    10  H    1.111634   5.264942   2.178143   4.249772   2.156325
    11  H    1.111974   5.076514   2.174931   4.128340   2.160148
    12  H    5.272137   1.111417   4.252115   2.177600   6.662706
    13  H    5.072194   1.111949   4.129640   2.175198   6.433914
    14  H    2.162768   4.103771   1.112218   2.708531   2.732768
    15  H    2.178179   4.271393   1.112502   2.834163   2.782897
    16  H    4.101349   2.163023   2.711423   1.112195   5.066871
    17  H    4.270504   2.177767   2.829857   1.112509   5.286225
    18  H    2.177078   6.637597   2.779101   5.242903   1.110904
    19  H    2.167025   7.195533   3.483900   5.982381   1.110453
    20  H    2.177599   6.497966   2.784600   5.154793   1.110906
    21  H    6.638486   2.177120   5.241671   2.778195   7.753052
    22  H    6.491010   2.177589   5.154074   2.785285   7.569000
    23  H    7.194400   2.167085   5.982729   3.483797   8.469610
    24  H    4.254798   3.181359   4.004121   3.468799   5.760108
                    6          7          8          9         10
     6  C    0.000000
     7  C    3.884765   0.000000
     8  O    4.376376   1.401527   0.000000
     9  O    4.941732   2.157458   1.318122   0.000000
    10  H    6.658799   2.795888   2.673934   2.871914   0.000000
    11  H    6.430741   2.747721   3.331550   3.282845   1.804540
    12  H    2.155629   2.801824   2.674047   3.054828   5.259465
    13  H    2.160339   2.742911   3.314969   3.404544   5.359162
    14  H    5.063265   2.170688   3.355759   4.096028   3.089192
    15  H    5.291309   2.176924   2.644914   3.720745   2.510688
    16  H    2.728106   2.169639   3.355319   4.149674   4.711929
    17  H    2.787712   2.176885   2.648892   3.794522   4.515072
    18  H    7.754839   4.213492   4.548482   5.177978   2.503769
    19  H    8.468453   4.690416   5.026242   5.213345   2.476793
    20  H    7.569982   4.189045   4.970856   5.420748   3.087205
    21  H    1.110878   4.215863   4.557350   5.332497   6.878595
    22  H    1.110833   4.185315   4.968503   5.545048   6.965165
    23  H    1.110445   4.690255   5.024039   5.382983   7.428230
    24  H    4.611562   2.716243   1.842013   0.991553   3.851192
                   11         12         13         14         15
    11  H    0.000000
    12  H    5.378120   0.000000
    13  H    4.860993   1.804735   0.000000
    14  H    2.516032   4.714967   4.254558   0.000000
    15  H    3.098208   4.510887   4.755307   1.804748   0.000000
    16  H    4.244477   3.088771   2.521315   2.410006   3.121873
    17  H    4.754452   2.505139   3.098026   3.109569   2.676631
    18  H    3.089807   6.873602   6.888743   3.091529   2.575210
    19  H    2.486150   7.434558   7.180047   3.751520   3.791411
    20  H    2.503736   6.973699   6.515401   2.526832   3.161545
    21  H    6.888414   2.503200   3.089889   5.316711   5.247778
    22  H    6.500665   3.086519   2.503439   4.924177   5.472486
    23  H    7.180481   2.475752   2.486607   6.046186   6.276110
    24  H    4.207792   2.569127   3.143809   4.820058   4.451036
                   16         17         18         19         20
    16  H    0.000000
    17  H    1.804774   0.000000
    18  H    5.327135   5.243379   0.000000
    19  H    6.046646   6.273052   1.804488   0.000000
    20  H    4.928018   5.462613   1.812205   1.804181   0.000000
    21  H    3.082437   2.579693   7.798176   8.720288   7.818381
    22  H    2.522836   3.170373   7.824686   8.515345   7.423903
    23  H    3.748678   3.794265   8.720784   9.334466   8.520215
    24  H    4.404685   3.953572   6.117749   6.204149   6.353109
                   21         22         23         24
    21  H    0.000000
    22  H    1.812191   0.000000
    23  H    1.804611   1.804086   0.000000
    24  H    5.025171   5.344372   4.872953   0.000000
 Stoichiometry    C7H15O2(2)
 Framework group  C1[X(C7H15O2)]
 Deg. of freedom    66
 Full point group                 C1      NOp   1
 Largest Abelian subgroup         C1      NOp   1
 Largest concise Abelian subgroup C1      NOp   1
                         Standard orientation:                         
 ---------------------------------------------------------------------
 Center     Atomic      Atomic             Coordinates (Angstroms)
 Number     Number       Type             X           Y           Z
 ---------------------------------------------------------------------
      1          6           0       -2.521207   -0.035614   -0.294495
      2          6           0        2.521544   -0.037655   -0.284414
      3          6           0       -1.268408   -0.778000    0.183442
      4          6           0        1.265614   -0.781550    0.182364
      5          6           0       -3.777690   -0.870926   -0.066441
      6          6           0        3.774038   -0.883361   -0.072311
      7          6           0       -0.000180    0.036167   -0.106206
      8          8           0        0.001906    1.213036    0.654881
      9          8           0       -0.094080    2.188208   -0.226750
     10          1           0       -2.626473    0.923300    0.257895
     11          1           0       -2.430212    0.190488   -1.379430
     12          1           0        2.632904    0.910159    0.285232
     13          1           0        2.430727    0.208166   -1.365041
     14          1           0       -1.206430   -1.751960   -0.350027
     15          1           0       -1.341929   -0.978978    1.275166
     16          1           0        1.203559   -1.751139   -0.358953
     17          1           0        1.334673   -0.991184    1.272759
     18          1           0       -3.901337   -1.094321    1.014722
     19          1           0       -4.667744   -0.306696   -0.416516
     20          1           0       -3.716254   -1.824120   -0.633678
     21          1           0        3.896762   -1.127330    1.004474
     22          1           0        3.707612   -1.825455   -0.657116
     23          1           0        4.666715   -0.317165   -0.412362
     24          1           0        0.792556    2.631926   -0.213816
 ---------------------------------------------------------------------
 Rotational constants (GHZ):      2.7977444      0.7321763      0.6104268
 Standard basis: 6-311+G(2df,2p) (5D, 7F)
 There are   441 symmetry adapted basis functions of A   symmetry.
 Integral buffers will be    131072 words long.
 Raffenetti 2 integral format.
 Two-electron integral symmetry is turned on.
   441 basis functions,   633 primitive gaussians,   486 cartesian basis functions
    37 alpha electrons       36 beta electrons
       nuclear repulsion energy       475.6105045942 Hartrees.
 NAtoms=   24 NActive=   24 NUniq=   24 SFac= 1.00D+00 NAtFMM=   50 NAOKFM=F Big=F
 One-electron integrals computed using PRISM.
 NBasis=   441 RedAO= T  NBF=   441
 NBsUse=   441 1.00D-06 NBFU=   441
 Harris functional with IExCor= 1009 diagonalized for initial guess.
 ExpMin= 4.38D-02 ExpMax= 8.59D+03 ExpMxC= 1.30D+03 IAcc=2 IRadAn=         0 AccDes= 0.00D+00
 HarFok:  IExCor= 1009 AccDes= 0.00D+00 IRadAn=         0 IDoV= 1
 ScaDFX=  1.000000  1.000000  1.000000  1.000000
 FoFCou: FMM=F IPFlag=           0 FMFlag=      100000 FMFlg1=           0
         NFxFlg=           0 DoJE=T BraDBF=F KetDBF=T FulRan=T
         Omega=  0.000000  0.000000  1.000000  0.000000  0.000000 ICntrl=     500 IOpCl=  0
         NMat0=    1 NMatS0=    1 NMatT0=    0 NMatD0=    1 NMtDS0=    0 NMtDT0=    0
         I1Cent=           4 NGrid=           0.
 Petite list used in FoFCou.
 Initial guess orbital symmetries:
 Alpha Orbitals:
       Occupied  (A) (A) (A) (A) (A) (A) (A) (A) (A) (A) (A) (A)
                 (A) (A) (A) (A) (A) (A) (A) (A) (A) (A) (A) (A)
                 (A) (A) (A) (A) (A) (A) (A) (A) (A) (A) (A) (A)
                 (A)
       Virtual   (A) (A) (A) (A) (A) (A) (A) (A) (A) (A) (A) (A)
                 (A) (A) (A) (A) (A) (A) (A) (A) (A) (A) (A) (A)
                 (A) (A) (A) (A) (A) (A) (A) (A) (A) (A) (A) (A)
                 (A) (A) (A) (A) (A) (A) (A) (A) (A) (A) (A) (A)
                 (A) (A) (A) (A) (A) (A) (A) (A) (A) (A) (A) (A)
                 (A) (A) (A) (A) (A) (A) (A) (A) (A) (A) (A) (A)
                 (A) (A) (A) (A) (A) (A) (A) (A) (A) (A) (A) (A)
                 (A) (A) (A) (A) (A) (A) (A) (A) (A) (A) (A) (A)
                 (A) (A) (A) (A) (A) (A) (A) (A) (A) (A) (A) (A)
                 (A) (A) (A) (A) (A) (A) (A) (A) (A) (A) (A) (A)
                 (A) (A) (A) (A) (A) (A) (A) (A) (A) (A) (A) (A)
                 (A) (A) (A) (A) (A) (A) (A) (A) (A) (A) (A) (A)
                 (A) (A) (A) (A) (A) (A) (A) (A) (A) (A) (A) (A)
                 (A) (A) (A) (A) (A) (A) (A) (A) (A) (A) (A) (A)
                 (A) (A) (A) (A) (A) (A) (A) (A) (A) (A) (A) (A)
                 (A) (A) (A) (A) (A) (A) (A) (A) (A) (A) (A) (A)
                 (A) (A) (A) (A) (A) (A) (A) (A) (A) (A) (A) (A)
                 (A) (A) (A) (A) (A) (A) (A) (A) (A) (A) (A) (A)
                 (A) (A) (A) (A) (A) (A) (A) (A) (A) (A) (A) (A)
                 (A) (A) (A) (A) (A) (A) (A) (A) (A) (A) (A) (A)
                 (A) (A) (A) (A) (A) (A) (A) (A) (A) (A) (A) (A)
                 (A) (A) (A) (A) (A) (A) (A) (A) (A) (A) (A) (A)
                 (A) (A) (A) (A) (A) (A) (A) (A) (A) (A) (A) (A)
                 (A) (A) (A) (A) (A) (A) (A) (A) (A) (A) (A) (A)
                 (A) (A) (A) (A) (A) (A) (A) (A) (A) (A) (A) (A)
                 (A) (A) (A) (A) (A) (A) (A) (A) (A) (A) (A) (A)
                 (A) (A) (A) (A) (A) (A) (A) (A) (A) (A) (A) (A)
                 (A) (A) (A) (A) (A) (A) (A) (A) (A) (A) (A) (A)
                 (A) (A) (A) (A) (A) (A) (A) (A) (A) (A) (A) (A)
                 (A) (A) (A) (A) (A) (A) (A) (A) (A) (A) (A) (A)
                 (A) (A) (A) (A) (A) (A) (A) (A) (A) (A) (A) (A)
                 (A) (A) (A) (A) (A) (A) (A) (A) (A) (A) (A) (A)
                 (A) (A) (A) (A) (A) (A) (A) (A) (A) (A) (A) (A)
                 (A) (A) (A) (A) (A) (A) (A) (A)
 Beta  Orbitals:
       Occupied  (A) (A) (A) (A) (A) (A) (A) (A) (A) (A) (A) (A)
                 (A) (A) (A) (A) (A) (A) (A) (A) (A) (A) (A) (A)
                 (A) (A) (A) (A) (A) (A) (A) (A) (A) (A) (A) (A)
       Virtual   (A) (A) (A) (A) (A) (A) (A) (A) (A) (A) (A) (A)
                 (A) (A) (A) (A) (A) (A) (A) (A) (A) (A) (A) (A)
                 (A) (A) (A) (A) (A) (A) (A) (A) (A) (A) (A) (A)
                 (A) (A) (A) (A) (A) (A) (A) (A) (A) (A) (A) (A)
                 (A) (A) (A) (A) (A) (A) (A) (A) (A) (A) (A) (A)
                 (A) (A) (A) (A) (A) (A) (A) (A) (A) (A) (A) (A)
                 (A) (A) (A) (A) (A) (A) (A) (A) (A) (A) (A) (A)
                 (A) (A) (A) (A) (A) (A) (A) (A) (A) (A) (A) (A)
                 (A) (A) (A) (A) (A) (A) (A) (A) (A) (A) (A) (A)
                 (A) (A) (A) (A) (A) (A) (A) (A) (A) (A) (A) (A)
                 (A) (A) (A) (A) (A) (A) (A) (A) (A) (A) (A) (A)
                 (A) (A) (A) (A) (A) (A) (A) (A) (A) (A) (A) (A)
                 (A) (A) (A) (A) (A) (A) (A) (A) (A) (A) (A) (A)
                 (A) (A) (A) (A) (A) (A) (A) (A) (A) (A) (A) (A)
                 (A) (A) (A) (A) (A) (A) (A) (A) (A) (A) (A) (A)
                 (A) (A) (A) (A) (A) (A) (A) (A) (A) (A) (A) (A)
                 (A) (A) (A) (A) (A) (A) (A) (A) (A) (A) (A) (A)
                 (A) (A) (A) (A) (A) (A) (A) (A) (A) (A) (A) (A)
                 (A) (A) (A) (A) (A) (A) (A) (A) (A) (A) (A) (A)
                 (A) (A) (A) (A) (A) (A) (A) (A) (A) (A) (A) (A)
                 (A) (A) (A) (A) (A) (A) (A) (A) (A) (A) (A) (A)
                 (A) (A) (A) (A) (A) (A) (A) (A) (A) (A) (A) (A)
                 (A) (A) (A) (A) (A) (A) (A) (A) (A) (A) (A) (A)
                 (A) (A) (A) (A) (A) (A) (A) (A) (A) (A) (A) (A)
                 (A) (A) (A) (A) (A) (A) (A) (A) (A) (A) (A) (A)
                 (A) (A) (A) (A) (A) (A) (A) (A) (A) (A) (A) (A)
                 (A) (A) (A) (A) (A) (A) (A) (A) (A) (A) (A) (A)
                 (A) (A) (A) (A) (A) (A) (A) (A) (A) (A) (A) (A)
                 (A) (A) (A) (A) (A) (A) (A) (A) (A) (A) (A) (A)
                 (A) (A) (A) (A) (A) (A) (A) (A) (A) (A) (A) (A)
                 (A) (A) (A) (A) (A) (A) (A) (A) (A) (A) (A) (A)
                 (A) (A) (A) (A) (A) (A) (A) (A) (A) (A) (A) (A)
                 (A) (A) (A) (A) (A) (A) (A) (A) (A) (A) (A) (A)
                 (A) (A) (A) (A) (A) (A) (A) (A) (A)
 The electronic state of the initial guess is 2-A.
 Initial guess <Sx>= 0.0000 <Sy>= 0.0000 <Sz>= 0.5000 <S**2>= 0.7500 S= 0.5000
 Requested convergence on RMS density matrix=1.00D-08 within 128 cycles.
 Requested convergence on MAX density matrix=1.00D-06.
 Requested convergence on             energy=1.00D-06.
 No special actions if energy rises.
 SCF Done:  E(UM062X) =  -425.994270739     A.U. after   15 cycles
             Convg  =    0.2825D-08             -V/T =  2.0044
 <Sx>= 0.0000 <Sy>= 0.0000 <Sz>= 0.5000 <S**2>= 0.7544 S= 0.5022
 <L.S>= 0.000000000000E+00
 Annihilation of the first spin contaminant:
 S**2 before annihilation     0.7544,   after     0.7500

 **********************************************************************

            Population analysis using the SCF density.

 **********************************************************************

 Orbital symmetries:
 Alpha Orbitals:
       Occupied  (A) (A) (A) (A) (A) (A) (A) (A) (A) (A) (A) (A)
                 (A) (A) (A) (A) (A) (A) (A) (A) (A) (A) (A) (A)
                 (A) (A) (A) (A) (A) (A) (A) (A) (A) (A) (A) (A)
                 (A)
       Virtual   (A) (A) (A) (A) (A) (A) (A) (A) (A) (A) (A) (A)
                 (A) (A) (A) (A) (A) (A) (A) (A) (A) (A) (A) (A)
                 (A) (A) (A) (A) (A) (A) (A) (A) (A) (A) (A) (A)
                 (A) (A) (A) (A) (A) (A) (A) (A) (A) (A) (A) (A)
                 (A) (A) (A) (A) (A) (A) (A) (A) (A) (A) (A) (A)
                 (A) (A) (A) (A) (A) (A) (A) (A) (A) (A) (A) (A)
                 (A) (A) (A) (A) (A) (A) (A) (A) (A) (A) (A) (A)
                 (A) (A) (A) (A) (A) (A) (A) (A) (A) (A) (A) (A)
                 (A) (A) (A) (A) (A) (A) (A) (A) (A) (A) (A) (A)
                 (A) (A) (A) (A) (A) (A) (A) (A) (A) (A) (A) (A)
                 (A) (A) (A) (A) (A) (A) (A) (A) (A) (A) (A) (A)
                 (A) (A) (A) (A) (A) (A) (A) (A) (A) (A) (A) (A)
                 (A) (A) (A) (A) (A) (A) (A) (A) (A) (A) (A) (A)
                 (A) (A) (A) (A) (A) (A) (A) (A) (A) (A) (A) (A)
                 (A) (A) (A) (A) (A) (A) (A) (A) (A) (A) (A) (A)
                 (A) (A) (A) (A) (A) (A) (A) (A) (A) (A) (A) (A)
                 (A) (A) (A) (A) (A) (A) (A) (A) (A) (A) (A) (A)
                 (A) (A) (A) (A) (A) (A) (A) (A) (A) (A) (A) (A)
                 (A) (A) (A) (A) (A) (A) (A) (A) (A) (A) (A) (A)
                 (A) (A) (A) (A) (A) (A) (A) (A) (A) (A) (A) (A)
                 (A) (A) (A) (A) (A) (A) (A) (A) (A) (A) (A) (A)
                 (A) (A) (A) (A) (A) (A) (A) (A) (A) (A) (A) (A)
                 (A) (A) (A) (A) (A) (A) (A) (A) (A) (A) (A) (A)
                 (A) (A) (A) (A) (A) (A) (A) (A) (A) (A) (A) (A)
                 (A) (A) (A) (A) (A) (A) (A) (A) (A) (A) (A) (A)
                 (A) (A) (A) (A) (A) (A) (A) (A) (A) (A) (A) (A)
                 (A) (A) (A) (A) (A) (A) (A) (A) (A) (A) (A) (A)
                 (A) (A) (A) (A) (A) (A) (A) (A) (A) (A) (A) (A)
                 (A) (A) (A) (A) (A) (A) (A) (A) (A) (A) (A) (A)
                 (A) (A) (A) (A) (A) (A) (A) (A) (A) (A) (A) (A)
                 (A) (A) (A) (A) (A) (A) (A) (A) (A) (A) (A) (A)
                 (A) (A) (A) (A) (A) (A) (A) (A) (A) (A) (A) (A)
                 (A) (A) (A) (A) (A) (A) (A) (A) (A) (A) (A) (A)
                 (A) (A) (A) (A) (A) (A) (A) (A)
 Beta  Orbitals:
       Occupied  (A) (A) (A) (A) (A) (A) (A) (A) (A) (A) (A) (A)
                 (A) (A) (A) (A) (A) (A) (A) (A) (A) (A) (A) (A)
                 (A) (A) (A) (A) (A) (A) (A) (A) (A) (A) (A) (A)
       Virtual   (A) (A) (A) (A) (A) (A) (A) (A) (A) (A) (A) (A)
                 (A) (A) (A) (A) (A) (A) (A) (A) (A) (A) (A) (A)
                 (A) (A) (A) (A) (A) (A) (A) (A) (A) (A) (A) (A)
                 (A) (A) (A) (A) (A) (A) (A) (A) (A) (A) (A) (A)
                 (A) (A) (A) (A) (A) (A) (A) (A) (A) (A) (A) (A)
                 (A) (A) (A) (A) (A) (A) (A) (A) (A) (A) (A) (A)
                 (A) (A) (A) (A) (A) (A) (A) (A) (A) (A) (A) (A)
                 (A) (A) (A) (A) (A) (A) (A) (A) (A) (A) (A) (A)
                 (A) (A) (A) (A) (A) (A) (A) (A) (A) (A) (A) (A)
                 (A) (A) (A) (A) (A) (A) (A) (A) (A) (A) (A) (A)
                 (A) (A) (A) (A) (A) (A) (A) (A) (A) (A) (A) (A)
                 (A) (A) (A) (A) (A) (A) (A) (A) (A) (A) (A) (A)
                 (A) (A) (A) (A) (A) (A) (A) (A) (A) (A) (A) (A)
                 (A) (A) (A) (A) (A) (A) (A) (A) (A) (A) (A) (A)
                 (A) (A) (A) (A) (A) (A) (A) (A) (A) (A) (A) (A)
                 (A) (A) (A) (A) (A) (A) (A) (A) (A) (A) (A) (A)
                 (A) (A) (A) (A) (A) (A) (A) (A) (A) (A) (A) (A)
                 (A) (A) (A) (A) (A) (A) (A) (A) (A) (A) (A) (A)
                 (A) (A) (A) (A) (A) (A) (A) (A) (A) (A) (A) (A)
                 (A) (A) (A) (A) (A) (A) (A) (A) (A) (A) (A) (A)
                 (A) (A) (A) (A) (A) (A) (A) (A) (A) (A) (A) (A)
                 (A) (A) (A) (A) (A) (A) (A) (A) (A) (A) (A) (A)
                 (A) (A) (A) (A) (A) (A) (A) (A) (A) (A) (A) (A)
                 (A) (A) (A) (A) (A) (A) (A) (A) (A) (A) (A) (A)
                 (A) (A) (A) (A) (A) (A) (A) (A) (A) (A) (A) (A)
                 (A) (A) (A) (A) (A) (A) (A) (A) (A) (A) (A) (A)
                 (A) (A) (A) (A) (A) (A) (A) (A) (A) (A) (A) (A)
                 (A) (A) (A) (A) (A) (A) (A) (A) (A) (A) (A) (A)
                 (A) (A) (A) (A) (A) (A) (A) (A) (A) (A) (A) (A)
                 (A) (A) (A) (A) (A) (A) (A) (A) (A) (A) (A) (A)
                 (A) (A) (A) (A) (A) (A) (A) (A) (A) (A) (A) (A)
                 (A) (A) (A) (A) (A) (A) (A) (A) (A) (A) (A) (A)
                 (A) (A) (A) (A) (A) (A) (A) (A) (A) (A) (A) (A)
                 (A) (A) (A) (A) (A) (A) (A) (A) (A)
 The electronic state is 2-A.
 Alpha  occ. eigenvalues --  -19.67936 -19.67901 -10.60447 -10.54236 -10.53931
 Alpha  occ. eigenvalues --  -10.53768 -10.53150 -10.52781 -10.52341  -1.31891
 Alpha  occ. eigenvalues --   -1.02050  -0.89757  -0.88206  -0.81838  -0.76706
 Alpha  occ. eigenvalues --   -0.69384  -0.66629  -0.65354  -0.62986  -0.57283
 Alpha  occ. eigenvalues --   -0.55338  -0.53386  -0.52348  -0.49695  -0.48191
 Alpha  occ. eigenvalues --   -0.47090  -0.45723  -0.44441  -0.42711  -0.40948
 Alpha  occ. eigenvalues --   -0.40404  -0.39851  -0.38644  -0.38080  -0.36573
 Alpha  occ. eigenvalues --   -0.32464  -0.28771
 Alpha virt. eigenvalues --    0.01578   0.02345   0.02694   0.03544   0.04167
 Alpha virt. eigenvalues --    0.04794   0.05478   0.05818   0.06357   0.06796
 Alpha virt. eigenvalues --    0.07580   0.08058   0.08795   0.09099   0.09382
 Alpha virt. eigenvalues --    0.10455   0.11583   0.11943   0.12992   0.13595
 Alpha virt. eigenvalues --    0.14210   0.15712   0.16338   0.16924   0.17961
 Alpha virt. eigenvalues --    0.18500   0.18572   0.20035   0.20319   0.20681
 Alpha virt. eigenvalues --    0.21286   0.21879   0.22480   0.22531   0.23079
 Alpha virt. eigenvalues --    0.23595   0.23971   0.24786   0.25458   0.25529
 Alpha virt. eigenvalues --    0.26061   0.26498   0.26925   0.27794   0.28620
 Alpha virt. eigenvalues --    0.29490   0.29971   0.30758   0.30960   0.31542
 Alpha virt. eigenvalues --    0.32130   0.32800   0.34258   0.34973   0.35740
 Alpha virt. eigenvalues --    0.36671   0.37774   0.39880   0.41007   0.42734
 Alpha virt. eigenvalues --    0.43334   0.44173   0.45389   0.47156   0.48017
 Alpha virt. eigenvalues --    0.49446   0.50910   0.51171   0.52594   0.53744
 Alpha virt. eigenvalues --    0.53991   0.54679   0.55846   0.56601   0.57414
 Alpha virt. eigenvalues --    0.57808   0.58185   0.60504   0.61152   0.61836
 Alpha virt. eigenvalues --    0.62027   0.62803   0.64053   0.64127   0.64466
 Alpha virt. eigenvalues --    0.65512   0.65700   0.66146   0.66908   0.68472
 Alpha virt. eigenvalues --    0.69459   0.69611   0.70862   0.71485   0.71534
 Alpha virt. eigenvalues --    0.72770   0.74112   0.74940   0.78886   0.79427
 Alpha virt. eigenvalues --    0.80832   0.82088   0.82851   0.83026   0.84628
 Alpha virt. eigenvalues --    0.85750   0.86934   0.87887   0.90072   0.90417
 Alpha virt. eigenvalues --    0.91355   0.92500   0.94246   0.95750   0.98533
 Alpha virt. eigenvalues --    0.99831   1.02100   1.02858   1.03798   1.05924
 Alpha virt. eigenvalues --    1.06703   1.07604   1.08996   1.11658   1.12340
 Alpha virt. eigenvalues --    1.13176   1.13604   1.14200   1.14737   1.15315
 Alpha virt. eigenvalues --    1.16387   1.17570   1.18538   1.18759   1.19863
 Alpha virt. eigenvalues --    1.20324   1.20503   1.21733   1.22890   1.23330
 Alpha virt. eigenvalues --    1.24398   1.26238   1.27183   1.27875   1.29502
 Alpha virt. eigenvalues --    1.29775   1.30250   1.31202   1.32595   1.34531
 Alpha virt. eigenvalues --    1.35390   1.36879   1.38784   1.40588   1.41097
 Alpha virt. eigenvalues --    1.42196   1.43736   1.44011   1.44486   1.44989
 Alpha virt. eigenvalues --    1.45364   1.45876   1.47776   1.49051   1.50041
 Alpha virt. eigenvalues --    1.51161   1.52054   1.53379   1.53793   1.55184
 Alpha virt. eigenvalues --    1.55829   1.56819   1.57244   1.58965   1.59618
 Alpha virt. eigenvalues --    1.59898   1.61130   1.62267   1.63408   1.63724
 Alpha virt. eigenvalues --    1.64494   1.66043   1.66978   1.68292   1.69906
 Alpha virt. eigenvalues --    1.70102   1.74603   1.77362   1.78842   1.80190
 Alpha virt. eigenvalues --    1.86548   1.92134   1.93934   2.13424   2.15524
 Alpha virt. eigenvalues --    2.29558   2.31340   2.36292   2.36886   2.38911
 Alpha virt. eigenvalues --    2.44296   2.49457   2.51092   2.52459   2.53631
 Alpha virt. eigenvalues --    2.59485   2.59975   2.62726   2.64350   2.66879
 Alpha virt. eigenvalues --    2.69922   2.70398   2.72637   2.74175   2.74944
 Alpha virt. eigenvalues --    2.76016   2.80433   2.80845   2.81890   2.82798
 Alpha virt. eigenvalues --    2.83762   2.84432   2.86903   2.87879   2.91066
 Alpha virt. eigenvalues --    2.91397   2.92033   2.94445   2.96955   2.98204
 Alpha virt. eigenvalues --    2.98533   2.99029   3.01700   3.02711   3.03351
 Alpha virt. eigenvalues --    3.06794   3.07090   3.10024   3.10835   3.14359
 Alpha virt. eigenvalues --    3.15203   3.17731   3.18439   3.20931   3.23833
 Alpha virt. eigenvalues --    3.24096   3.24802   3.25283   3.27713   3.28034
 Alpha virt. eigenvalues --    3.30931   3.32564   3.35596   3.36222   3.37067
 Alpha virt. eigenvalues --    3.37295   3.38000   3.38775   3.39181   3.39887
 Alpha virt. eigenvalues --    3.41885   3.42990   3.46639   3.46912   3.51828
 Alpha virt. eigenvalues --    3.53247   3.54244   3.57324   3.58889   3.60237
 Alpha virt. eigenvalues --    3.60662   3.61711   3.63557   3.64368   3.66335
 Alpha virt. eigenvalues --    3.67477   3.68336   3.69220   3.70724   3.71287
 Alpha virt. eigenvalues --    3.73084   3.75504   3.76760   3.77801   3.78414
 Alpha virt. eigenvalues --    3.81663   3.82252   3.84888   3.86488   3.87730
 Alpha virt. eigenvalues --    3.88037   3.89940   3.90445   3.94868   3.95260
 Alpha virt. eigenvalues --    3.96950   3.97296   3.99417   4.00088   4.00817
 Alpha virt. eigenvalues --    4.01172   4.01731   4.04970   4.07333   4.07741
 Alpha virt. eigenvalues --    4.08700   4.12043   4.13059   4.14177   4.14392
 Alpha virt. eigenvalues --    4.16914   4.17244   4.18512   4.19353   4.20570
 Alpha virt. eigenvalues --    4.22702   4.23118   4.23550   4.24561   4.26711
 Alpha virt. eigenvalues --    4.29951   4.31271   4.32986   4.35719   4.36356
 Alpha virt. eigenvalues --    4.38239   4.39061   4.39608   4.43759   4.44287
 Alpha virt. eigenvalues --    4.48869   4.49353   4.49572   4.50535   4.51162
 Alpha virt. eigenvalues --    4.52449   4.53285   4.54916   4.56412   4.58615
 Alpha virt. eigenvalues --    4.60753   4.63657   4.65452   4.66631   4.69857
 Alpha virt. eigenvalues --    4.73814   4.75002   4.76238   4.79552   4.82017
 Alpha virt. eigenvalues --    4.87430   4.89942   4.93441   4.97295   5.11296
 Alpha virt. eigenvalues --    5.15097   5.16727   5.23558   5.24793   5.28053
 Alpha virt. eigenvalues --    5.35367   5.37820   5.38210   5.39181   5.40866
 Alpha virt. eigenvalues --    5.42539   5.46475   5.48797   5.50004   5.50664
 Alpha virt. eigenvalues --    5.51498   5.56480   5.57292   5.57746   5.58547
 Alpha virt. eigenvalues --    5.60076   5.60656   5.69559   5.78473   5.87992
 Alpha virt. eigenvalues --    6.36117   6.44765   6.54363   6.92070   6.93504
 Alpha virt. eigenvalues --    7.01339   7.04253   7.18346   7.21340   7.35294
 Alpha virt. eigenvalues --    7.45237   7.58339   7.68719   8.01028   8.05631
 Alpha virt. eigenvalues --   24.15199  24.25277  24.31315  24.34379  24.36909
 Alpha virt. eigenvalues --   24.42003  24.43799  50.05808  50.18562
  Beta  occ. eigenvalues --  -19.67955 -19.67777 -10.59483 -10.54249 -10.53910
  Beta  occ. eigenvalues --  -10.53780 -10.53151 -10.52760 -10.52341  -1.31488
  Beta  occ. eigenvalues --   -1.01243  -0.89394  -0.88048  -0.81111  -0.76514
  Beta  occ. eigenvalues --   -0.68864  -0.66007  -0.65153  -0.61608  -0.55975
  Beta  occ. eigenvalues --   -0.54551  -0.53186  -0.52141  -0.49155  -0.47437
  Beta  occ. eigenvalues --   -0.46798  -0.45577  -0.44233  -0.42470  -0.40734
  Beta  occ. eigenvalues --   -0.40191  -0.39739  -0.38507  -0.37962  -0.36033
  Beta  occ. eigenvalues --   -0.32216
  Beta virt. eigenvalues --   -0.03929   0.01856   0.02167   0.02755   0.02948
  Beta virt. eigenvalues --    0.04236   0.04881   0.05415   0.05487   0.06228
  Beta virt. eigenvalues --    0.06670   0.07284   0.07860   0.08679   0.08914
  Beta virt. eigenvalues --    0.09108   0.10297   0.11322   0.11786   0.12325
  Beta virt. eigenvalues --    0.13361   0.14122   0.14984   0.15900   0.16859
  Beta virt. eigenvalues --    0.17847   0.18364   0.18385   0.19580   0.20096
  Beta virt. eigenvalues --    0.20819   0.21087   0.21582   0.22349   0.22702
  Beta virt. eigenvalues --    0.23068   0.23601   0.23935   0.24498   0.25431
  Beta virt. eigenvalues --    0.25468   0.26023   0.26644   0.26974   0.27883
  Beta virt. eigenvalues --    0.28548   0.29467   0.30132   0.30830   0.31698
  Beta virt. eigenvalues --    0.32115   0.32384   0.32659   0.33985   0.35112
  Beta virt. eigenvalues --    0.35588   0.36698   0.37782   0.39359   0.40902
  Beta virt. eigenvalues --    0.42718   0.43259   0.44216   0.45577   0.47297
  Beta virt. eigenvalues --    0.47802   0.49441   0.50973   0.51611   0.52720
  Beta virt. eigenvalues --    0.53772   0.54020   0.54648   0.55818   0.56675
  Beta virt. eigenvalues --    0.57432   0.58017   0.58128   0.60823   0.61187
  Beta virt. eigenvalues --    0.61654   0.62099   0.62942   0.63662   0.64085
  Beta virt. eigenvalues --    0.64344   0.65536   0.65814   0.66313   0.67181
  Beta virt. eigenvalues --    0.68630   0.69452   0.69507   0.70801   0.71007
  Beta virt. eigenvalues --    0.71425   0.72609   0.73702   0.75232   0.78807
  Beta virt. eigenvalues --    0.79428   0.80917   0.82000   0.82771   0.83216
  Beta virt. eigenvalues --    0.84544   0.85763   0.86844   0.87854   0.89856
  Beta virt. eigenvalues --    0.90691   0.91459   0.92518   0.94203   0.95733
  Beta virt. eigenvalues --    0.98366   0.99902   1.02062   1.03049   1.03863
  Beta virt. eigenvalues --    1.06275   1.06729   1.08367   1.09085   1.11553
  Beta virt. eigenvalues --    1.12260   1.13147   1.13694   1.14271   1.14664
  Beta virt. eigenvalues --    1.15362   1.16324   1.17580   1.18151   1.18878
  Beta virt. eigenvalues --    1.19709   1.20138   1.20538   1.21858   1.22943
  Beta virt. eigenvalues --    1.23324   1.24490   1.26396   1.27253   1.27890
  Beta virt. eigenvalues --    1.29572   1.29797   1.30175   1.31104   1.32933
  Beta virt. eigenvalues --    1.34501   1.35412   1.36910   1.39067   1.40495
  Beta virt. eigenvalues --    1.41129   1.42218   1.43719   1.43965   1.44366
  Beta virt. eigenvalues --    1.44865   1.45314   1.45801   1.47668   1.48945
  Beta virt. eigenvalues --    1.50013   1.51337   1.52058   1.53308   1.53895
  Beta virt. eigenvalues --    1.54844   1.55895   1.57190   1.57245   1.58918
  Beta virt. eigenvalues --    1.59712   1.60109   1.61135   1.62216   1.63372
  Beta virt. eigenvalues --    1.63762   1.64746   1.65978   1.67100   1.68394
  Beta virt. eigenvalues --    1.70100   1.70316   1.74654   1.77678   1.78880
  Beta virt. eigenvalues --    1.80549   1.86703   1.92704   1.94304   2.13533
  Beta virt. eigenvalues --    2.16033   2.30068   2.31658   2.36855   2.37345
  Beta virt. eigenvalues --    2.39109   2.44490   2.49920   2.51183   2.52789
  Beta virt. eigenvalues --    2.53620   2.60032   2.60272   2.63009   2.64618
  Beta virt. eigenvalues --    2.67411   2.70478   2.70776   2.72804   2.74455
  Beta virt. eigenvalues --    2.75847   2.76828   2.81067   2.81206   2.82294
  Beta virt. eigenvalues --    2.83469   2.84145   2.84528   2.87974   2.88591
  Beta virt. eigenvalues --    2.91355   2.92064   2.92310   2.94880   2.97308
  Beta virt. eigenvalues --    2.98348   2.98886   2.99790   3.02220   3.03459
  Beta virt. eigenvalues --    3.04690   3.07084   3.07709   3.10449   3.11185
  Beta virt. eigenvalues --    3.14416   3.15254   3.18524   3.18996   3.21688
  Beta virt. eigenvalues --    3.23796   3.24452   3.25400   3.25547   3.28321
  Beta virt. eigenvalues --    3.28676   3.31799   3.33348   3.35563   3.36471
  Beta virt. eigenvalues --    3.37365   3.37574   3.38244   3.38926   3.39337
  Beta virt. eigenvalues --    3.40433   3.42471   3.43202   3.48573   3.48954
  Beta virt. eigenvalues --    3.53483   3.54371   3.55539   3.57578   3.59715
  Beta virt. eigenvalues --    3.60424   3.61676   3.62184   3.64450   3.66216
  Beta virt. eigenvalues --    3.67554   3.68137   3.69669   3.70503   3.70851
  Beta virt. eigenvalues --    3.71833   3.73967   3.75867   3.77373   3.78083
  Beta virt. eigenvalues --    3.79517   3.81913   3.82306   3.85191   3.86822
  Beta virt. eigenvalues --    3.88065   3.88392   3.89896   3.92615   3.95301
  Beta virt. eigenvalues --    3.95578   3.97421   3.97632   3.99766   4.00269
  Beta virt. eigenvalues --    4.01056   4.01757   4.02101   4.05888   4.08023
  Beta virt. eigenvalues --    4.08459   4.09174   4.12278   4.13261   4.14417
  Beta virt. eigenvalues --    4.14984   4.17414   4.17599   4.18704   4.19700
  Beta virt. eigenvalues --    4.20706   4.23003   4.23335   4.23610   4.24839
  Beta virt. eigenvalues --    4.26986   4.30361   4.31700   4.33189   4.36042
  Beta virt. eigenvalues --    4.36395   4.38877   4.39445   4.39746   4.44194
  Beta virt. eigenvalues --    4.45472   4.48829   4.49488   4.50035   4.50718
  Beta virt. eigenvalues --    4.51288   4.52483   4.53364   4.55609   4.56626
  Beta virt. eigenvalues --    4.58939   4.60809   4.64341   4.66199   4.67277
  Beta virt. eigenvalues --    4.70326   4.74042   4.75149   4.76651   4.80375
  Beta virt. eigenvalues --    4.82148   4.88374   4.90507   4.94241   4.97583
  Beta virt. eigenvalues --    5.11782   5.16765   5.17090   5.23830   5.25329
  Beta virt. eigenvalues --    5.29130   5.35605   5.38210   5.38983   5.39872
  Beta virt. eigenvalues --    5.41298   5.42578   5.46604   5.49121   5.50409
  Beta virt. eigenvalues --    5.50799   5.51562   5.56505   5.57311   5.57765
  Beta virt. eigenvalues --    5.58543   5.59902   5.60618   5.70185   5.79005
  Beta virt. eigenvalues --    5.88695   6.36155   6.44977   6.55289   6.92437
  Beta virt. eigenvalues --    6.93678   7.01323   7.04357   7.18567   7.21410
  Beta virt. eigenvalues --    7.35547   7.45231   7.58550   7.68803   8.01168
  Beta virt. eigenvalues --    8.05798  24.15535  24.25295  24.31646  24.34413
  Beta virt. eigenvalues --   24.37419  24.42042  24.44368  50.05786  50.18588
          Condensed to atoms (all electrons):
              1          2          3          4          5          6
     1  C    6.040247  -0.079288  -0.599255  -0.075733  -0.131074   0.002129
     2  C   -0.079288   5.993605  -0.123076  -0.462633  -0.001323  -0.018628
     3  C   -0.599255  -0.123076   7.696033  -0.005612   0.234012  -0.071986
     4  C   -0.075733  -0.462633  -0.005612   6.700455  -0.051601   0.200617
     5  C   -0.131074  -0.001323   0.234012  -0.051601   5.585743  -0.000103
     6  C    0.002129  -0.018628  -0.071986   0.200617  -0.000103   5.505991
     7  C    0.306714   0.184731  -1.319901  -0.506358  -0.137980  -0.145825
     8  O   -0.007977  -0.054886  -0.076174  -0.120800   0.000243  -0.014437
     9  O   -0.009275   0.001731   0.108790   0.027187   0.008804   0.007860
    10  H    0.457718  -0.000034  -0.027101  -0.004428  -0.041136  -0.000206
    11  H    0.440127   0.002804  -0.070577   0.004114  -0.061975   0.000050
    12  H   -0.000861   0.429466  -0.010750   0.004058  -0.000357  -0.023789
    13  H    0.002551   0.433874   0.001310  -0.063344  -0.000011  -0.055768
    14  H   -0.049721   0.000623   0.506423   0.038765  -0.005292  -0.000487
    15  H   -0.051115   0.008515   0.346225  -0.053173  -0.003725   0.000038
    16  H    0.000430  -0.060876   0.023803   0.549185  -0.000885   0.000479
    17  H    0.009340  -0.053913  -0.052243   0.368564  -0.000239  -0.002288
    18  H   -0.002594  -0.000132  -0.020683   0.000226   0.390507  -0.000008
    19  H   -0.080372   0.000170   0.043890   0.002193   0.408417   0.000011
    20  H    0.008030  -0.000358  -0.034770  -0.002224   0.405826  -0.000034
    21  H   -0.000143  -0.003928   0.000147  -0.023710  -0.000006   0.396842
    22  H   -0.000432  -0.008835  -0.002229  -0.023999  -0.000040   0.418745
    23  H    0.000167  -0.065359   0.002316   0.042853   0.000009   0.391980
    24  H   -0.019436   0.001043   0.057346  -0.017882  -0.002374  -0.002758
              7          8          9         10         11         12
     1  C    0.306714  -0.007977  -0.009275   0.457718   0.440127  -0.000861
     2  C    0.184731  -0.054886   0.001731  -0.000034   0.002804   0.429466
     3  C   -1.319901  -0.076174   0.108790  -0.027101  -0.070577  -0.010750
     4  C   -0.506358  -0.120800   0.027187  -0.004428   0.004114   0.004058
     5  C   -0.137980   0.000243   0.008804  -0.041136  -0.061975  -0.000357
     6  C   -0.145825  -0.014437   0.007860  -0.000206   0.000050  -0.023789
     7  C    7.343636   0.233117  -0.239295  -0.032984   0.035247  -0.054340
     8  O    0.233117   8.055568   0.070751   0.011396   0.000368   0.015146
     9  O   -0.239295   0.070751   8.084237  -0.002746  -0.001595  -0.006920
    10  H   -0.032984   0.011396  -0.002746   0.493856  -0.026892  -0.000015
    11  H    0.035247   0.000368  -0.001595  -0.026892   0.515350  -0.000008
    12  H   -0.054340   0.015146  -0.006920  -0.000015  -0.000008   0.529082
    13  H    0.032783  -0.000771  -0.002212  -0.000005  -0.000031  -0.033065
    14  H   -0.149741   0.008655  -0.000678   0.004651  -0.005504  -0.000039
    15  H    0.107772  -0.009187  -0.004119  -0.005244   0.004680  -0.000047
    16  H   -0.171202   0.009927  -0.000181  -0.000044   0.000026   0.004938
    17  H    0.086313  -0.011842  -0.001726  -0.000043  -0.000045  -0.005865
    18  H    0.001427  -0.000198  -0.000034  -0.007261   0.006223   0.000000
    19  H    0.006889   0.000028   0.000014  -0.004247  -0.004628   0.000000
    20  H   -0.008179  -0.000010   0.000007   0.005695  -0.007935   0.000000
    21  H    0.000717  -0.000160  -0.000001   0.000000   0.000000  -0.007758
    22  H   -0.013660  -0.000025   0.000004   0.000000   0.000000   0.006125
    23  H    0.008852   0.000058  -0.000005   0.000000   0.000000  -0.004539
    24  H    0.009295  -0.055111   0.183005   0.000168   0.000134   0.001436
             13         14         15         16         17         18
     1  C    0.002551  -0.049721  -0.051115   0.000430   0.009340  -0.002594
     2  C    0.433874   0.000623   0.008515  -0.060876  -0.053913  -0.000132
     3  C    0.001310   0.506423   0.346225   0.023803  -0.052243  -0.020683
     4  C   -0.063344   0.038765  -0.053173   0.549185   0.368564   0.000226
     5  C   -0.000011  -0.005292  -0.003725  -0.000885  -0.000239   0.390507
     6  C   -0.055768  -0.000487   0.000038   0.000479  -0.002288  -0.000008
     7  C    0.032783  -0.149741   0.107772  -0.171202   0.086313   0.001427
     8  O   -0.000771   0.008655  -0.009187   0.009927  -0.011842  -0.000198
     9  O   -0.002212  -0.000678  -0.004119  -0.000181  -0.001726  -0.000034
    10  H   -0.000005   0.004651  -0.005244  -0.000044  -0.000043  -0.007261
    11  H   -0.000031  -0.005504   0.004680   0.000026  -0.000045   0.006223
    12  H   -0.033065  -0.000039  -0.000047   0.004938  -0.005865   0.000000
    13  H    0.517135   0.000047  -0.000038  -0.005021   0.004749   0.000000
    14  H    0.000047   0.520230  -0.030206  -0.002069   0.000593  -0.000749
    15  H   -0.000038  -0.030206   0.497963   0.000648   0.000453   0.001708
    16  H   -0.005021  -0.002069   0.000648   0.511458  -0.029956   0.000003
    17  H    0.004749   0.000593   0.000453  -0.029956   0.494440  -0.000010
    18  H    0.000000  -0.000749   0.001708   0.000003  -0.000010   0.559942
    19  H    0.000000   0.000121  -0.000004   0.000001   0.000000  -0.024078
    20  H    0.000000   0.001990  -0.000234  -0.000011   0.000001  -0.035483
    21  H    0.006175   0.000003  -0.000011  -0.000656   0.001613   0.000000
    22  H   -0.008030  -0.000013   0.000000   0.001649  -0.000167   0.000000
    23  H   -0.004466   0.000002   0.000000   0.000139  -0.000002   0.000000
    24  H   -0.001039   0.000029  -0.000164   0.000011   0.000498   0.000000
             19         20         21         22         23         24
     1  C   -0.080372   0.008030  -0.000143  -0.000432   0.000167  -0.019436
     2  C    0.000170  -0.000358  -0.003928  -0.008835  -0.065359   0.001043
     3  C    0.043890  -0.034770   0.000147  -0.002229   0.002316   0.057346
     4  C    0.002193  -0.002224  -0.023710  -0.023999   0.042853  -0.017882
     5  C    0.408417   0.405826  -0.000006  -0.000040   0.000009  -0.002374
     6  C    0.000011  -0.000034   0.396842   0.418745   0.391980  -0.002758
     7  C    0.006889  -0.008179   0.000717  -0.013660   0.008852   0.009295
     8  O    0.000028  -0.000010  -0.000160  -0.000025   0.000058  -0.055111
     9  O    0.000014   0.000007  -0.000001   0.000004  -0.000005   0.183005
    10  H   -0.004247   0.005695   0.000000   0.000000   0.000000   0.000168
    11  H   -0.004628  -0.007935   0.000000   0.000000   0.000000   0.000134
    12  H    0.000000   0.000000  -0.007758   0.006125  -0.004539   0.001436
    13  H    0.000000   0.000000   0.006175  -0.008030  -0.004466  -0.001039
    14  H    0.000121   0.001990   0.000003  -0.000013   0.000002   0.000029
    15  H   -0.000004  -0.000234  -0.000011   0.000000   0.000000  -0.000164
    16  H    0.000001  -0.000011  -0.000656   0.001649   0.000139   0.000011
    17  H    0.000000   0.000001   0.001613  -0.000167  -0.000002   0.000498
    18  H   -0.024078  -0.035483   0.000000   0.000000   0.000000   0.000000
    19  H    0.536377  -0.024051   0.000000   0.000000   0.000000   0.000000
    20  H   -0.024051   0.560755   0.000000   0.000000   0.000000  -0.000001
    21  H    0.000000   0.000000   0.555347  -0.034107  -0.024342  -0.000001
    22  H    0.000000   0.000000  -0.034107   0.553198  -0.023666   0.000017
    23  H    0.000000   0.000000  -0.024342  -0.023666   0.537800  -0.000015
    24  H    0.000000  -0.000001  -0.000001   0.000017  -0.000015   0.593465
 Mulliken atomic charges:
              1
     1  C   -0.160176
     2  C   -0.123293
     3  C   -0.605937
     4  C   -0.526720
     5  C   -0.595440
     6  C   -0.588424
     7  C    0.421973
     8  O   -0.053681
     9  O   -0.223604
    10  H    0.178901
    11  H    0.170067
    12  H    0.158103
    13  H    0.175178
    14  H    0.162367
    15  H    0.189261
    16  H    0.168206
    17  H    0.191776
    18  H    0.131193
    19  H    0.139269
    20  H    0.130984
    21  H    0.133981
    22  H    0.135466
    23  H    0.138220
    24  H    0.252333
 Sum of Mulliken atomic charges =   0.00000
 Mulliken charges with hydrogens summed into heavy atoms:
              1
     1  C    0.188791
     2  C    0.209987
     3  C   -0.254310
     4  C   -0.166738
     5  C   -0.193994
     6  C   -0.180758
     7  C    0.421973
     8  O   -0.053681
     9  O    0.028729
 Sum of Mulliken charges with hydrogens summed into heavy atoms =   0.00000
          Atomic-Atomic Spin Densities.
              1          2          3          4          5          6
     1  C    0.121464  -0.003010  -0.060025  -0.002701  -0.038307   0.000438
     2  C   -0.003010   0.098394  -0.002718  -0.010678  -0.000055  -0.016758
     3  C   -0.060025  -0.002718   0.188722   0.208773   0.002543   0.010253
     4  C   -0.002701  -0.010678   0.208773  -0.013588   0.000843  -0.031575
     5  C   -0.038307  -0.000055   0.002543   0.000843   0.024526   0.000473
     6  C    0.000438  -0.016758   0.010253  -0.031575   0.000473   0.003355
     7  C    0.016450  -0.040418  -0.409254  -0.181727   0.011950   0.035591
     8  O   -0.002463  -0.000513   0.010575   0.000414   0.001926   0.000114
     9  O    0.000480   0.001861   0.046451   0.034872  -0.001095   0.000191
    10  H    0.003373   0.000397  -0.010005  -0.001902  -0.004395  -0.000038
    11  H   -0.002429  -0.001091   0.026919   0.001594   0.010195   0.000022
    12  H    0.000401   0.004749  -0.001870  -0.011486  -0.000050  -0.005299
    13  H   -0.000851  -0.002614  -0.001097   0.025066   0.000013   0.010118
    14  H    0.004924  -0.000499   0.005363   0.008777  -0.003083  -0.000223
    15  H   -0.004929  -0.000302  -0.008413  -0.018203   0.003008   0.000103
    16  H   -0.000806   0.005028   0.011308   0.009675  -0.000184  -0.001972
    17  H    0.000324  -0.005499  -0.019578  -0.006479   0.000276   0.001066
    18  H   -0.003434  -0.000077   0.004304   0.000037   0.007855   0.000000
    19  H    0.001251   0.000006  -0.000175   0.000127  -0.002157   0.000001
    20  H    0.003573   0.000059  -0.002850  -0.000452  -0.003919  -0.000006
    21  H   -0.000068  -0.004572  -0.000173   0.005072   0.000000   0.008885
    22  H    0.000053   0.003149  -0.000485  -0.002494  -0.000006  -0.003468
    23  H    0.000005   0.001681   0.000149  -0.000593   0.000000  -0.002468
    24  H   -0.000338   0.001390  -0.007155  -0.001052  -0.000191  -0.000163
              7          8          9         10         11         12
     1  C    0.016450  -0.002463   0.000480   0.003373  -0.002429   0.000401
     2  C   -0.040418  -0.000513   0.001861   0.000397  -0.001091   0.004749
     3  C   -0.409254   0.010575   0.046451  -0.010005   0.026919  -0.001870
     4  C   -0.181727   0.000414   0.034872  -0.001902   0.001594  -0.011486
     5  C    0.011950   0.001926  -0.001095  -0.004395   0.010195  -0.000050
     6  C    0.035591   0.000114   0.000191  -0.000038   0.000022  -0.005299
     7  C    1.693557  -0.036224  -0.168000   0.011824  -0.033801   0.012447
     8  O   -0.036224   0.005136  -0.002463  -0.000547  -0.000117  -0.000487
     9  O   -0.168000  -0.002463   0.098511  -0.000214   0.000783  -0.000304
    10  H    0.011824  -0.000547  -0.000214  -0.002726  -0.000887   0.000000
    11  H   -0.033801  -0.000117   0.000783  -0.000887  -0.009323   0.000000
    12  H    0.012447  -0.000487  -0.000304   0.000000   0.000000  -0.003124
    13  H   -0.028940  -0.000074   0.000964   0.000000   0.000000  -0.000768
    14  H   -0.017896  -0.000317   0.000394   0.000150  -0.000172   0.000015
    15  H    0.028026   0.001365  -0.002536  -0.000571  -0.000146  -0.000038
    16  H   -0.026149  -0.000101   0.000480   0.000012  -0.000013   0.000210
    17  H    0.029369   0.000869  -0.002245  -0.000022  -0.000001  -0.000829
    18  H   -0.007317   0.000023   0.000048   0.000061  -0.000226   0.000000
    19  H    0.000533  -0.000007   0.000007   0.000025   0.000095   0.000000
    20  H    0.003327  -0.000002  -0.000009   0.000005  -0.000193   0.000000
    21  H   -0.007852   0.000042   0.000051   0.000000   0.000000   0.000113
    22  H    0.003045   0.000003  -0.000015   0.000000   0.000000   0.000004
    23  H    0.000780  -0.000007   0.000000   0.000000   0.000000   0.000028
    24  H    0.012036   0.001694  -0.003140   0.000041  -0.000005  -0.000078
             13         14         15         16         17         18
     1  C   -0.000851   0.004924  -0.004929  -0.000806   0.000324  -0.003434
     2  C   -0.002614  -0.000499  -0.000302   0.005028  -0.005499  -0.000077
     3  C   -0.001097   0.005363  -0.008413   0.011308  -0.019578   0.004304
     4  C    0.025066   0.008777  -0.018203   0.009675  -0.006479   0.000037
     5  C    0.000013  -0.003083   0.003008  -0.000184   0.000276   0.007855
     6  C    0.010118  -0.000223   0.000103  -0.001972   0.001066   0.000000
     7  C   -0.028940  -0.017896   0.028026  -0.026149   0.029369  -0.007317
     8  O   -0.000074  -0.000317   0.001365  -0.000101   0.000869   0.000023
     9  O    0.000964   0.000394  -0.002536   0.000480  -0.002245   0.000048
    10  H    0.000000   0.000150  -0.000571   0.000012  -0.000022   0.000061
    11  H    0.000000  -0.000172  -0.000146  -0.000013  -0.000001  -0.000226
    12  H   -0.000768   0.000015  -0.000038   0.000210  -0.000829   0.000000
    13  H   -0.009379  -0.000008   0.000004  -0.000298  -0.000085   0.000000
    14  H   -0.000008   0.007199  -0.002770   0.000291  -0.000303   0.000010
    15  H    0.000004  -0.002770   0.033308  -0.000434   0.002697  -0.000349
    16  H   -0.000298   0.000291  -0.000434   0.008083  -0.003408   0.000000
    17  H   -0.000085  -0.000303   0.002697  -0.003408   0.034340  -0.000003
    18  H    0.000000   0.000010  -0.000349   0.000000  -0.000003  -0.002610
    19  H    0.000000   0.000006  -0.000002   0.000000   0.000000   0.000332
    20  H    0.000000   0.000083  -0.000044   0.000002  -0.000001  -0.000071
    21  H   -0.000214   0.000000  -0.000002  -0.000007  -0.000372   0.000000
    22  H   -0.000198   0.000002  -0.000001   0.000074  -0.000027   0.000000
    23  H    0.000093   0.000000   0.000000   0.000012  -0.000002   0.000000
    24  H   -0.000247   0.000004   0.000027  -0.000002   0.000070   0.000000
             19         20         21         22         23         24
     1  C    0.001251   0.003573  -0.000068   0.000053   0.000005  -0.000338
     2  C    0.000006   0.000059  -0.004572   0.003149   0.001681   0.001390
     3  C   -0.000175  -0.002850  -0.000173  -0.000485   0.000149  -0.007155
     4  C    0.000127  -0.000452   0.005072  -0.002494  -0.000593  -0.001052
     5  C   -0.002157  -0.003919   0.000000  -0.000006   0.000000  -0.000191
     6  C    0.000001  -0.000006   0.008885  -0.003468  -0.002468  -0.000163
     7  C    0.000533   0.003327  -0.007852   0.003045   0.000780   0.012036
     8  O   -0.000007  -0.000002   0.000042   0.000003  -0.000007   0.001694
     9  O    0.000007  -0.000009   0.000051  -0.000015   0.000000  -0.003140
    10  H    0.000025   0.000005   0.000000   0.000000   0.000000   0.000041
    11  H    0.000095  -0.000193   0.000000   0.000000   0.000000  -0.000005
    12  H    0.000000   0.000000   0.000113   0.000004   0.000028  -0.000078
    13  H    0.000000   0.000000  -0.000214  -0.000198   0.000093  -0.000247
    14  H    0.000006   0.000083   0.000000   0.000002   0.000000   0.000004
    15  H   -0.000002  -0.000044  -0.000002  -0.000001   0.000000   0.000027
    16  H    0.000000   0.000002  -0.000007   0.000074   0.000012  -0.000002
    17  H    0.000000  -0.000001  -0.000372  -0.000027  -0.000002   0.000070
    18  H    0.000332  -0.000071   0.000000   0.000000   0.000000   0.000000
    19  H   -0.000562   0.000055   0.000000   0.000000   0.000000   0.000000
    20  H    0.000055   0.000266   0.000000   0.000000   0.000000   0.000000
    21  H    0.000000   0.000000  -0.002559  -0.000108   0.000350  -0.000006
    22  H    0.000000   0.000000  -0.000108   0.000245   0.000055   0.000001
    23  H    0.000000   0.000000   0.000350   0.000055  -0.000567   0.000001
    24  H    0.000000   0.000000  -0.000006   0.000001   0.000001  -0.002605
 Mulliken atomic spin densities:
              1
     1  C    0.033376
     2  C    0.027912
     3  C   -0.008438
     4  C    0.012321
     5  C    0.010166
     6  C    0.008641
     7  C    0.901359
     8  O   -0.021163
     9  O    0.005072
    10  H   -0.005420
    11  H   -0.008798
    12  H   -0.006366
    13  H   -0.008514
    14  H    0.001947
    15  H    0.029798
    16  H    0.001802
    17  H    0.030159
    18  H   -0.001415
    19  H   -0.000469
    20  H   -0.000178
    21  H   -0.001420
    22  H   -0.000170
    23  H   -0.000482
    24  H    0.000281
 Sum of Mulliken atomic spin densities =   1.00000
 Electronic spatial extent (au):  <R**2>=           1949.7075
 Charge=              0.0000 electrons
 Dipole moment (field-independent basis, Debye):
    X=              1.4378    Y=             -0.6953    Z=             -0.2356  Tot=              1.6144
 Quadrupole moment (field-independent basis, Debye-Ang):
   XX=            -57.4772   YY=            -57.2510   ZZ=            -59.2053
   XY=              3.6766   XZ=             -0.3467   YZ=             -0.4473
 Traceless Quadrupole moment (field-independent basis, Debye-Ang):
   XX=              0.5006   YY=              0.7268   ZZ=             -1.2275
   XY=              3.6766   XZ=             -0.3467   YZ=             -0.4473
 Octapole moment (field-independent basis, Debye-Ang**2):
  XXX=              2.4489  YYY=             24.3115  ZZZ=              3.2735  XYY=             12.1147
  XXY=             14.1537  XXZ=             -0.3506  XZZ=              0.2813  YZZ=              1.9105
  YYZ=             -2.3345  XYZ=             -0.9113
 Hexadecapole moment (field-independent basis, Debye-Ang**3):
 XXXX=          -2137.8338 YYYY=           -435.7631 ZZZZ=           -133.6078 XXXY=             -2.4224
 XXXZ=              0.1496 YYYX=             31.8840 YYYZ=              4.6032 ZZZX=             -0.0558
 ZZZY=             -2.5769 XXYY=           -428.2295 XXZZ=           -365.5433 YYZZ=           -101.5016
 XXYZ=              0.5012 YYXZ=             -2.6310 ZZXY=              0.0759
 N-N= 4.756105045942D+02 E-N=-2.907466289156D+03  KE= 6.354363184438D+02
                          Isotropic Fermi Contact Couplings
        Atom                 a.u.       MegaHertz       Gauss      10(-4) cm-1
     1  C(13)              0.01682      18.91159       6.74813       6.30823
     2  C(13)              0.01732      19.46808       6.94670       6.49385
     3  C(13)              0.00072       0.81156       0.28958       0.27071
     4  C(13)             -0.00056      -0.63512      -0.22663      -0.21185
     5  C(13)             -0.00139      -1.56724      -0.55923      -0.52277
     6  C(13)             -0.00139      -1.56575      -0.55870      -0.52228
     7  C(13)              0.44197     496.85658     177.29078     165.73352
     8  O(17)             -0.00545       3.30419       1.17902       1.10216
     9  O(17)              0.09320     -56.49558     -20.15903     -18.84490
    10  H(1)              -0.00023      -1.04288      -0.37212      -0.34787
    11  H(1)              -0.00032      -1.42041      -0.50684      -0.47380
    12  H(1)              -0.00024      -1.06426      -0.37975      -0.35500
    13  H(1)              -0.00034      -1.53058      -0.54615      -0.51055
    14  H(1)               0.00056       2.49143       0.88900       0.83105
    15  H(1)               0.01673      74.78203      26.68409      24.94460
    16  H(1)               0.00074       3.28771       1.17314       1.09666
    17  H(1)               0.01680      75.09628      26.79622      25.04942
    18  H(1)               0.00018       0.82305       0.29369       0.27454
    19  H(1)              -0.00016      -0.72436      -0.25847      -0.24162
    20  H(1)               0.00000      -0.01087      -0.00388      -0.00363
    21  H(1)               0.00019       0.84176       0.30036       0.28078
    22  H(1)               0.00000      -0.01163      -0.00415      -0.00388
    23  H(1)              -0.00016      -0.73687      -0.26293      -0.24579
    24  H(1)              -0.00028      -1.23695      -0.44137      -0.41260
 --------------------------------------------------------
       Center         ----  Spin Dipole Couplings  ----
                      3XX-RR        3YY-RR        3ZZ-RR
 --------------------------------------------------------
     1   Atom        0.023498     -0.012058     -0.011439
     2   Atom        0.023488     -0.012323     -0.011165
     3   Atom        0.008302     -0.002201     -0.006101
     4   Atom        0.008722     -0.002431     -0.006290
     5   Atom        0.003784     -0.002457     -0.001327
     6   Atom        0.003788     -0.002456     -0.001332
     7   Atom       -0.507307     -0.342465      0.849772
     8   Atom       -0.019009     -0.023358      0.042367
     9   Atom       -0.081337      0.178916     -0.097580
    10   Atom        0.008176     -0.003439     -0.004737
    11   Atom        0.011177     -0.007799     -0.003379
    12   Atom        0.008096     -0.003487     -0.004609
    13   Atom        0.011401     -0.007838     -0.003564
    14   Atom       -0.001914      0.010594     -0.008680
    15   Atom        0.001033     -0.003685      0.002652
    16   Atom       -0.001942      0.010691     -0.008749
    17   Atom        0.001091     -0.003599      0.002509
    18   Atom        0.002980     -0.001812     -0.001168
    19   Atom        0.002748     -0.001404     -0.001343
    20   Atom        0.002344     -0.000671     -0.001673
    21   Atom        0.002966     -0.001796     -0.001170
    22   Atom        0.002343     -0.000667     -0.001676
    23   Atom        0.002746     -0.001401     -0.001346
    24   Atom       -0.001133      0.011977     -0.010844
 --------------------------------------------------------
                        XY            XZ            YZ
 --------------------------------------------------------
     1   Atom       -0.003537     -0.002289     -0.000033
     2   Atom        0.003001      0.002857      0.000182
     3   Atom        0.021108     -0.019465     -0.016566
     4   Atom       -0.020622      0.019260     -0.015786
     5   Atom        0.002008     -0.001659     -0.001187
     6   Atom       -0.002049      0.001687     -0.001236
     7   Atom        0.001155     -0.004255     -0.488823
     8   Atom       -0.002362     -0.012066      0.055170
     9   Atom       -0.059320      0.001824      0.002209
    10   Atom       -0.004604     -0.003961      0.001157
    11   Atom        0.000096      0.006981     -0.001132
    12   Atom        0.004537      0.004102      0.001158
    13   Atom        0.000013     -0.006943     -0.001236
    14   Atom        0.013621      0.000233     -0.000364
    15   Atom        0.007031     -0.007209     -0.006272
    16   Atom       -0.013684     -0.000345     -0.000324
    17   Atom       -0.007081      0.007135     -0.006406
    18   Atom        0.001227     -0.001032     -0.000512
    19   Atom        0.000314      0.000129     -0.000147
    20   Atom        0.002326      0.000468      0.000223
    21   Atom       -0.001263      0.001007     -0.000526
    22   Atom       -0.002338     -0.000490      0.000235
    23   Atom       -0.000320     -0.000122     -0.000150
    24   Atom        0.010231      0.000755      0.002244
 --------------------------------------------------------


 ---------------------------------------------------------------------------------
              Anisotropic Spin Dipole Couplings in Principal Axis System
 ---------------------------------------------------------------------------------

       Atom             a.u.   MegaHertz   Gauss  10(-4) cm-1        Axes

              Baa    -0.0125    -1.675    -0.598    -0.559  0.1114  0.9548  0.2756
     1 C(13)  Bbb    -0.0115    -1.545    -0.551    -0.515  0.0343 -0.2808  0.9591
              Bcc     0.0240     3.220     1.149     1.074  0.9932 -0.0974 -0.0641
 
              Baa    -0.0126    -1.687    -0.602    -0.563 -0.0865  0.9951  0.0469
     2 C(13)  Bbb    -0.0114    -1.529    -0.546    -0.510 -0.0769 -0.0536  0.9956
              Bcc     0.0240     3.217     1.148     1.073  0.9933  0.0825  0.0812
 
              Baa    -0.0209    -2.803    -1.000    -0.935  0.1134  0.5842  0.8036
     3 C(13)  Bbb    -0.0183    -2.457    -0.877    -0.820  0.7238 -0.6027  0.3360
              Bcc     0.0392     5.261     1.877     1.755  0.6807  0.5435 -0.4912
 
              Baa    -0.0204    -2.737    -0.977    -0.913 -0.1738  0.5298  0.8301
     4 C(13)  Bbb    -0.0180    -2.413    -0.861    -0.805  0.7034  0.6568 -0.2719
              Bcc     0.0384     5.150     1.838     1.718  0.6893 -0.5366  0.4868
 
              Baa    -0.0033    -0.448    -0.160    -0.150 -0.1615  0.9025  0.3992
     5 C(13)  Bbb    -0.0016    -0.218    -0.078    -0.073  0.3832 -0.3154  0.8682
              Bcc     0.0050     0.667     0.238     0.222  0.9095  0.2931 -0.2949
 
              Baa    -0.0034    -0.454    -0.162    -0.151  0.1604  0.8983  0.4091
     6 C(13)  Bbb    -0.0016    -0.219    -0.078    -0.073 -0.3904 -0.3229  0.8622
              Bcc     0.0050     0.673     0.240     0.225  0.9066 -0.2980  0.2989
 
              Baa    -0.5173   -69.413   -24.768   -23.154  0.0347  0.9410  0.3366
     7 C(13)  Bbb    -0.5073   -68.076   -24.291   -22.708  0.9994 -0.0336 -0.0090
              Bcc     1.0246   137.489    49.059    45.861 -0.0029 -0.3367  0.9416
 
              Baa    -0.0551     3.990     1.424     1.331 -0.1107  0.8591 -0.4997
     8 O(17)  Bbb    -0.0200     1.449     0.517     0.483  0.9862  0.1572  0.0517
              Bcc     0.0752    -5.439    -1.941    -1.814 -0.1230  0.4871  0.8646
 
              Baa    -0.0987     7.143     2.549     2.383 -0.4362 -0.1003  0.8942
     9 O(17)  Bbb    -0.0931     6.736     2.404     2.247  0.8745  0.1871  0.4476
              Bcc     0.1918   -13.879    -4.952    -4.630 -0.2122  0.9772  0.0061
 
              Baa    -0.0059    -3.135    -1.119    -1.046  0.3116  0.1426  0.9395
    10 H(1)   Bbb    -0.0050    -2.664    -0.951    -0.889  0.2593  0.9384 -0.2285
              Bcc     0.0109     5.799     2.069     1.934  0.9141 -0.3148 -0.2554
 
              Baa    -0.0083    -4.454    -1.589    -1.486 -0.1549  0.8937  0.4211
    11 H(1)   Bbb    -0.0056    -3.009    -1.074    -1.004 -0.3405 -0.4485  0.8264
              Bcc     0.0140     7.464     2.663     2.490  0.9274 -0.0153  0.3738
 
              Baa    -0.0059    -3.122    -1.114    -1.041 -0.3319  0.1837  0.9253
    12 H(1)   Bbb    -0.0050    -2.659    -0.949    -0.887 -0.2386  0.9326 -0.2707
              Bcc     0.0108     5.781     2.063     1.928  0.9126  0.3106  0.2657
 
              Baa    -0.0085    -4.511    -1.610    -1.505  0.1540  0.8836  0.4421
    13 H(1)   Bbb    -0.0057    -3.032    -1.082    -1.011  0.3331 -0.4677  0.8187
              Bcc     0.0141     7.542     2.691     2.516  0.9302  0.0211 -0.3664
 
              Baa    -0.0107    -5.722    -2.042    -1.909  0.8261 -0.5310 -0.1887
    14 H(1)   Bbb    -0.0086    -4.592    -1.638    -1.532  0.1623 -0.0965  0.9820
              Bcc     0.0193    10.314     3.680     3.440  0.5397  0.8418 -0.0065
 
              Baa    -0.0089    -4.740    -1.691    -1.581 -0.4922  0.8561  0.1579
    15 H(1)   Bbb    -0.0052    -2.758    -0.984    -0.920  0.6231  0.2198  0.7506
              Bcc     0.0141     7.498     2.676     2.501 -0.6078 -0.4678  0.6416
 
              Baa    -0.0108    -5.764    -2.057    -1.923  0.8212  0.5262  0.2209
    16 H(1)   Bbb    -0.0086    -4.612    -1.646    -1.538 -0.1877 -0.1165  0.9753
              Bcc     0.0194    10.375     3.702     3.461 -0.5389  0.8424 -0.0031
 
              Baa    -0.0089    -4.751    -1.695    -1.585  0.4775  0.8592  0.1838
    17 H(1)   Bbb    -0.0052    -2.765    -0.987    -0.922 -0.6344  0.1924  0.7487
              Bcc     0.0141     7.516     2.682     2.507  0.6079 -0.4741  0.6369
 
              Baa    -0.0022    -1.169    -0.417    -0.390 -0.1615  0.9381  0.3066
    18 H(1)   Bbb    -0.0014    -0.722    -0.258    -0.241  0.2911 -0.2515  0.9230
              Bcc     0.0035     1.891     0.675     0.631  0.9430  0.2383 -0.2324
 
              Baa    -0.0015    -0.826    -0.295    -0.276 -0.0760  0.7876  0.6115
[...]
   A39        2.03680   0.03511  -0.00001   0.00855   0.00184   2.03864
   A40        1.92095   0.01694  -0.00003  -0.03795  -0.03798   1.88297
   A41        1.62874  -0.00070  -0.00023   0.01091   0.01069   1.63943
    D1       -3.05483   0.00080   0.00006   0.01230   0.01270  -3.04213
    D2        1.05764   0.00077   0.00003   0.01375   0.01372   1.07136
    D3       -0.94911  -0.00128  -0.00002  -0.01128  -0.01159  -0.96070
    D4       -0.92103   0.00102   0.00007   0.00918   0.00956  -0.91147
    D5       -3.09175   0.00098   0.00004   0.01063   0.01058  -3.08117
    D6        1.18469  -0.00107  -0.00001  -0.01440  -0.01472   1.16997
    D7        1.09431   0.00052   0.00006   0.00754   0.00799   1.10230
    D8       -1.07641   0.00049   0.00003   0.00900   0.00901  -1.06740
    D9       -3.08316  -0.00157  -0.00002  -0.01603  -0.01630  -3.09946
   D10        1.07114  -0.00004   0.00001  -0.00362  -0.00365   1.06749
   D11       -3.11482  -0.00006   0.00000  -0.01278  -0.01278  -3.12760
   D12       -1.02052   0.00006   0.00000  -0.00933  -0.00935  -1.02987
   D13       -1.04045  -0.00020   0.00003  -0.00072  -0.00070  -1.04116
   D14        1.05678  -0.00023   0.00001  -0.00988  -0.00984   1.04694
   D15       -3.13212  -0.00010   0.00001  -0.00643  -0.00641  -3.13852
   D16       -3.08862   0.00004   0.00001  -0.00341  -0.00340  -3.09202
   D17       -0.99139   0.00002   0.00000  -0.01256  -0.01253  -1.00392
   D18        1.10290   0.00014   0.00000  -0.00912  -0.00910   1.09380
   D19       -3.12279  -0.00092   0.00017   0.00213   0.00210  -3.12070
   D20       -0.97682   0.00184   0.00018   0.00322   0.00324  -0.97359
   D21        1.05561  -0.00209   0.00026   0.02234   0.02299   1.07860
   D22        1.03167   0.00103   0.00012  -0.01117  -0.01127   1.02041
   D23       -3.10554   0.00380   0.00013  -0.01008  -0.01013  -3.11567
   D24       -1.07311  -0.00014   0.00021   0.00905   0.00963  -1.06348
   D25       -0.99980  -0.00033   0.00016   0.00138   0.00134  -0.99846
   D26        1.14617   0.00243   0.00017   0.00247   0.00248   1.14865
   D27       -3.10459  -0.00150   0.00026   0.02160   0.02223  -3.08236
   D28       -1.05456   0.00051   0.00002   0.00196   0.00206  -1.05250
   D29        1.03654  -0.00004   0.00004   0.00875   0.00882   1.04536
   D30        3.13412  -0.00001   0.00005   0.01454   0.01453  -3.13453
   D31        1.04619   0.00075   0.00001   0.00363   0.00365   1.04984
   D32        3.13729   0.00020   0.00002   0.01042   0.01041  -3.13548
   D33       -1.04831   0.00023   0.00003   0.01620   0.01612  -1.03219
   D34        3.11199  -0.00012   0.00003   0.00470   0.00480   3.11679
   D35       -1.08009  -0.00067   0.00005   0.01149   0.01157  -1.06853
   D36        1.01749  -0.00064   0.00006   0.01727   0.01728   1.03477
   D37       -2.37397  -0.00402   0.00011  -0.08183  -0.08103  -2.45501
   D38        0.66815   0.00276   0.00025   0.13997   0.14052   0.80867
   D39       -0.20329  -0.00330   0.00010  -0.10018  -0.10013  -0.30342
   D40        2.83883   0.00348   0.00025   0.12162   0.12142   2.96026
   D41        1.80786  -0.00434   0.00013  -0.08101  -0.08093   1.72693
   D42       -1.43320   0.00244   0.00028   0.14079   0.14063  -1.29257
   D43        2.17701   0.00207   0.00039   0.15958   0.15960   2.33661
   D44       -0.87011  -0.00172   0.00024  -0.05099  -0.05095  -0.92106
   D45        0.04310  -0.00104   0.00041   0.16170   0.16205   0.20515
   D46       -3.00402  -0.00484   0.00027  -0.04886  -0.04850  -3.05252
   D47       -2.01008   0.00522   0.00038   0.17549   0.17605  -1.83403
   D48        1.22599   0.00143   0.00023  -0.03507  -0.03450   1.19149
   D49       -1.45345   0.00815  -0.00011  -0.10198  -0.10223  -1.55567
   D50        1.59286   0.01190   0.00003   0.11021   0.11038   1.70324
   D51       -1.64268  -0.00554  -0.00022  -0.14906  -0.14929  -1.79196
         Item               Value     Threshold  Converged?
 Maximum Force            0.095927     0.000450     NO 
 RMS     Force            0.012503     0.000300     NO 
 Maximum Displacement     0.376764     0.001800     NO 
 RMS     Displacement     0.086699     0.001200     NO 
 Predicted change in Energy=-5.375482D-03
 GradGradGradGradGradGradGradGradGradGradGradGradGradGradGradGradGradGrad

                          Input orientation:                          
 ---------------------------------------------------------------------
 Center     Atomic      Atomic             Coordinates (Angstroms)
 Number     Number       Type             X           Y           Z
 ---------------------------------------------------------------------
      1          6           0       -2.298968    0.041178   -0.260519
      2          6           0        2.152146    0.492290    0.005056
      3          6           0       -1.296627   -0.852420    0.470115
      4          6           0        1.358018   -0.568226    0.713976
      5          6           0       -3.621941   -0.656704   -0.535105
      6          6           0        3.584077    0.008447   -0.195123
      7          6           0       -0.037988    0.009043    0.826888
      8          8           0       -0.133917    1.098496    1.313565
      9          8           0       -0.247321    2.416333   -0.161899
     10          1           0       -2.464640    0.947186    0.358052
     11          1           0       -1.841333    0.384022   -1.212696
     12          1           0        2.104663    1.424670    0.603874
     13          1           0        1.679124    0.725971   -0.971689
     14          1           0       -1.046151   -1.748165   -0.135718
     15          1           0       -1.743998   -1.255867    1.422918
     16          1           0        1.389103   -1.541140    0.172954
     17          1           0        1.767986   -0.799017    1.748187
     18          1           0       -4.108310   -0.956457    0.420828
     19          1           0       -4.313309    0.020230   -1.077873
     20          1           0       -3.476199   -1.569732   -1.151688
     21          1           0        4.054829   -0.197546    0.789933
     22          1           0        3.648186   -0.926322   -0.801665
     23          1           0        4.174905    0.790140   -0.710911
     24          1           0        0.717665    2.713293   -0.064258
 ---------------------------------------------------------------------
                    Distance matrix (angstroms):
                    1          2          3          4          5
     1  C    0.000000
     2  C    4.481791   0.000000
     3  C    1.528735   3.730759   0.000000
     4  C    3.833348   1.502631   2.680928   0.000000
     5  C    1.520755   5.912025   2.540838   5.134980   0.000000
     6  C    5.883499   1.524664   5.000490   2.472721   7.244633
     7  C    2.509087   2.388644   1.566390   1.514866   3.891396
     8  O    2.878039   2.702918   2.422680   2.315888   4.320257
     9  O    3.140118   3.080139   3.490736   3.500266   4.579400
    10  H    1.109471   4.652553   2.148347   4.127453   2.170147
    11  H    1.110681   4.176424   2.158089   3.854178   2.170899
    12  H    4.696082   1.109131   4.095340   2.131017   6.198660
    13  H    4.098771   1.110129   3.664043   2.149307   5.495788
    14  H    2.187893   3.907501   1.110014   2.809674   2.825860
    15  H    2.196423   4.499592   1.127273   3.255450   2.778402
    16  H    4.036520   2.178362   2.788509   1.113658   5.137522
    17  H    4.613127   2.203080   3.320870   1.136192   5.855339
    18  H    2.175598   6.439336   2.814039   5.487932   1.113649
    19  H    2.173954   6.572494   3.501165   5.976701   1.109427
    20  H    2.185198   6.104774   2.809861   5.277630   1.111321
    21  H    6.444469   2.170739   5.400854   2.723227   7.803804
    22  H    6.049590   2.213909   5.106277   2.769526   7.280007
    23  H    6.532597   2.166304   5.833565   3.436613   7.931902
    24  H    4.034698   2.644881   4.130041   3.432792   5.514595
                    6          7          8          9         10
     6  C    0.000000
     7  C    3.763490   0.000000
     8  O    4.157862   1.197065   0.000000
     9  O    4.525332   2.610855   1.981552   0.000000
    10  H    6.146073   2.643589   2.523524   2.710212   0.000000
    11  H    5.532774   2.748193   3.131731   2.788430   1.781268
    12  H    2.198351   2.577729   2.370926   2.664889   4.600756
    13  H    2.178701   2.587921   2.940795   2.687801   4.357514
    14  H    4.952598   2.242941   3.322059   4.240503   3.085585
    15  H    5.710073   2.205838   2.854356   4.270450   2.550825
    16  H    2.711939   2.206192   3.253961   4.295533   4.591009
    17  H    2.779683   2.182498   2.721523   4.248337   4.785063
    18  H    7.777098   4.202927   4.562413   5.159702   2.515839
    19  H    7.946577   4.680450   4.934466   4.807555   2.517679
    20  H    7.297477   4.269496   4.936372   5.224372   3.104423
    21  H    1.111025   4.098194   4.415825   5.123167   6.633281
    22  H    1.116152   4.137024   4.783136   5.172776   6.497817
    23  H    1.107320   4.552296   4.770694   4.743627   6.726879
    24  H    3.943303   2.945864   2.287172   1.014355   3.663952
                   11         12         13         14         15
    11  H    0.000000
    12  H    4.466963   0.000000
    13  H    3.545227   1.775292   0.000000
    14  H    2.517621   4.532275   3.774563   0.000000
    15  H    3.105667   4.761125   4.623807   1.777272   0.000000
    16  H    4.007741   3.081193   2.556191   2.463453   3.385279
    17  H    4.815973   2.523408   3.119489   3.517009   3.556480
    18  H    3.099107   6.656148   6.185795   3.211442   2.585305
    19  H    2.502236   6.781673   6.034783   3.832649   3.805750
    20  H    2.548267   6.572250   5.646239   2.639918   3.118914
    21  H    6.254077   2.543492   3.098414   5.411216   5.928500
    22  H    5.658690   3.144068   2.576079   4.812039   5.842348
    23  H    6.050772   2.533216   2.510188   5.833804   6.616100
    24  H    3.645941   2.007664   2.386898   4.797996   4.901603
                   16         17         18         19         20
    16  H    0.000000
    17  H    1.782038   0.000000
    18  H    5.533972   6.026403   0.000000
    19  H    6.043173   6.755733   1.800568   0.000000
    20  H    5.042485   6.041917   1.802353   1.798383   0.000000
    21  H    3.048279   2.551405   8.206645   8.576821   7.897416
    22  H    2.536010   3.170663   7.852301   8.022322   7.161939
    23  H    3.738553   3.790229   8.540672   8.530955   8.018895
    24  H    4.313618   4.089554   6.082138   5.795748   6.092233
                   21         22         23         24
    21  H    0.000000
    22  H    1.797125   0.000000
    23  H    1.800687   1.797751   0.000000
    24  H    4.509910   4.730594   4.008639   0.000000
 Stoichiometry    C7H15O2(2)
 Framework group  C1[X(C7H15O2)]
 Deg. of freedom    66
 Full point group                 C1      NOp   1
 Largest Abelian subgroup         C1      NOp   1
 Largest concise Abelian subgroup C1      NOp   1
                         Standard orientation:                         
 ---------------------------------------------------------------------
 Center     Atomic      Atomic             Coordinates (Angstroms)
 Number     Number       Type             X           Y           Z
 ---------------------------------------------------------------------
      1          6           0       -2.281763    0.057201   -0.331006
      2          6           0        2.199980    0.038510   -0.322242
      3          6           0       -1.338420   -0.959017    0.312761
      4          6           0        1.340965   -0.957991    0.403691
      5          6           0       -3.684081   -0.491111   -0.544441
      6          6           0        3.559554   -0.583109   -0.621821
      7          6           0        0.021856   -0.244244    0.616614
      8          8           0        0.068551    0.832214    1.138172
      9          8           0        0.009652    2.203857   -0.290700
     10          1           0       -2.315990    0.954013    0.321285
     11          1           0       -1.845918    0.383117   -1.299216
     12          1           0        2.284732    0.950041    0.303935
     13          1           0        1.698980    0.352532   -1.261804
     14          1           0       -1.218193   -1.854786   -0.331657
     15          1           0       -1.770388   -1.346257    1.279297
     16          1           0        1.238990   -1.910085   -0.164950
     17          1           0        1.782950   -1.264594    1.404479
     18          1           0       -4.143727   -0.771358    0.430444
     19          1           0       -4.330629    0.271356   -1.025530
     20          1           0       -3.670265   -1.392917   -1.193741
     21          1           0        4.061676   -0.869654    0.326937
     22          1           0        3.490619   -1.498465   -1.256776
     23          1           0        4.198556    0.150607   -1.150495
     24          1           0        1.004430    2.396438   -0.243309
 ---------------------------------------------------------------------
 Rotational constants (GHZ):      2.5791396      0.7704275      0.6783534
 Standard basis: 6-311+G(2df,2p) (5D, 7F)
 There are   441 symmetry adapted basis functions of A   symmetry.
 Integral buffers will be    131072 words long.
 Raffenetti 2 integral format.
 Two-electron integral symmetry is turned on.
   441 basis functions,   633 primitive gaussians,   486 cartesian basis functions
    37 alpha electrons       36 beta electrons
       nuclear repulsion energy       474.6000701758 Hartrees.
 NAtoms=   24 NActive=   24 NUniq=   24 SFac= 1.00D+00 NAtFMM=   50 NAOKFM=F Big=F
 One-electron integrals computed using PRISM.
 NBasis=   441 RedAO= T  NBF=   441
 NBsUse=   441 1.00D-06 NBFU=   441
 Initial guess read from the read-write file.
 B after Tr=     0.000000    0.000000    0.000000
         Rot=    1.000000    0.000000    0.000000    0.000000 Ang=   0.00 deg.
 Initial guess orbital symmetries:
 Alpha Orbitals:
       Occupied  (A) (A) (A) (A) (A) (A) (A) (A) (A) (A) (A) (A)
                 (A) (A) (A) (A) (A) (A) (A) (A) (A) (A) (A) (A)
                 (A) (A) (A) (A) (A) (A) (A) (A) (A) (A) (A) (A)
                 (A)
       Virtual   (A) (A) (A) (A) (A) (A) (A) (A) (A) (A) (A) (A)
                 (A) (A) (A) (A) (A) (A) (A) (A) (A) (A) (A) (A)
                 (A) (A) (A) (A) (A) (A) (A) (A) (A) (A) (A) (A)
                 (A) (A) (A) (A) (A) (A) (A) (A) (A) (A) (A) (A)
                 (A) (A) (A) (A) (A) (A) (A) (A) (A) (A) (A) (A)
                 (A) (A) (A) (A) (A) (A) (A) (A) (A) (A) (A) (A)
                 (A) (A) (A) (A) (A) (A) (A) (A) (A) (A) (A) (A)
                 (A) (A) (A) (A) (A) (A) (A) (A) (A) (A) (A) (A)
                 (A) (A) (A) (A) (A) (A) (A) (A) (A) (A) (A) (A)
                 (A) (A) (A) (A) (A) (A) (A) (A) (A) (A) (A) (A)
                 (A) (A) (A) (A) (A) (A) (A) (A) (A) (A) (A) (A)
                 (A) (A) (A) (A) (A) (A) (A) (A) (A) (A) (A) (A)
                 (A) (A) (A) (A) (A) (A) (A) (A) (A) (A) (A) (A)
                 (A) (A) (A) (A) (A) (A) (A) (A) (A) (A) (A) (A)
                 (A) (A) (A) (A) (A) (A) (A) (A) (A) (A) (A) (A)
                 (A) (A) (A) (A) (A) (A) (A) (A) (A) (A) (A) (A)
                 (A) (A) (A) (A) (A) (A) (A) (A) (A) (A) (A) (A)
                 (A) (A) (A) (A) (A) (A) (A) (A) (A) (A) (A) (A)
                 (A) (A) (A) (A) (A) (A) (A) (A) (A) (A) (A) (A)
                 (A) (A) (A) (A) (A) (A) (A) (A) (A) (A) (A) (A)
                 (A) (A) (A) (A) (A) (A) (A) (A) (A) (A) (A) (A)
                 (A) (A) (A) (A) (A) (A) (A) (A) (A) (A) (A) (A)
                 (A) (A) (A) (A) (A) (A) (A) (A) (A) (A) (A) (A)
                 (A) (A) (A) (A) (A) (A) (A) (A) (A) (A) (A) (A)
                 (A) (A) (A) (A) (A) (A) (A) (A) (A) (A) (A) (A)
                 (A) (A) (A) (A) (A) (A) (A) (A) (A) (A) (A) (A)
                 (A) (A) (A) (A) (A) (A) (A) (A) (A) (A) (A) (A)
                 (A) (A) (A) (A) (A) (A) (A) (A) (A) (A) (A) (A)
                 (A) (A) (A) (A) (A) (A) (A) (A) (A) (A) (A) (A)
                 (A) (A) (A) (A) (A) (A) (A) (A) (A) (A) (A) (A)
                 (A) (A) (A) (A) (A) (A) (A) (A) (A) (A) (A) (A)
                 (A) (A) (A) (A) (A) (A) (A) (A) (A) (A) (A) (A)
                 (A) (A) (A) (A) (A) (A) (A) (A) (A) (A) (A) (A)
                 (A) (A) (A) (A) (A) (A) (A) (A)
 Beta  Orbitals:
       Occupied  (A) (A) (A) (A) (A) (A) (A) (A) (A) (A) (A) (A)
                 (A) (A) (A) (A) (A) (A) (A) (A) (A) (A) (A) (A)
                 (A) (A) (A) (A) (A) (A) (A) (A) (A) (A) (A) (A)
       Virtual   (A) (A) (A) (A) (A) (A) (A) (A) (A) (A) (A) (A)
                 (A) (A) (A) (A) (A) (A) (A) (A) (A) (A) (A) (A)
                 (A) (A) (A) (A) (A) (A) (A) (A) (A) (A) (A) (A)
                 (A) (A) (A) (A) (A) (A) (A) (A) (A) (A) (A) (A)
                 (A) (A) (A) (A) (A) (A) (A) (A) (A) (A) (A) (A)
                 (A) (A) (A) (A) (A) (A) (A) (A) (A) (A) (A) (A)
                 (A) (A) (A) (A) (A) (A) (A) (A) (A) (A) (A) (A)
                 (A) (A) (A) (A) (A) (A) (A) (A) (A) (A) (A) (A)
                 (A) (A) (A) (A) (A) (A) (A) (A) (A) (A) (A) (A)
                 (A) (A) (A) (A) (A) (A) (A) (A) (A) (A) (A) (A)
                 (A) (A) (A) (A) (A) (A) (A) (A) (A) (A) (A) (A)
                 (A) (A) (A) (A) (A) (A) (A) (A) (A) (A) (A) (A)
                 (A) (A) (A) (A) (A) (A) (A) (A) (A) (A) (A) (A)
                 (A) (A) (A) (A) (A) (A) (A) (A) (A) (A) (A) (A)
                 (A) (A) (A) (A) (A) (A) (A) (A) (A) (A) (A) (A)
                 (A) (A) (A) (A) (A) (A) (A) (A) (A) (A) (A) (A)
                 (A) (A) (A) (A) (A) (A) (A) (A) (A) (A) (A) (A)
                 (A) (A) (A) (A) (A) (A) (A) (A) (A) (A) (A) (A)
                 (A) (A) (A) (A) (A) (A) (A) (A) (A) (A) (A) (A)
                 (A) (A) (A) (A) (A) (A) (A) (A) (A) (A) (A) (A)
                 (A) (A) (A) (A) (A) (A) (A) (A) (A) (A) (A) (A)
                 (A) (A) (A) (A) (A) (A) (A) (A) (A) (A) (A) (A)
                 (A) (A) (A) (A) (A) (A) (A) (A) (A) (A) (A) (A)
                 (A) (A) (A) (A) (A) (A) (A) (A) (A) (A) (A) (A)
                 (A) (A) (A) (A) (A) (A) (A) (A) (A) (A) (A) (A)
                 (A) (A) (A) (A) (A) (A) (A) (A) (A) (A) (A) (A)
                 (A) (A) (A) (A) (A) (A) (A) (A) (A) (A) (A) (A)
                 (A) (A) (A) (A) (A) (A) (A) (A) (A) (A) (A) (A)
                 (A) (A) (A) (A) (A) (A) (A) (A) (A) (A) (A) (A)
                 (A) (A) (A) (A) (A) (A) (A) (A) (A) (A) (A) (A)
                 (A) (A) (A) (A) (A) (A) (A) (A) (A) (A) (A) (A)
                 (A) (A) (A) (A) (A) (A) (A) (A) (A) (A) (A) (A)
                 (A) (A) (A) (A) (A) (A) (A) (A) (A) (A) (A) (A)
                 (A) (A) (A) (A) (A) (A) (A) (A) (A)
 Initial guess <Sx>= 0.0000 <Sy>= 0.0000 <Sz>= 0.5000 <S**2>= 0.7569 S= 0.5034
 Harris functional with IExCor= 1009 diagonalized for initial guess.
 ExpMin= 4.38D-02 ExpMax= 8.59D+03 ExpMxC= 1.30D+03 IAcc=2 IRadAn=         0 AccDes= 0.00D+00
 HarFok:  IExCor= 1009 AccDes= 0.00D+00 IRadAn=         0 IDoV= 1
 ScaDFX=  1.000000  1.000000  1.000000  1.000000
 FoFCou: FMM=F IPFlag=           0 FMFlag=      100000 FMFlg1=           0
         NFxFlg=           0 DoJE=T BraDBF=F KetDBF=T FulRan=T
         Omega=  0.000000  0.000000  1.000000  0.000000  0.000000 ICntrl=     500 IOpCl=  0
         NMat0=    1 NMatS0=    1 NMatT0=    0 NMatD0=    1 NMtDS0=    0 NMtDT0=    0
         I1Cent=           4 NGrid=           0.
 Petite list used in FoFCou.
 Requested convergence on RMS density matrix=1.00D-08 within 128 cycles.
 Requested convergence on MAX density matrix=1.00D-06.
 Requested convergence on             energy=1.00D-06.
 No special actions if energy rises.
