 Entering Gaussian System, Link 0=/shared/apps/gaussian/G09_LINUX_LINDA/g09/g09
 Input=/gss_gpfs_scratch/harms.n/QMscratch/ACWQBUSCFPJUPN-UHFFFAOYSA.gjf
 Output=/gss_gpfs_scratch/harms.n/QMscratch/ACWQBUSCFPJUPN-UHFFFAOYSA.log
 Initial command:
 /shared/apps/gaussian/G09_LINUX_LINDA/g09/l1.exe /gss_gpfs_scratch/harms.n/comparerTST/Gau-16110.inp -scrdir=/gss_gpfs_scratch/harms.n/comparerTST/
 Entering Link 1 = /shared/apps/gaussian/G09_LINUX_LINDA/g09/l1.exe PID=     16111.
  
 Copyright (c) 1988,1990,1992,1993,1995,1998,2003,2009,2010,
            Gaussian, Inc.  All Rights Reserved.
  
 This is part of the Gaussian(R) 09 program.  It is based on
 the Gaussian(R) 03 system (copyright 2003, Gaussian, Inc.),
 the Gaussian(R) 98 system (copyright 1998, Gaussian, Inc.),
 the Gaussian(R) 94 system (copyright 1995, Gaussian, Inc.),
 the Gaussian 92(TM) system (copyright 1992, Gaussian, Inc.),
 the Gaussian 90(TM) system (copyright 1990, Gaussian, Inc.),
 the Gaussian 88(TM) system (copyright 1988, Gaussian, Inc.),
 the Gaussian 86(TM) system (copyright 1986, Carnegie Mellon
 University), and the Gaussian 82(TM) system (copyright 1983,
 Carnegie Mellon University). Gaussian is a federally registered
 trademark of Gaussian, Inc.
  
 This software contains proprietary and confidential information,
 including trade secrets, belonging to Gaussian, Inc.
  
 This software is provided under written license and may be
 used, copied, transmitted, or stored only in accord with that
 written license.
  
 The following legend is applicable only to US Government
 contracts under FAR:
  
                    RESTRICTED RIGHTS LEGEND
  
 Use, reproduction and disclosure by the US Government is
 subject to restrictions as set forth in subparagraphs (a)
 and (c) of the Commercial Computer Software - Restricted
 Rights clause in FAR 52.227-19.
  
 Gaussian, Inc.
 340 Quinnipiac St., Bldg. 40, Wallingford CT 06492
  
  
 ---------------------------------------------------------------
 Warning -- This program may not be used in any manner that
 competes with the business of Gaussian, Inc. or will provide
 assistance to any competitor of Gaussian, Inc.  The licensee
 of this program is prohibited from giving any competitor of
 Gaussian, Inc. access to this program.  By using this program,
 the user acknowledges that Gaussian, Inc. is engaged in the
 business of creating and licensing software in the field of
 computational chemistry and represents and warrants to the
 licensee that it is not a competitor of Gaussian, Inc. and that
 it will not use this program in any manner prohibited above.
 ---------------------------------------------------------------
  

 Cite this work as:
 Gaussian 09, Revision B.01,
 M. J. Frisch, G. W. Trucks, H. B. Schlegel, G. E. Scuseria, 
 M. A. Robb, J. R. Cheeseman, G. Scalmani, V. Barone, B. Mennucci, 
 G. A. Petersson, H. Nakatsuji, M. Caricato, X. Li, H. P. Hratchian, 
 A. F. Izmaylov, J. Bloino, G. Zheng, J. L. Sonnenberg, M. Hada, 
 M. Ehara, K. Toyota, R. Fukuda, J. Hasegawa, M. Ishida, T. Nakajima, 
 Y. Honda, O. Kitao, H. Nakai, T. Vreven, J. A. Montgomery, Jr., 
 J. E. Peralta, F. Ogliaro, M. Bearpark, J. J. Heyd, E. Brothers, 
 K. N. Kudin, V. N. Staroverov, T. Keith, R. Kobayashi, J. Normand, 
 K. Raghavachari, A. Rendell, J. C. Burant, S. S. Iyengar, J. Tomasi, 
 M. Cossi, N. Rega, J. M. Millam, M. Klene, J. E. Knox, J. B. Cross, 
 V. Bakken, C. Adamo, J. Jaramillo, R. Gomperts, R. E. Stratmann, 
 O. Yazyev, A. J. Austin, R. Cammi, C. Pomelli, J. W. Ochterski, 
 R. L. Martin, K. Morokuma, V. G. Zakrzewski, G. A. Voth, 
 P. Salvador, J. J. Dannenberg, S. Dapprich, A. D. Daniels, 
 O. Farkas, J. B. Foresman, J. V. Ortiz, J. Cioslowski, 
 and D. J. Fox, Gaussian, Inc., Wallingford CT, 2010.
 
 ******************************************
 Gaussian 09:  EM64L-G09RevB.01 12-Aug-2010
                28-Aug-2017 
 ******************************************
 %nprocshared=20
 Will use up to   20 processors via shared memory.
 %mem=5GB
 --------------------------------------------------------------
 # m062x/6-311+g(2df,2p) opt=(verytight,gdiis) freq IOP(2/16=3)
 --------------------------------------------------------------

 Warning!  Use of Opt=GDIIS is deprecated since it is seldom a good choice.

 1/7=1,14=-1,18=20,19=11,26=3,38=1/1,3;
 2/9=110,12=2,16=3,17=6,18=5,40=1/2;
 3/5=4,6=6,7=214,11=2,16=1,25=1,30=1,71=1,74=-55/1,2,3;
 4//1;
 5/5=2,38=5/2;
 6/7=2,8=2,9=2,10=2,28=1/1;
 7//1,2,3,16;
 1/7=1,14=-1,18=20,19=11/3(2);
 2/9=110,16=3/2;
 99//99;
 2/9=110,16=3/2;
 3/5=4,6=6,7=214,11=2,16=1,25=1,30=1,71=1,74=-55/1,2,3;
 4/5=5,16=3/1;
 5/5=2,38=5/2;
 7//1,2,3,16;
 1/7=1,14=-1,18=20,19=11/3(-5);
 2/9=110,16=3/2;
 6/7=2,8=2,9=2,10=2,19=2,28=1/1;
 99/9=1/99;
 ---------------------------------------
 InChI=1S/C5H8O/c1-3-5(2)4-6/h3-4H,1-2H3
 ---------------------------------------
 Symbolic Z-matrix:
 Charge =  0 Multiplicity = 1
 C                    -1.1834   -0.8773    0.0367 
 C                     1.7224   -0.6705    0.5092 
 C                    -0.4267    0.4084   -0.1961 
 C                     0.8981    0.4849    0.0244 
 C                    -1.1376    1.6133   -0.6745 
 H                     2.7819   -0.3555    0.6122 
 H                     1.3586   -1.0117    1.501 
 H                     1.6734   -1.5082   -0.2176 
 H                    -0.7766   -1.6794   -0.6143 
 H                    -2.2637   -0.7707   -0.1919 
 H                    -1.0905   -1.1843    1.0997 
 H                     1.4166    1.421    -0.1511 
 O                    -2.3773    1.5942   -0.896 
 H                    -0.5952    2.5358   -0.8416 
 

 GradGradGradGradGradGradGradGradGradGradGradGradGradGradGradGradGradGrad
 Berny optimization.
 Initialization pass.
                           ----------------------------
                           !    Initial Parameters    !
                           ! (Angstroms and Degrees)  !
 --------------------------                            --------------------------
 ! Name  Definition              Value          Derivative Info.                !
 --------------------------------------------------------------------------------
 ! R1    R(1,3)                  1.5099         estimate D2E/DX2                !
 ! R2    R(1,9)                  1.1102         estimate D2E/DX2                !
 ! R3    R(1,10)                 1.1094         estimate D2E/DX2                !
 ! R4    R(1,11)                 1.1103         estimate D2E/DX2                !
 ! R5    R(2,4)                  1.4998         estimate D2E/DX2                !
 ! R6    R(2,6)                  1.1101         estimate D2E/DX2                !
 ! R7    R(2,7)                  1.1102         estimate D2E/DX2                !
 ! R8    R(2,8)                  1.1101         estimate D2E/DX2                !
 ! R9    R(3,4)                  1.3452         estimate D2E/DX2                !
 ! R10   R(3,5)                  1.4785         estimate D2E/DX2                !
 ! R11   R(4,12)                 1.0844         estimate D2E/DX2                !
 ! R12   R(5,13)                 1.2595         estimate D2E/DX2                !
 ! R13   R(5,14)                 1.0831         estimate D2E/DX2                !
 ! A1    A(3,1,9)              109.9465         estimate D2E/DX2                !
 ! A2    A(3,1,10)             111.9895         estimate D2E/DX2                !
 ! A3    A(3,1,11)             109.9448         estimate D2E/DX2                !
 ! A4    A(9,1,10)             107.7823         estimate D2E/DX2                !
 ! A5    A(9,1,11)             109.3263         estimate D2E/DX2                !
 ! A6    A(10,1,11)            107.7778         estimate D2E/DX2                !
 ! A7    A(4,2,6)              109.6295         estimate D2E/DX2                !
 ! A8    A(4,2,7)              110.2087         estimate D2E/DX2                !
 ! A9    A(4,2,8)              110.208          estimate D2E/DX2                !
 ! A10   A(6,2,7)              108.4863         estimate D2E/DX2                !
 ! A11   A(6,2,8)              108.481          estimate D2E/DX2                !
 ! A12   A(7,2,8)              109.7865         estimate D2E/DX2                !
 ! A13   A(1,3,4)              121.1117         estimate D2E/DX2                !
 ! A14   A(1,3,5)              120.1886         estimate D2E/DX2                !
 ! A15   A(4,3,5)              118.6997         estimate D2E/DX2                !
 ! A16   A(2,4,3)              123.3972         estimate D2E/DX2                !
 ! A17   A(2,4,12)             117.0348         estimate D2E/DX2                !
 ! A18   A(3,4,12)             119.568          estimate D2E/DX2                !
 ! A19   A(3,5,13)             121.1857         estimate D2E/DX2                !
 ! A20   A(3,5,14)             120.2137         estimate D2E/DX2                !
 ! A21   A(13,5,14)            118.6006         estimate D2E/DX2                !
 ! D1    D(9,1,3,4)            -60.2037         estimate D2E/DX2                !
 ! D2    D(9,1,3,5)            119.7882         estimate D2E/DX2                !
 ! D3    D(10,1,3,4)           179.9992         estimate D2E/DX2                !
 ! D4    D(10,1,3,5)            -0.0089         estimate D2E/DX2                !
 ! D5    D(11,1,3,4)            60.2091         estimate D2E/DX2                !
 ! D6    D(11,1,3,5)          -119.7991         estimate D2E/DX2                !
 ! D7    D(6,2,4,3)            179.9998         estimate D2E/DX2                !
 ! D8    D(6,2,4,12)            -0.002          estimate D2E/DX2                !
 ! D9    D(7,2,4,3)            -60.6587         estimate D2E/DX2                !
 ! D10   D(7,2,4,12)           119.3395         estimate D2E/DX2                !
 ! D11   D(8,2,4,3)             60.6653         estimate D2E/DX2                !
 ! D12   D(8,2,4,12)          -119.3365         estimate D2E/DX2                !
 ! D13   D(1,3,4,2)             -0.0054         estimate D2E/DX2                !
 ! D14   D(1,3,4,12)           179.9965         estimate D2E/DX2                !
 ! D15   D(5,3,4,2)           -179.9973         estimate D2E/DX2                !
 ! D16   D(5,3,4,12)             0.0046         estimate D2E/DX2                !
 ! D17   D(1,3,5,13)             0.0082         estimate D2E/DX2                !
 ! D18   D(1,3,5,14)           179.998          estimate D2E/DX2                !
 ! D19   D(4,3,5,13)          -179.9998         estimate D2E/DX2                !
 ! D20   D(4,3,5,14)            -0.01           estimate D2E/DX2                !
 --------------------------------------------------------------------------------
 Trust Radius=3.00D-01 FncErr=1.00D-07 GrdErr=1.00D-06
 Number of steps in this run=     64 maximum allowed number of steps=    100.
 GradGradGradGradGradGradGradGradGradGradGradGradGradGradGradGradGradGrad

                          Input orientation:                          
 ---------------------------------------------------------------------
 Center     Atomic      Atomic             Coordinates (Angstroms)
 Number     Number       Type             X           Y           Z
 ---------------------------------------------------------------------
      1          6           0       -1.183400   -0.877300    0.036700
      2          6           0        1.722400   -0.670500    0.509200
      3          6           0       -0.426700    0.408400   -0.196100
      4          6           0        0.898100    0.484900    0.024400
      5          6           0       -1.137600    1.613300   -0.674500
      6          1           0        2.781900   -0.355500    0.612200
      7          1           0        1.358600   -1.011700    1.501000
      8          1           0        1.673400   -1.508200   -0.217600
      9          1           0       -0.776600   -1.679400   -0.614300
     10          1           0       -2.263700   -0.770700   -0.191900
     11          1           0       -1.090500   -1.184300    1.099700
     12          1           0        1.416600    1.421000   -0.151100
     13          8           0       -2.377300    1.594200   -0.896000
     14          1           0       -0.595200    2.535800   -0.841600
 ---------------------------------------------------------------------
                    Distance matrix (angstroms):
                    1          2          3          4          5
     1  C    0.000000
     2  C    2.951219   0.000000
     3  C    1.509906   2.506014   0.000000
     4  C    2.487646   1.499817   1.345202   0.000000
     5  C    2.590558   3.846620   1.478523   2.430190   0.000000
     6  H    4.040678   1.110124   3.395881   2.144874   4.571023
     7  H    2.936665   1.110151   2.843260   2.152259   4.225451
     8  H    2.936666   1.110126   2.843279   2.152232   4.225428
     9  H    1.110248   2.919783   2.157830   2.810116   3.312977
    10  H    1.109355   4.048527   2.182857   3.408856   2.680384
    11  H    1.110337   2.919775   2.157874   2.810165   3.313091
    12  H    3.475263   2.214471   2.103601   1.084401   2.614357
    13  O    2.898903   4.889887   2.387639   3.578537   1.259477
    14  H    3.573044   4.180465   2.229550   2.680689   1.083110
                    6          7          8          9         10
     6  H    0.000000
     7  H    1.801762   0.000000
     8  H    1.801682   1.816369   0.000000
     9  H    3.989979   3.078863   2.487806   0.000000
    10  H    5.126114   4.005627   4.005661   1.793216   0.000000
    11  H    3.989993   2.487755   3.078853   1.811478   1.793236
    12  H    2.366986   2.941229   2.941187   3.825854   4.283669
    13  O    5.717809   5.147162   5.147163   3.654867   2.470104
    14  H    4.677388   4.678661   4.678660   4.225220   3.760179
                   11         12         13         14
    11  H    0.000000
    12  H    3.825917   0.000000
    13  O    3.654960   3.870213   0.000000
    14  H    4.225294   2.401439   2.016296   0.000000
 Stoichiometry    C5H8O
 Framework group  C1[X(C5H8O)]
 Deg. of freedom    36
 Full point group                 C1      NOp   1
 Largest Abelian subgroup         C1      NOp   1
 Largest concise Abelian subgroup C1      NOp   1
                         Standard orientation:                         
 ---------------------------------------------------------------------
 Center     Atomic      Atomic             Coordinates (Angstroms)
 Number     Number       Type             X           Y           Z
 ---------------------------------------------------------------------
      1          6           0       -0.024758    1.480779    0.000026
      2          6           0        2.422378   -0.168833   -0.000005
      3          6           0       -0.079682   -0.028128   -0.000040
      4          6           0        1.045982   -0.764638    0.000001
      5          6           0       -1.383878   -0.724620    0.000031
      6          1           0        3.179991   -0.980250    0.000037
      7          1           0        2.571526    0.451966   -0.908189
      8          1           0        2.571531    0.451920    0.908180
      9          1           0        0.507226    1.840379    0.905748
     10          1           0       -1.037620    1.933305   -0.000033
     11          1           0        0.507302    1.840454   -0.905730
     12          1           0        0.977357   -1.846866    0.000010
     13          8           0       -2.466727   -0.081408   -0.000007
     14          1           0       -1.423751   -1.806996   -0.000049
 ---------------------------------------------------------------------
 Rotational constants (GHZ):      8.1428445      2.1536671      1.7421348
 Standard basis: 6-311+G(2df,2p) (5D, 7F)
 There are   276 symmetry adapted basis functions of A   symmetry.
 Integral buffers will be    131072 words long.
 Raffenetti 2 integral format.
 Two-electron integral symmetry is turned on.
   276 basis functions,   400 primitive gaussians,   306 cartesian basis functions
    23 alpha electrons       23 beta electrons
       nuclear repulsion energy       219.5349683332 Hartrees.
 NAtoms=   14 NActive=   14 NUniq=   14 SFac= 1.00D+00 NAtFMM=   50 NAOKFM=F Big=F
 One-electron integrals computed using PRISM.
 NBasis=   276 RedAO= T  NBF=   276
 NBsUse=   276 1.00D-06 NBFU=   276
 Harris functional with IExCor= 1009 diagonalized for initial guess.
 ExpMin= 4.38D-02 ExpMax= 8.59D+03 ExpMxC= 1.30D+03 IAcc=2 IRadAn=         0 AccDes= 0.00D+00
 HarFok:  IExCor= 1009 AccDes= 0.00D+00 IRadAn=         0 IDoV= 1
 ScaDFX=  1.000000  1.000000  1.000000  1.000000
 FoFCou: FMM=F IPFlag=           0 FMFlag=      100000 FMFlg1=           0
         NFxFlg=           0 DoJE=T BraDBF=F KetDBF=T FulRan=T
         Omega=  0.000000  0.000000  1.000000  0.000000  0.000000 ICntrl=     500 IOpCl=  0
         NMat0=    1 NMatS0=    1 NMatT0=    0 NMatD0=    1 NMtDS0=    0 NMtDT0=    0
         I1Cent=           4 NGrid=           0.
 Petite list used in FoFCou.
 Initial guess orbital symmetries:
       Occupied  (A) (A) (A) (A) (A) (A) (A) (A) (A) (A) (A) (A)
                 (A) (A) (A) (A) (A) (A) (A) (A) (A) (A) (A)
       Virtual   (A) (A) (A) (A) (A) (A) (A) (A) (A) (A) (A) (A)
                 (A) (A) (A) (A) (A) (A) (A) (A) (A) (A) (A) (A)
                 (A) (A) (A) (A) (A) (A) (A) (A) (A) (A) (A) (A)
                 (A) (A) (A) (A) (A) (A) (A) (A) (A) (A) (A) (A)
                 (A) (A) (A) (A) (A) (A) (A) (A) (A) (A) (A) (A)
                 (A) (A) (A) (A) (A) (A) (A) (A) (A) (A) (A) (A)
                 (A) (A) (A) (A) (A) (A) (A) (A) (A) (A) (A) (A)
                 (A) (A) (A) (A) (A) (A) (A) (A) (A) (A) (A) (A)
                 (A) (A) (A) (A) (A) (A) (A) (A) (A) (A) (A) (A)
                 (A) (A) (A) (A) (A) (A) (A) (A) (A) (A) (A) (A)
                 (A) (A) (A) (A) (A) (A) (A) (A) (A) (A) (A) (A)
                 (A) (A) (A) (A) (A) (A) (A) (A) (A) (A) (A) (A)
                 (A) (A) (A) (A) (A) (A) (A) (A) (A) (A) (A) (A)
                 (A) (A) (A) (A) (A) (A) (A) (A) (A) (A) (A) (A)
                 (A) (A) (A) (A) (A) (A) (A) (A) (A) (A) (A) (A)
                 (A) (A) (A) (A) (A) (A) (A) (A) (A) (A) (A) (A)
                 (A) (A) (A) (A) (A) (A) (A) (A) (A) (A) (A) (A)
                 (A) (A) (A) (A) (A) (A) (A) (A) (A) (A) (A) (A)
                 (A) (A) (A) (A) (A) (A) (A) (A) (A) (A) (A) (A)
                 (A) (A) (A) (A) (A) (A) (A) (A) (A) (A) (A) (A)
                 (A) (A) (A) (A) (A) (A) (A) (A) (A) (A) (A) (A)
                 (A)
 The electronic state of the initial guess is 1-A.
 Requested convergence on RMS density matrix=1.00D-08 within 128 cycles.
 Requested convergence on MAX density matrix=1.00D-06.
 Requested convergence on             energy=1.00D-06.
 No special actions if energy rises.
 SCF Done:  E(RM062X) =  -270.507722670     A.U. after   13 cycles
             Convg  =    0.5054D-08             -V/T =  2.0053

 **********************************************************************

            Population analysis using the SCF density.

 **********************************************************************

 Orbital symmetries:
       Occupied  (A) (A) (A) (A) (A) (A) (A) (A) (A) (A) (A) (A)
                 (A) (A) (A) (A) (A) (A) (A) (A) (A) (A) (A)
       Virtual   (A) (A) (A) (A) (A) (A) (A) (A) (A) (A) (A) (A)
                 (A) (A) (A) (A) (A) (A) (A) (A) (A) (A) (A) (A)
                 (A) (A) (A) (A) (A) (A) (A) (A) (A) (A) (A) (A)
                 (A) (A) (A) (A) (A) (A) (A) (A) (A) (A) (A) (A)
                 (A) (A) (A) (A) (A) (A) (A) (A) (A) (A) (A) (A)
                 (A) (A) (A) (A) (A) (A) (A) (A) (A) (A) (A) (A)
                 (A) (A) (A) (A) (A) (A) (A) (A) (A) (A) (A) (A)
                 (A) (A) (A) (A) (A) (A) (A) (A) (A) (A) (A) (A)
                 (A) (A) (A) (A) (A) (A) (A) (A) (A) (A) (A) (A)
                 (A) (A) (A) (A) (A) (A) (A) (A) (A) (A) (A) (A)
                 (A) (A) (A) (A) (A) (A) (A) (A) (A) (A) (A) (A)
                 (A) (A) (A) (A) (A) (A) (A) (A) (A) (A) (A) (A)
                 (A) (A) (A) (A) (A) (A) (A) (A) (A) (A) (A) (A)
                 (A) (A) (A) (A) (A) (A) (A) (A) (A) (A) (A) (A)
                 (A) (A) (A) (A) (A) (A) (A) (A) (A) (A) (A) (A)
                 (A) (A) (A) (A) (A) (A) (A) (A) (A) (A) (A) (A)
                 (A) (A) (A) (A) (A) (A) (A) (A) (A) (A) (A) (A)
                 (A) (A) (A) (A) (A) (A) (A) (A) (A) (A) (A) (A)
                 (A) (A) (A) (A) (A) (A) (A) (A) (A) (A) (A) (A)
                 (A) (A) (A) (A) (A) (A) (A) (A) (A) (A) (A) (A)
                 (A) (A) (A) (A) (A) (A) (A) (A) (A) (A) (A) (A)
                 (A)
 The electronic state is 1-A.
 Alpha  occ. eigenvalues --  -19.61867 -10.62974 -10.56925 -10.56090 -10.55537
 Alpha  occ. eigenvalues --  -10.54183  -1.13984  -0.93375  -0.83310  -0.78067
 Alpha  occ. eigenvalues --   -0.69553  -0.61813  -0.57855  -0.52220  -0.51780
 Alpha  occ. eigenvalues --   -0.48001  -0.47790  -0.46570  -0.44424  -0.43700
 Alpha  occ. eigenvalues --   -0.42563  -0.33457  -0.32256
 Alpha virt. eigenvalues --   -0.03008   0.00543   0.02267   0.03125   0.03453
 Alpha virt. eigenvalues --    0.04966   0.05547   0.05950   0.06806   0.07363
 Alpha virt. eigenvalues --    0.08795   0.09519   0.10238   0.11045   0.12866
 Alpha virt. eigenvalues --    0.12893   0.14337   0.14944   0.16186   0.16330
 Alpha virt. eigenvalues --    0.17639   0.19670   0.20723   0.20915   0.21750
 Alpha virt. eigenvalues --    0.23072   0.24289   0.24955   0.25727   0.25977
 Alpha virt. eigenvalues --    0.28083   0.28973   0.29537   0.32529   0.33543
 Alpha virt. eigenvalues --    0.35923   0.37852   0.40369   0.42686   0.43231
 Alpha virt. eigenvalues --    0.43670   0.44557   0.47091   0.50279   0.51786
 Alpha virt. eigenvalues --    0.52830   0.53650   0.54702   0.54987   0.57711
 Alpha virt. eigenvalues --    0.57800   0.58787   0.59316   0.61733   0.63316
 Alpha virt. eigenvalues --    0.63873   0.64261   0.66424   0.67764   0.68524
 Alpha virt. eigenvalues --    0.69335   0.69625   0.70328   0.73602   0.75998
 Alpha virt. eigenvalues --    0.78827   0.81020   0.81119   0.83539   0.84886
 Alpha virt. eigenvalues --    0.88580   0.91556   0.91567   0.93507   0.95728
 Alpha virt. eigenvalues --    0.99080   1.02716   1.03645   1.05303   1.05947
 Alpha virt. eigenvalues --    1.07570   1.08119   1.11024   1.11816   1.13876
 Alpha virt. eigenvalues --    1.14595   1.15437   1.16193   1.20030   1.21671
 Alpha virt. eigenvalues --    1.23836   1.25111   1.26604   1.27108   1.29934
 Alpha virt. eigenvalues --    1.30284   1.31875   1.34795   1.35295   1.38367
 Alpha virt. eigenvalues --    1.38585   1.39775   1.41959   1.43728   1.43964
 Alpha virt. eigenvalues --    1.44540   1.46233   1.51474   1.51838   1.55235
 Alpha virt. eigenvalues --    1.57596   1.60659   1.62422   1.63296   1.63525
 Alpha virt. eigenvalues --    1.66106   1.76487   1.77528   1.79605   1.86964
 Alpha virt. eigenvalues --    1.94950   2.02049   2.05629   2.33682   2.34588
 Alpha virt. eigenvalues --    2.39599   2.48686   2.49721   2.52028   2.57321
 Alpha virt. eigenvalues --    2.65008   2.66054   2.67405   2.75089   2.75359
 Alpha virt. eigenvalues --    2.76408   2.82648   2.82749   2.84261   2.84694
 Alpha virt. eigenvalues --    2.85970   2.86553   2.88625   2.93307   2.94816
 Alpha virt. eigenvalues --    2.97526   3.00660   3.01184   3.04268   3.05499
 Alpha virt. eigenvalues --    3.06538   3.09957   3.10534   3.11399   3.14492
 Alpha virt. eigenvalues --    3.15110   3.17187   3.20350   3.20691   3.22975
 Alpha virt. eigenvalues --    3.23925   3.27303   3.29799   3.30472   3.32957
 Alpha virt. eigenvalues --    3.35764   3.35945   3.37271   3.41001   3.41823
 Alpha virt. eigenvalues --    3.44275   3.46947   3.49421   3.49713   3.52481
 Alpha virt. eigenvalues --    3.55846   3.57195   3.61481   3.66616   3.67415
 Alpha virt. eigenvalues --    3.69547   3.70848   3.71859   3.75444   3.81822
 Alpha virt. eigenvalues --    3.82218   3.85273   3.86551   3.87957   3.88668
 Alpha virt. eigenvalues --    3.89077   3.96220   4.00094   4.00871   4.03395
 Alpha virt. eigenvalues --    4.09051   4.12090   4.14804   4.15511   4.15524
 Alpha virt. eigenvalues --    4.17870   4.18774   4.20874   4.24999   4.27213
 Alpha virt. eigenvalues --    4.31683   4.33869   4.36022   4.37061   4.42367
 Alpha virt. eigenvalues --    4.43076   4.44484   4.49032   4.50867   4.54924
 Alpha virt. eigenvalues --    4.61291   4.61844   4.62840   4.72225   4.78367
 Alpha virt. eigenvalues --    4.81905   4.95803   5.09116   5.11614   5.14002
 Alpha virt. eigenvalues --    5.15945   5.17278   5.28885   5.42592   5.43053
 Alpha virt. eigenvalues --    5.45716   5.48364   5.51707   5.52740   5.53429
 Alpha virt. eigenvalues --    5.59089   5.67158   5.80947   5.84295   6.09637
 Alpha virt. eigenvalues --    6.51385   6.84375   6.91648   6.97403   7.20430
 Alpha virt. eigenvalues --    7.41905   7.62083  24.07386  24.34501  24.41016
 Alpha virt. eigenvalues --   24.64168  24.87838  50.21271
          Condensed to atoms (all electrons):
              1          2          3          4          5          6
     1  C    5.904968  -0.128128   0.330190  -0.436534  -0.122582   0.003145
     2  C   -0.128128   5.555433   0.260128  -0.195153  -0.148324   0.411306
     3  C    0.330190   0.260128   6.823092  -1.124872  -0.512218   0.041106
     4  C   -0.436534  -0.195153  -1.124872   6.789562   0.691906  -0.076158
     5  C   -0.122582  -0.148324  -0.512218   0.691906   5.385475   0.004871
     6  H    0.003145   0.411306   0.041106  -0.076158   0.004871   0.527634
     7  H   -0.014481   0.397444  -0.031101  -0.002437   0.006174  -0.021772
     8  H   -0.014475   0.397446  -0.031119  -0.002426   0.006173  -0.021780
     9  H    0.404243  -0.001432  -0.035594  -0.015404   0.002450   0.000076
    10  H    0.445374  -0.000791  -0.063481  -0.010787   0.014607  -0.000008
    11  H    0.404223  -0.001424  -0.035575  -0.015432   0.002462   0.000076
    12  H   -0.029483   0.012772  -0.060280   0.409385   0.030390  -0.009928
    13  O   -0.094409   0.014425  -0.041654   0.015692   0.381947   0.000016
    14  H   -0.034204   0.018641  -0.161961   0.104273   0.453641   0.000040
              7          8          9         10         11         12
     1  C   -0.014481  -0.014475   0.404243   0.445374   0.404223  -0.029483
     2  C    0.397444   0.397446  -0.001432  -0.000791  -0.001424   0.012772
     3  C   -0.031101  -0.031119  -0.035594  -0.063481  -0.035575  -0.060280
     4  C   -0.002437  -0.002426  -0.015404  -0.010787  -0.015432   0.409385
     5  C    0.006174   0.006173   0.002450   0.014607   0.002462   0.030390
     6  H   -0.021772  -0.021780   0.000076  -0.000008   0.000076  -0.009928
     7  H    0.535763  -0.033827  -0.002793   0.000110   0.004346   0.003154
     8  H   -0.033827   0.535767   0.004346   0.000110  -0.002794   0.003155
     9  H   -0.002793   0.004346   0.547115  -0.020313  -0.040254  -0.000079
    10  H    0.000110   0.000110  -0.020313   0.470137  -0.020318  -0.000075
    11  H    0.004346  -0.002794  -0.040254  -0.020318   0.547157  -0.000079
    12  H    0.003154   0.003155  -0.000079  -0.000075  -0.000079   0.484711
    13  O   -0.000063  -0.000063  -0.000295   0.001866  -0.000293  -0.000113
    14  H   -0.000034  -0.000034  -0.000174   0.000064  -0.000174   0.003382
             13         14
     1  C   -0.094409  -0.034204
     2  C    0.014425   0.018641
     3  C   -0.041654  -0.161961
     4  C    0.015692   0.104273
     5  C    0.381947   0.453641
     6  H    0.000016   0.000040
     7  H   -0.000063  -0.000034
     8  H   -0.000063  -0.000034
     9  H   -0.000295  -0.000174
    10  H    0.001866   0.000064
    11  H   -0.000293  -0.000174
    12  H   -0.000113   0.003382
    13  O    8.136909  -0.048932
    14  H   -0.048932   0.518201
 Mulliken atomic charges:
              1
     1  C   -0.617846
     2  C   -0.592343
     3  C    0.643339
     4  C   -0.131614
     5  C   -0.196971
     6  H    0.141373
     7  H    0.159516
     8  H    0.159521
     9  H    0.158107
    10  H    0.183507
    11  H    0.158081
    12  H    0.153089
    13  O   -0.365031
    14  H    0.147271
 Sum of Mulliken atomic charges =   0.00000
 Mulliken charges with hydrogens summed into heavy atoms:
              1
     1  C   -0.118151
     2  C   -0.131932
     3  C    0.643339
     4  C    0.021475
     5  C   -0.049700
    13  O   -0.365031
 Sum of Mulliken charges with hydrogens summed into heavy atoms =   0.00000
 Electronic spatial extent (au):  <R**2>=            700.1546
 Charge=              0.0000 electrons
 Dipole moment (field-independent basis, Debye):
    X=              3.8669    Y=             -0.7965    Z=              0.0001  Tot=              3.9480
 Quadrupole moment (field-independent basis, Debye-Ang):
   XX=            -44.8132   YY=            -33.9740   ZZ=            -37.8256
   XY=              0.6705   XZ=              0.0002   YZ=             -0.0001
 Traceless Quadrupole moment (field-independent basis, Debye-Ang):
   XX=             -5.9423   YY=              4.8970   ZZ=              1.0454
   XY=              0.6705   XZ=              0.0002   YZ=             -0.0001
 Octapole moment (field-independent basis, Debye-Ang**2):
  XXX=             27.0227  YYY=             -5.1381  ZZZ=              0.0004  XYY=             -3.7996
  XXY=             -2.7668  XXZ=              0.0004  XZZ=             -1.6904  YZZ=              2.2067
  YYZ=             -0.0001  XYZ=             -0.0003
 Hexadecapole moment (field-independent basis, Debye-Ang**3):
 XXXX=           -724.4601 YYYY=           -218.7929 ZZZZ=            -54.7568 XXXY=             -8.0639
 XXXZ=              0.0023 YYYX=             -0.1980 YYYZ=              0.0005 ZZZX=              0.0005
 ZZZY=              0.0003 XXYY=           -137.6557 XXZZ=           -115.4695 YYZZ=            -46.8526
 XXYZ=             -0.0008 YYXZ=              0.0006 ZZXY=              4.0356
 N-N= 2.195349683332D+02 E-N=-1.068923569966D+03  KE= 2.690914895558D+02
 Calling FoFJK, ICntrl=      2127 FMM=F ISym2X=0 I1Cent= 0 IOpClX= 0 NMat=1 NMatS=1 NMatT=0.
 ***** Axes restored to original set *****
 -------------------------------------------------------------------
 Center     Atomic                   Forces (Hartrees/Bohr)
 Number     Number              X              Y              Z
 -------------------------------------------------------------------
      1        6          -0.009477878   -0.002826979   -0.000867386
      2        6           0.010357883    0.002037236    0.001313225
      3        6           0.008410737    0.002341252    0.000845390
      4        6          -0.008224497   -0.001069826   -0.001191149
      5        6          -0.080893923   -0.021820392   -0.008486823
      6        1          -0.012805509   -0.007041688   -0.000304978
      7        1           0.003983546    0.000122711   -0.011782336
      8        1          -0.000114107    0.006563468    0.010547345
      9        1          -0.003735810    0.007196624    0.009586875
     10        1           0.014390404    0.001706017    0.002139074
     11        1           0.000312250    0.000820942   -0.012573470
     12        1          -0.001839568    0.001681919   -0.000823404
     13        8           0.069951410    0.004383625    0.011536117
     14        1           0.009685062    0.005905092    0.000061519
 -------------------------------------------------------------------
 Cartesian Forces:  Max     0.080893923 RMS     0.018051327

 GradGradGradGradGradGradGradGradGradGradGradGradGradGradGradGradGradGrad
 Berny optimization.
 Internal  Forces:  Max     0.070951182 RMS     0.011220594
 Search for a local minimum.
 Step number   1 out of a maximum of   64
 All quantities printed in internal units (Hartrees-Bohrs-Radians)
 Swaping is turned off.
 Second derivative matrix not updated -- first step.
 ITU=  0
 DSYEVD returned Info=          73 IAlg= 4 N=    36 NDim=    36 NE2=    18598601 trying DSYEV.
     Eigenvalues ---    0.00635   0.00768   0.01050   0.01050   0.01368
     Eigenvalues ---    0.01610   0.02814   0.07150   0.07318   0.07362
     Eigenvalues ---    0.07499   0.16000   0.16000   0.16000   0.16000
     Eigenvalues ---    0.16000   0.16000   0.16000   0.16000   0.22000
     Eigenvalues ---    0.22000   0.25000   0.25000   0.31360   0.32397
     Eigenvalues ---    0.32564   0.32574   0.32584   0.32587   0.32587
     Eigenvalues ---    0.32668   0.34739   0.35468   0.35621   0.56055
     Eigenvalues ---    0.79831
 Angle between quadratic step and forces=  34.93 degrees.
 Linear search not attempted -- option 19 set.
 Iteration  1 RMS(Cart)=  0.04250527 RMS(Int)=  0.00086144
 Iteration  2 RMS(Cart)=  0.00100475 RMS(Int)=  0.00012395
 Iteration  3 RMS(Cart)=  0.00000067 RMS(Int)=  0.00012395
 Variable       Old X    -DE/DX   Delta X   Delta X   Delta X     New X
                                 (Linear)    (Quad)   (Total)
    R1        2.85331  -0.00689   0.00000  -0.02196  -0.02196   2.83135
    R2        2.09807  -0.01219   0.00000  -0.03743  -0.03743   2.06064
    R3        2.09638  -0.01429   0.00000  -0.04374  -0.04374   2.05264
    R4        2.09823  -0.01224   0.00000  -0.03759  -0.03759   2.06065
    R5        2.83424  -0.00058   0.00000  -0.00179  -0.00179   2.83245
    R6        2.09783  -0.01425   0.00000  -0.04373  -0.04373   2.05410
    R7        2.09788  -0.01187   0.00000  -0.03642  -0.03642   2.06146
    R8        2.09783  -0.01185   0.00000  -0.03637  -0.03637   2.06147
    R9        2.54206  -0.00875   0.00000  -0.01561  -0.01561   2.52645
   R10        2.79400  -0.00980   0.00000  -0.02821  -0.02821   2.76580
   R11        2.04922   0.00070   0.00000   0.00199   0.00199   2.05121
   R12        2.38007  -0.07095   0.00000  -0.08888  -0.08888   2.29119
   R13        2.04678   0.00987   0.00000   0.02772   0.02772   2.07450
    A1        1.91893   0.00233   0.00000   0.01322   0.01326   1.93219
    A2        1.95459  -0.00495   0.00000  -0.02819  -0.02808   1.92650
    A3        1.91890   0.00233   0.00000   0.01324   0.01328   1.93218
    A4        1.88116   0.00175   0.00000   0.01357   0.01368   1.89483
    A5        1.90810  -0.00330   0.00000  -0.02600  -0.02601   1.88210
    A6        1.88108   0.00175   0.00000   0.01362   0.01372   1.89479
    A7        1.91340   0.00480   0.00000   0.03793   0.03748   1.95088
    A8        1.92350   0.00189   0.00000   0.00781   0.00757   1.93108
    A9        1.92349   0.00189   0.00000   0.00782   0.00758   1.93108
   A10        1.89344  -0.00204   0.00000  -0.00490  -0.00533   1.88811
   A11        1.89335  -0.00203   0.00000  -0.00483  -0.00526   1.88809
   A12        1.91614  -0.00463   0.00000  -0.04408  -0.04410   1.87204
   A13        2.11380   0.00888   0.00000   0.03553   0.03553   2.14932
   A14        2.09769  -0.00430   0.00000  -0.01719  -0.01719   2.08050
   A15        2.07170  -0.00458   0.00000  -0.01834  -0.01834   2.05336
   A16        2.15369   0.00236   0.00000   0.01071   0.01071   2.16440
   A17        2.04264   0.00141   0.00000   0.01081   0.01081   2.05346
   A18        2.08685  -0.00377   0.00000  -0.02153  -0.02153   2.06533
   A19        2.11509   0.00928   0.00000   0.04220   0.04220   2.15729
   A20        2.09813  -0.01037   0.00000  -0.05688  -0.05688   2.04125
   A21        2.06997   0.00108   0.00000   0.01468   0.01468   2.08465
    D1       -1.05075   0.00056   0.00000   0.00764   0.00759  -1.04316
    D2        2.09070   0.00056   0.00000   0.00780   0.00776   2.09846
    D3        3.14158   0.00000   0.00000  -0.00005  -0.00005   3.14153
    D4       -0.00016   0.00000   0.00000   0.00012   0.00012  -0.00003
    D5        1.05085  -0.00057   0.00000  -0.00779  -0.00775   1.04310
    D6       -2.09089  -0.00056   0.00000  -0.00763  -0.00758  -2.09847
    D7        3.14159   0.00000   0.00000   0.00003   0.00003  -3.14157
    D8       -0.00004   0.00000   0.00000   0.00005   0.00005   0.00001
    D9       -1.05869   0.00165   0.00000   0.02243   0.02259  -1.03611
   D10        2.08287   0.00165   0.00000   0.02245   0.02261   2.10548
   D11        1.05881  -0.00165   0.00000  -0.02247  -0.02263   1.03618
   D12       -2.08282  -0.00165   0.00000  -0.02245  -0.02261  -2.10542
   D13       -0.00009   0.00000   0.00000   0.00009   0.00009   0.00000
   D14        3.14153   0.00000   0.00000   0.00007   0.00007  -3.14158
   D15       -3.14155   0.00000   0.00000  -0.00007  -0.00007   3.14157
   D16        0.00008   0.00000   0.00000  -0.00009  -0.00009  -0.00001
   D17        0.00014  -0.00001   0.00000  -0.00070  -0.00069  -0.00055
   D18        3.14156   0.00000   0.00000   0.00051   0.00051  -3.14112
   D19       -3.14159  -0.00001   0.00000  -0.00053  -0.00053   3.14106
   D20       -0.00017   0.00001   0.00000   0.00067   0.00067   0.00050
         Item               Value     Threshold  Converged?
 Maximum Force            0.070951     0.000002     NO 
 RMS     Force            0.011221     0.000001     NO 
 Maximum Displacement     0.105044     0.000006     NO 
 RMS     Displacement     0.042652     0.000004     NO 
 Predicted change in Energy=-6.352884D-03
 GradGradGradGradGradGradGradGradGradGradGradGradGradGradGradGradGradGrad

                          Input orientation:                          
 ---------------------------------------------------------------------
 Center     Atomic      Atomic             Coordinates (Angstroms)
 Number     Number       Type             X           Y           Z
 ---------------------------------------------------------------------
      1          6           0       -1.206271   -0.881111    0.033680
      2          6           0        1.741455   -0.642939    0.504687
      3          6           0       -0.435275    0.383862   -0.190514
      4          6           0        0.880898    0.485054    0.021281
      5          6           0       -1.140638    1.575701   -0.663907
      6          1           0        2.780725   -0.341650    0.608003
      7          1           0        1.393792   -1.003959    1.473609
      8          1           0        1.698240   -1.484050   -0.188628
      9          1           0       -0.820708   -1.684228   -0.595138
     10          1           0       -2.255981   -0.731100   -0.201815
     11          1           0       -1.126052   -1.202538    1.072586
     12          1           0        1.361013    1.440232   -0.166685
     13          8           0       -2.331281    1.604891   -0.890935
     14          1           0       -0.539916    2.481834   -0.816124
 ---------------------------------------------------------------------
                    Distance matrix (angstroms):
                    1          2          3          4          5
     1  C    0.000000
     2  C    2.994605   0.000000
     3  C    1.498284   2.505150   0.000000
     4  C    2.494561   1.498869   1.336939   0.000000
     5  C    2.554771   3.820265   1.463597   2.396997   0.000000
     6  H    4.064112   1.086983   3.392146   2.153375   4.546545
     7  H    2.974695   1.090878   2.835637   2.142306   4.200827
     8  H    2.974751   1.090881   2.835663   2.142308   4.200856
     9  H    1.090444   2.976336   2.142260   2.825106   3.276312
    10  H    1.086210   4.060346   2.135003   3.371767   2.603622
    11  H    1.090447   2.976282   2.142255   2.825076   3.276313
    12  H    3.466948   2.221503   2.084019   1.085452   2.554181
    13  O    2.881104   4.856714   2.361427   3.521968   1.212446
    14  H    3.532081   4.088203   2.191763   2.589805   1.097777
                    6          7          8          9         10
     6  H    0.000000
     7  H    1.763948   0.000000
     8  H    1.763937   1.756760   0.000000
     9  H    4.027454   3.105880   2.559379   0.000000
    10  H    5.116237   4.025213   4.025292   1.767248   0.000000
    11  H    4.027390   2.559270   3.105887   1.762544   1.767227
    12  H    2.406413   2.943757   2.943744   3.834805   4.218834
    13  O    5.671723   5.125751   5.125605   3.631478   2.436680
    14  H    4.585505   4.597049   4.596883   4.181358   3.693941
                   11         12         13         14
    11  H    0.000000
    12  H    3.834777   0.000000
    13  O    3.631755   3.766256   0.000000
    14  H    4.181552   2.262795   1.995899   0.000000
 Stoichiometry    C5H8O
 Framework group  C1[X(C5H8O)]
 Deg. of freedom    36
 Full point group                 C1      NOp   1
 Largest Abelian subgroup         C1      NOp   1
 Largest concise Abelian subgroup C1      NOp   1
                         Standard orientation:                         
 ---------------------------------------------------------------------
 Center     Atomic      Atomic             Coordinates (Angstroms)
 Number     Number       Type             X           Y           Z
 ---------------------------------------------------------------------
      1          6           0       -0.056842    1.494881   -0.000045
      2          6           0        2.420470   -0.187554    0.000095
      3          6           0       -0.077891   -0.003256   -0.000097
      4          6           0        1.031106   -0.749937   -0.000035
      5          6           0       -1.365358   -0.699349   -0.000256
      6          1           0        3.173010   -0.971911    0.000105
      7          1           0        2.581839    0.438960   -0.878230
      8          1           0        2.581723    0.438840    0.878531
      9          1           0        0.462018    1.873157    0.881295
     10          1           0       -1.069640    1.887425   -0.000173
     11          1           0        0.462219    1.873207   -0.881249
     12          1           0        0.924854   -1.830176   -0.000090
     13          8           0       -2.435905   -0.130180    0.000208
     14          1           0       -1.337695   -1.796777    0.000174
 ---------------------------------------------------------------------
 Rotational constants (GHZ):      8.1727262      2.1906508      1.7652440
 Standard basis: 6-311+G(2df,2p) (5D, 7F)
 There are   276 symmetry adapted basis functions of A   symmetry.
 Integral buffers will be    131072 words long.
 Raffenetti 2 integral format.
 Two-electron integral symmetry is turned on.
   276 basis functions,   400 primitive gaussians,   306 cartesian basis functions
    23 alpha electrons       23 beta electrons
       nuclear repulsion energy       221.7226783575 Hartrees.
 NAtoms=   14 NActive=   14 NUniq=   14 SFac= 1.00D+00 NAtFMM=   50 NAOKFM=F Big=F
 One-electron integrals computed using PRISM.
 NBasis=   276 RedAO= T  NBF=   276
 NBsUse=   276 1.00D-06 NBFU=   276
 Initial guess read from the read-write file.
 B after Tr=     0.000000    0.000000    0.000000
         Rot=    1.000000    0.000000    0.000000    0.000000 Ang=   0.00 deg.
 Initial guess orbital symmetries:
       Occupied  (A) (A) (A) (A) (A) (A) (A) (A) (A) (A) (A) (A)
                 (A) (A) (A) (A) (A) (A) (A) (A) (A) (A) (A)
       Virtual   (A) (A) (A) (A) (A) (A) (A) (A) (A) (A) (A) (A)
                 (A) (A) (A) (A) (A) (A) (A) (A) (A) (A) (A) (A)
                 (A) (A) (A) (A) (A) (A) (A) (A) (A) (A) (A) (A)
                 (A) (A) (A) (A) (A) (A) (A) (A) (A) (A) (A) (A)
                 (A) (A) (A) (A) (A) (A) (A) (A) (A) (A) (A) (A)
                 (A) (A) (A) (A) (A) (A) (A) (A) (A) (A) (A) (A)
                 (A) (A) (A) (A) (A) (A) (A) (A) (A) (A) (A) (A)
                 (A) (A) (A) (A) (A) (A) (A) (A) (A) (A) (A) (A)
                 (A) (A) (A) (A) (A) (A) (A) (A) (A) (A) (A) (A)
                 (A) (A) (A) (A) (A) (A) (A) (A) (A) (A) (A) (A)
                 (A) (A) (A) (A) (A) (A) (A) (A) (A) (A) (A) (A)
                 (A) (A) (A) (A) (A) (A) (A) (A) (A) (A) (A) (A)
                 (A) (A) (A) (A) (A) (A) (A) (A) (A) (A) (A) (A)
                 (A) (A) (A) (A) (A) (A) (A) (A) (A) (A) (A) (A)
                 (A) (A) (A) (A) (A) (A) (A) (A) (A) (A) (A) (A)
                 (A) (A) (A) (A) (A) (A) (A) (A) (A) (A) (A) (A)
                 (A) (A) (A) (A) (A) (A) (A) (A) (A) (A) (A) (A)
                 (A) (A) (A) (A) (A) (A) (A) (A) (A) (A) (A) (A)
                 (A) (A) (A) (A) (A) (A) (A) (A) (A) (A) (A) (A)
                 (A) (A) (A) (A) (A) (A) (A) (A) (A) (A) (A) (A)
                 (A) (A) (A) (A) (A) (A) (A) (A) (A) (A) (A) (A)
                 (A)
 Harris functional with IExCor= 1009 diagonalized for initial guess.
 ExpMin= 4.38D-02 ExpMax= 8.59D+03 ExpMxC= 1.30D+03 IAcc=2 IRadAn=         0 AccDes= 0.00D+00
 HarFok:  IExCor= 1009 AccDes= 0.00D+00 IRadAn=         0 IDoV= 1
 ScaDFX=  1.000000  1.000000  1.000000  1.000000
 FoFCou: FMM=F IPFlag=           0 FMFlag=      100000 FMFlg1=           0
         NFxFlg=           0 DoJE=T BraDBF=F KetDBF=T FulRan=T
         Omega=  0.000000  0.000000  1.000000  0.000000  0.000000 ICntrl=     500 IOpCl=  0
         NMat0=    1 NMatS0=    1 NMatT0=    0 NMatD0=    1 NMtDS0=    0 NMtDT0=    0
         I1Cent=           4 NGrid=           0.
 Petite list used in FoFCou.
 Requested convergence on RMS density matrix=1.00D-08 within 128 cycles.
 Requested convergence on MAX density matrix=1.00D-06.
 Requested convergence on             energy=1.00D-06.
 No special actions if energy rises.
 SCF Done:  E(RM062X) =  -270.514983099     A.U. after   12 cycles
             Convg  =    0.3147D-08             -V/T =  2.0039
 Calling FoFJK, ICntrl=      2127 FMM=F ISym2X=0 I1Cent= 0 IOpClX= 0 NMat=1 NMatS=1 NMatT=0.
 ***** Axes restored to original set *****
 -------------------------------------------------------------------
 Center     Atomic                   Forces (Hartrees/Bohr)
 Number     Number              X              Y              Z
 -------------------------------------------------------------------
      1        6          -0.001208506    0.000689212   -0.000414732
      2        6           0.000113880    0.003053587   -0.000868593
      3        6           0.007672525   -0.004141789    0.002641927
      4        6           0.000543649   -0.000530206    0.000254723
      5        6          -0.020712759    0.000911335   -0.004185930
      6        1          -0.000162149   -0.000029772   -0.000020405
      7        1          -0.000558782   -0.000884497    0.000312786
      8        1          -0.000506308   -0.000966827    0.000028434
      9        1           0.000259277   -0.000687509    0.000390050
     10        1          -0.000397311    0.000521345   -0.000226745
     11        1           0.000309325   -0.000762909    0.000131091
     12        1          -0.000465212    0.000472780   -0.000219659
     13        8           0.009834402    0.000411653    0.001730462
     14        1           0.005277969    0.001943596    0.000446591
 -------------------------------------------------------------------
 Cartesian Forces:  Max     0.020712759 RMS     0.004022837

 GradGradGradGradGradGradGradGradGradGradGradGradGradGradGradGradGradGrad
 Berny optimization.
 Using GDIIS optimizer.
 Internal  Forces:  Max     0.009973969 RMS     0.002005261
 Search for a local minimum.
 Step number   2 out of a maximum of   64
 All quantities printed in internal units (Hartrees-Bohrs-Radians)
 Swaping is turned off.
 Update second derivatives using D2CorX and points    1    2
 DE= -7.26D-03 DEPred=-6.35D-03 R= 1.14D+00
 SS=  1.41D+00  RLast= 1.88D-01 DXNew= 5.0454D-01 5.6364D-01
 Trust test= 1.14D+00 RLast= 1.88D-01 DXMaxT set to 5.05D-01
 ITU=  1  0
     Eigenvalues ---    0.00635   0.00768   0.01050   0.01050   0.01374
     Eigenvalues ---    0.01593   0.02814   0.07138   0.07210   0.07241
     Eigenvalues ---    0.07275   0.14857   0.16000   0.16000   0.16000
     Eigenvalues ---    0.16000   0.16000   0.16000   0.16149   0.21282
     Eigenvalues ---    0.22022   0.24682   0.25000   0.31405   0.32158
     Eigenvalues ---    0.32556   0.32567   0.32577   0.32585   0.32648
     Eigenvalues ---    0.32932   0.35228   0.35469   0.37573   0.55993
     Eigenvalues ---    0.74178
 DIIS coeff's:      1.13395     -0.13395
 Cosine:  1.000 >  0.970
 Length:  1.000
 GDIIS step was calculated using  2 of the last  2 vectors.
 Iteration  1 RMS(Cart)=  0.01373470 RMS(Int)=  0.00020468
 Iteration  2 RMS(Cart)=  0.00020495 RMS(Int)=  0.00002007
 Iteration  3 RMS(Cart)=  0.00000005 RMS(Int)=  0.00002007
 Variable       Old X    -DE/DX   Delta X   Delta X   Delta X     New X
                                  (DIIS)     (GDIIS)  (Total)
    R1        2.83135   0.00071  -0.00294   0.00456   0.00162   2.83296
    R2        2.06064   0.00037  -0.00501   0.00466  -0.00035   2.06029
    R3        2.05264   0.00051  -0.00586   0.00569  -0.00017   2.05247
    R4        2.06065   0.00037  -0.00503   0.00467  -0.00036   2.06028
    R5        2.83245  -0.00169  -0.00024  -0.00576  -0.00600   2.82645
    R6        2.05410  -0.00017  -0.00586   0.00335  -0.00251   2.05159
    R7        2.06146   0.00075  -0.00488   0.00589   0.00101   2.06247
    R8        2.06147   0.00075  -0.00487   0.00588   0.00101   2.06247
    R9        2.52645  -0.00102  -0.00209  -0.00066  -0.00275   2.52370
   R10        2.76580   0.00601  -0.00378   0.02215   0.01837   2.78417
   R11        2.05121   0.00025   0.00027   0.00061   0.00088   2.05209
   R12        2.29119  -0.00997  -0.01191  -0.00618  -0.01808   2.27311
   R13        2.07450   0.00443   0.00371   0.01162   0.01533   2.08983
    A1        1.93219   0.00052   0.00178   0.00202   0.00380   1.93599
    A2        1.92650  -0.00072  -0.00376  -0.00163  -0.00537   1.92113
    A3        1.93218   0.00052   0.00178   0.00203   0.00382   1.93600
    A4        1.89483   0.00024   0.00183   0.00143   0.00328   1.89811
    A5        1.88210  -0.00082  -0.00348  -0.00541  -0.00890   1.87320
    A6        1.89479   0.00025   0.00184   0.00148   0.00334   1.89813
    A7        1.95088   0.00015   0.00502  -0.00023   0.00471   1.95559
    A8        1.93108   0.00011   0.00101  -0.00092   0.00005   1.93113
    A9        1.93108   0.00011   0.00102  -0.00090   0.00007   1.93114
   A10        1.88811   0.00016  -0.00071   0.00366   0.00288   1.89100
   A11        1.88809   0.00016  -0.00070   0.00367   0.00289   1.89099
   A12        1.87204  -0.00074  -0.00591  -0.00529  -0.01121   1.86083
   A13        2.14932   0.00223   0.00476   0.00691   0.01167   2.16099
   A14        2.08050  -0.00107  -0.00230  -0.00331  -0.00562   2.07488
   A15        2.05336  -0.00116  -0.00246  -0.00360  -0.00605   2.04731
   A16        2.16440  -0.00026   0.00143  -0.00230  -0.00086   2.16354
   A17        2.05346   0.00080   0.00145   0.00442   0.00587   2.05933
   A18        2.06533  -0.00054  -0.00288  -0.00213  -0.00501   2.06032
   A19        2.15729   0.00344   0.00565   0.01394   0.01958   2.17687
   A20        2.04125  -0.00535  -0.00762  -0.02945  -0.03708   2.00417
   A21        2.08465   0.00191   0.00197   0.01552   0.01747   2.10213
    D1       -1.04316   0.00018   0.00102   0.00217   0.00317  -1.03999
    D2        2.09846   0.00017   0.00104   0.00198   0.00301   2.10146
    D3        3.14153   0.00000  -0.00001   0.00013   0.00012  -3.14153
    D4       -0.00003   0.00000   0.00002  -0.00006  -0.00005  -0.00008
    D5        1.04310  -0.00018  -0.00104  -0.00198  -0.00301   1.04009
    D6       -2.09847  -0.00018  -0.00102  -0.00217  -0.00318  -2.10165
    D7       -3.14157   0.00000   0.00000  -0.00004  -0.00003   3.14158
    D8        0.00001   0.00000   0.00001   0.00005   0.00006   0.00007
    D9       -1.03611   0.00038   0.00303   0.00383   0.00687  -1.02923
   D10        2.10548   0.00039   0.00303   0.00391   0.00696   2.11244
   D11        1.03618  -0.00039  -0.00303  -0.00391  -0.00697   1.02921
   D12       -2.10542  -0.00039  -0.00303  -0.00383  -0.00688  -2.11230
   D13        0.00000   0.00000   0.00001   0.00008   0.00010   0.00010
   D14       -3.14158   0.00000   0.00001   0.00000   0.00001  -3.14157
   D15        3.14157   0.00000  -0.00001   0.00027   0.00026  -3.14136
   D16       -0.00001   0.00000  -0.00001   0.00018   0.00017   0.00016
   D17       -0.00055   0.00004  -0.00009   0.00429   0.00420   0.00365
   D18       -3.14112  -0.00004   0.00007  -0.00405  -0.00398   3.13809
   D19        3.14106   0.00004  -0.00007   0.00411   0.00404  -3.13808
   D20        0.00050  -0.00004   0.00009  -0.00423  -0.00414  -0.00364
         Item               Value     Threshold  Converged?
 Maximum Force            0.009974     0.000002     NO 
 RMS     Force            0.002005     0.000001     NO 
 Maximum Displacement     0.054861     0.000006     NO 
 RMS     Displacement     0.013757     0.000004     NO 
 Predicted change in Energy=-3.802093D-04
 GradGradGradGradGradGradGradGradGradGradGradGradGradGradGradGradGradGrad

                          Input orientation:                          
 ---------------------------------------------------------------------
 Center     Atomic      Atomic             Coordinates (Angstroms)
 Number     Number       Type             X           Y           Z
 ---------------------------------------------------------------------
      1          6           0       -1.211785   -0.888033    0.034393
      2          6           0        1.745881   -0.633570    0.502965
      3          6           0       -0.435226    0.374743   -0.188711
      4          6           0        0.879143    0.485710    0.020188
      5          6           0       -1.147135    1.572989   -0.666272
      6          1           0        2.783334   -0.330539    0.605507
      7          1           0        1.397835   -1.000079    1.470286
      8          1           0        1.701460   -1.479209   -0.185587
      9          1           0       -0.829325   -1.695800   -0.590025
     10          1           0       -2.259351   -0.728476   -0.203950
     11          1           0       -1.134107   -1.214804    1.071622
     12          1           0        1.347386    1.446452   -0.172011
     13          8           0       -2.327226    1.623733   -0.893704
     14          1           0       -0.510885    2.466882   -0.804602
 ---------------------------------------------------------------------
                    Distance matrix (angstroms):
                    1          2          3          4          5
     1  C    0.000000
     2  C    3.005345   0.000000
     3  C    1.499140   2.500468   0.000000
     4  C    2.501869   1.495692   1.335485   0.000000
     5  C    2.559636   3.821722   1.473320   2.399835   0.000000
     6  H    4.074057   1.085657   3.389297   2.152859   4.548564
     7  H    2.980681   1.091411   2.828873   2.139952   4.202670
     8  H    2.980751   1.091413   2.828882   2.139966   4.202555
     9  H    1.090257   2.992432   2.145580   2.837289   3.285087
    10  H    1.086122   4.068245   2.131843   3.372630   2.597596
    11  H    1.090256   2.992581   2.145585   2.837330   3.285154
    12  H    3.470126   2.222809   2.080034   1.085917   2.546162
    13  O    2.900783   4.861718   2.374165   3.522939   1.202878
    14  H    3.528544   4.051608   2.182222   2.556854   1.105891
                    6          7          8          9         10
     6  H    0.000000
     7  H    1.765145   0.000000
     8  H    1.765141   1.750334   0.000000
     9  H    4.042838   3.112740   2.572034   0.000000
    10  H    5.122718   4.031357   4.031372   1.769107   0.000000
    11  H    4.042961   2.572114   3.113025   1.756507   1.769116
    12  H    2.413334   2.947066   2.947040   3.845329   4.211874
    13  O    5.673151   5.133120   5.134199   3.654481   2.452195
    14  H    4.545971   4.564882   4.566102   4.180355   3.691643
                   11         12         13         14
    11  H    0.000000
    12  H    3.845350   0.000000
    13  O    3.652853   3.749006   0.000000
    14  H    4.178928   2.212379   2.004479   0.000000
 Stoichiometry    C5H8O
 Framework group  C1[X(C5H8O)]
 Deg. of freedom    36
 Full point group                 C1      NOp   1
 Largest Abelian subgroup         C1      NOp   1
 Largest concise Abelian subgroup C1      NOp   1
                         Standard orientation:                         
 ---------------------------------------------------------------------
 Center     Atomic      Atomic             Coordinates (Angstroms)
 Number     Number       Type             X           Y           Z
 ---------------------------------------------------------------------
      1          6           0        0.054863    1.505250   -0.000249
      2          6           0       -2.420450   -0.199133    0.000587
      3          6           0        0.071572    0.006203   -0.000631
      4          6           0       -1.029638   -0.749347   -0.000205
      5          6           0        1.369487   -0.690997   -0.001709
      6          1           0       -3.169569   -0.984927    0.000822
      7          1           0       -2.584171    0.431829    0.875950
      8          1           0       -2.585063    0.432143   -0.874384
      9          1           0       -0.465459    1.889066   -0.878094
     10          1           0        1.070792    1.889369   -0.000783
     11          1           0       -0.464390    1.888638    0.878413
     12          1           0       -0.908465   -1.828482   -0.000522
     13          8           0        2.440959   -0.144322    0.001282
     14          1           0        1.303658   -1.794922    0.001583
 ---------------------------------------------------------------------
 Rotational constants (GHZ):      8.1145110      2.1873653      1.7601158
 Standard basis: 6-311+G(2df,2p) (5D, 7F)
 There are   276 symmetry adapted basis functions of A   symmetry.
 Integral buffers will be    131072 words long.
 Raffenetti 2 integral format.
 Two-electron integral symmetry is turned on.
   276 basis functions,   400 primitive gaussians,   306 cartesian basis functions
    23 alpha electrons       23 beta electrons
       nuclear repulsion energy       221.6186430888 Hartrees.
 NAtoms=   14 NActive=   14 NUniq=   14 SFac= 1.00D+00 NAtFMM=   50 NAOKFM=F Big=F
 One-electron integrals computed using PRISM.
 NBasis=   276 RedAO= T  NBF=   276
 NBsUse=   276 1.00D-06 NBFU=   276
 Initial guess read from the read-write file.
 B after Tr=     0.000000    0.000000    0.000000
         Rot=    1.000000    0.000000    0.000000    0.000000 Ang=   0.00 deg.
 Initial guess orbital symmetries:
       Occupied  (A) (A) (A) (A) (A) (A) (A) (A) (A) (A) (A) (A)
                 (A) (A) (A) (A) (A) (A) (A) (A) (A) (A) (A)
       Virtual   (A) (A) (A) (A) (A) (A) (A) (A) (A) (A) (A) (A)
                 (A) (A) (A) (A) (A) (A) (A) (A) (A) (A) (A) (A)
                 (A) (A) (A) (A) (A) (A) (A) (A) (A) (A) (A) (A)
                 (A) (A) (A) (A) (A) (A) (A) (A) (A) (A) (A) (A)
                 (A) (A) (A) (A) (A) (A) (A) (A) (A) (A) (A) (A)
                 (A) (A) (A) (A) (A) (A) (A) (A) (A) (A) (A) (A)
                 (A) (A) (A) (A) (A) (A) (A) (A) (A) (A) (A) (A)
                 (A) (A) (A) (A) (A) (A) (A) (A) (A) (A) (A) (A)
                 (A) (A) (A) (A) (A) (A) (A) (A) (A) (A) (A) (A)
                 (A) (A) (A) (A) (A) (A) (A) (A) (A) (A) (A) (A)
                 (A) (A) (A) (A) (A) (A) (A) (A) (A) (A) (A) (A)
                 (A) (A) (A) (A) (A) (A) (A) (A) (A) (A) (A) (A)
                 (A) (A) (A) (A) (A) (A) (A) (A) (A) (A) (A) (A)
                 (A) (A) (A) (A) (A) (A) (A) (A) (A) (A) (A) (A)
                 (A) (A) (A) (A) (A) (A) (A) (A) (A) (A) (A) (A)
                 (A) (A) (A) (A) (A) (A) (A) (A) (A) (A) (A) (A)
                 (A) (A) (A) (A) (A) (A) (A) (A) (A) (A) (A) (A)
                 (A) (A) (A) (A) (A) (A) (A) (A) (A) (A) (A) (A)
                 (A) (A) (A) (A) (A) (A) (A) (A) (A) (A) (A) (A)
                 (A) (A) (A) (A) (A) (A) (A) (A) (A) (A) (A) (A)
                 (A) (A) (A) (A) (A) (A) (A) (A) (A) (A) (A) (A)
                 (A)
 Harris functional with IExCor= 1009 diagonalized for initial guess.
 ExpMin= 4.38D-02 ExpMax= 8.59D+03 ExpMxC= 1.30D+03 IAcc=2 IRadAn=         0 AccDes= 0.00D+00
 HarFok:  IExCor= 1009 AccDes= 0.00D+00 IRadAn=         0 IDoV= 1
 ScaDFX=  1.000000  1.000000  1.000000  1.000000
 FoFCou: FMM=F IPFlag=           0 FMFlag=      100000 FMFlg1=           0
         NFxFlg=           0 DoJE=T BraDBF=F KetDBF=T FulRan=T
         Omega=  0.000000  0.000000  1.000000  0.000000  0.000000 ICntrl=     500 IOpCl=  0
         NMat0=    1 NMatS0=    1 NMatT0=    0 NMatD0=    1 NMtDS0=    0 NMtDT0=    0
         I1Cent=           4 NGrid=           0.
 Petite list used in FoFCou.
 Requested convergence on RMS density matrix=1.00D-08 within 128 cycles.
 Requested convergence on MAX density matrix=1.00D-06.
 Requested convergence on             energy=1.00D-06.
 No special actions if energy rises.
 SCF Done:  E(RM062X) =  -270.515388709     A.U. after   14 cycles
             Convg  =    0.3878D-08             -V/T =  2.0038
 Calling FoFJK, ICntrl=      2127 FMM=F ISym2X=0 I1Cent= 0 IOpClX= 0 NMat=1 NMatS=1 NMatT=0.
 ***** Axes restored to original set *****
 -------------------------------------------------------------------
 Center     Atomic                   Forces (Hartrees/Bohr)
 Number     Number              X              Y              Z
 -------------------------------------------------------------------
      1        6           0.000261831    0.000842707   -0.000209314
      2        6          -0.000428011    0.000452512   -0.000175485
      3        6           0.001529461   -0.001976305    0.000574520
      4        6          -0.000065182    0.000386915   -0.000138747
      5        6          -0.000510759    0.001855393    0.000254672
      6        1           0.000540566    0.000158095    0.000057124
      7        1          -0.000171732   -0.000207834    0.000507777
      8        1          -0.000023139   -0.000446587   -0.000353012
      9        1           0.000149379   -0.000454594   -0.000366694
     10        1          -0.000672568    0.000042759   -0.000127939
     11        1          -0.000027111   -0.000175817    0.000571413
     12        1          -0.000097435   -0.000004100   -0.000034495
     13        8          -0.001406314   -0.000561529   -0.000401976
     14        1           0.000921014    0.000088387   -0.000157844
 -------------------------------------------------------------------
 Cartesian Forces:  Max     0.001976305 RMS     0.000641276

 GradGradGradGradGradGradGradGradGradGradGradGradGradGradGradGradGradGrad
 Berny optimization.
 Using GDIIS optimizer.
 Internal  Forces:  Max     0.001704798 RMS     0.000425860
 Search for a local minimum.
 Step number   3 out of a maximum of   64
 All quantities printed in internal units (Hartrees-Bohrs-Radians)
 Swaping is turned off.
 Update second derivatives using D2CorX and points    1    2    3
 DE= -4.06D-04 DEPred=-3.80D-04 R= 1.07D+00
 SS=  1.41D+00  RLast= 6.25D-02 DXNew= 8.4853D-01 1.8744D-01
 Trust test= 1.07D+00 RLast= 6.25D-02 DXMaxT set to 5.05D-01
 ITU=  1  1  0
     Eigenvalues ---    0.00635   0.00768   0.01050   0.01060   0.01376
     Eigenvalues ---    0.01587   0.02814   0.07080   0.07218   0.07246
     Eigenvalues ---    0.07275   0.13627   0.16000   0.16000   0.16000
     Eigenvalues ---    0.16000   0.16000   0.16014   0.16109   0.21977
     Eigenvalues ---    0.22033   0.24260   0.25017   0.31380   0.32373
     Eigenvalues ---    0.32544   0.32568   0.32580   0.32586   0.32648
     Eigenvalues ---    0.32929   0.34646   0.35470   0.36187   0.55966
     Eigenvalues ---    0.80616
 DIIS coeff's:      1.12862     -0.15816      0.02954
 Cosine:  0.999 >  0.840
 Length:  1.066
 GDIIS step was calculated using  3 of the last  3 vectors.
 Iteration  1 RMS(Cart)=  0.00728904 RMS(Int)=  0.00017419
 Iteration  2 RMS(Cart)=  0.00014109 RMS(Int)=  0.00011423
 Iteration  3 RMS(Cart)=  0.00000003 RMS(Int)=  0.00011423
 Variable       Old X    -DE/DX   Delta X   Delta X   Delta X     New X
                                  (DIIS)     (GDIIS)  (Total)
    R1        2.83296  -0.00009   0.00086  -0.00134  -0.00049   2.83248
    R2        2.06029   0.00060   0.00106   0.00057   0.00163   2.06192
    R3        2.05247   0.00068   0.00127   0.00059   0.00186   2.05433
    R4        2.06028   0.00059   0.00106   0.00055   0.00162   2.06190
    R5        2.82645   0.00000  -0.00072   0.00046  -0.00026   2.82619
    R6        2.05159   0.00057   0.00097   0.00039   0.00136   2.05296
    R7        2.06247   0.00058   0.00121   0.00041   0.00162   2.06409
    R8        2.06247   0.00057   0.00120   0.00040   0.00160   2.06407
    R9        2.52370  -0.00024   0.00011  -0.00086  -0.00075   2.52295
   R10        2.78417   0.00170   0.00320   0.00273   0.00592   2.79009
   R11        2.05209  -0.00004   0.00005  -0.00012  -0.00007   2.05202
   R12        2.27311   0.00143   0.00030   0.00001   0.00031   2.27342
   R13        2.08983   0.00062   0.00115   0.00172   0.00287   2.09271
    A1        1.93599   0.00005   0.00010   0.00062   0.00072   1.93671
    A2        1.92113   0.00005   0.00014  -0.00045  -0.00031   1.92082
    A3        1.93600   0.00004   0.00010   0.00053   0.00063   1.93663
    A4        1.89811  -0.00007   0.00002  -0.00031  -0.00030   1.89781
    A5        1.87320   0.00000  -0.00038   0.00002  -0.00036   1.87284
    A6        1.89813  -0.00007   0.00002  -0.00043  -0.00041   1.89772
    A7        1.95559   0.00000  -0.00050   0.00109   0.00061   1.95620
    A8        1.93113   0.00002  -0.00022   0.00046   0.00025   1.93138
    A9        1.93114   0.00000  -0.00022   0.00031   0.00010   1.93125
   A10        1.89100  -0.00001   0.00053  -0.00055  -0.00001   1.89099
   A11        1.89099   0.00000   0.00053  -0.00050   0.00004   1.89103
   A12        1.86083  -0.00002  -0.00014  -0.00094  -0.00108   1.85974
   A13        2.16099   0.00067   0.00045   0.00341   0.00386   2.16486
   A14        2.07488  -0.00050  -0.00021  -0.00243  -0.00265   2.07223
   A15        2.04731  -0.00017  -0.00024  -0.00098  -0.00122   2.04610
   A16        2.16354  -0.00011  -0.00043  -0.00007  -0.00050   2.16304
   A17        2.05933   0.00015   0.00044   0.00087   0.00131   2.06064
   A18        2.06032  -0.00004  -0.00001  -0.00080  -0.00081   2.05951
   A19        2.17687  -0.00040   0.00127  -0.00198  -0.00120   2.17567
   A20        2.00417  -0.00047  -0.00309  -0.00257  -0.00614   1.99803
   A21        2.10213   0.00087   0.00181   0.00491   0.00624   2.10837
    D1       -1.03999  -0.00003   0.00018  -0.00100  -0.00082  -1.04081
    D2        2.10146  -0.00002   0.00016   0.00012   0.00028   2.10175
    D3       -3.14153  -0.00001   0.00002  -0.00072  -0.00070   3.14095
    D4       -0.00008   0.00000  -0.00001   0.00041   0.00040   0.00032
    D5        1.04009   0.00002  -0.00016  -0.00023  -0.00039   1.03970
    D6       -2.10165   0.00004  -0.00018   0.00090   0.00071  -2.10093
    D7        3.14158   0.00000   0.00000   0.00035   0.00034  -3.14126
    D8        0.00007   0.00000   0.00001  -0.00022  -0.00022  -0.00015
    D9       -1.02923   0.00001   0.00022   0.00071   0.00092  -1.02831
   D10        2.11244   0.00000   0.00023   0.00014   0.00036   2.11280
   D11        1.02921   0.00000  -0.00023   0.00003  -0.00019   1.02902
   D12       -2.11230   0.00000  -0.00022  -0.00055  -0.00076  -2.11306
   D13        0.00010  -0.00002   0.00001  -0.00073  -0.00072  -0.00062
   D14       -3.14157  -0.00001   0.00000  -0.00016  -0.00016   3.14146
   D15       -3.14136  -0.00004   0.00004  -0.00184  -0.00180   3.14003
   D16        0.00016  -0.00003   0.00002  -0.00126  -0.00124  -0.00108
   D17        0.00365  -0.00028   0.00056  -0.03007  -0.02950  -0.02586
   D18        3.13809   0.00026  -0.00053   0.02873   0.02819  -3.11690
   D19       -3.13808  -0.00027   0.00054  -0.02902  -0.02848   3.11663
   D20       -0.00364   0.00028  -0.00055   0.02978   0.02922   0.02558
         Item               Value     Threshold  Converged?
 Maximum Force            0.001705     0.000002     NO 
 RMS     Force            0.000426     0.000001     NO 
 Maximum Displacement     0.022914     0.000006     NO 
 RMS     Displacement     0.007314     0.000004     NO 
 Predicted change in Energy=-2.940422D-05
 GradGradGradGradGradGradGradGradGradGradGradGradGradGradGradGradGradGrad

                          Input orientation:                          
 ---------------------------------------------------------------------
 Center     Atomic      Atomic             Coordinates (Angstroms)
 Number     Number       Type             X           Y           Z
 ---------------------------------------------------------------------
      1          6           0       -1.213760   -0.887626    0.035875
      2          6           0        1.747885   -0.632572    0.501851
      3          6           0       -0.435190    0.374409   -0.182626
      4          6           0        0.879006    0.486960    0.023963
      5          6           0       -1.150427    1.576916   -0.654146
      6          1           0        2.785945   -0.328900    0.603993
      7          1           0        1.401411   -1.003420    1.469051
      8          1           0        1.703114   -1.477040   -0.189456
      9          1           0       -0.834180   -1.694373   -0.593112
     10          1           0       -2.262257   -0.724448   -0.200398
     11          1           0       -1.135719   -1.219914    1.072223
     12          1           0        1.344372    1.449473   -0.166143
     13          8           0       -2.326144    1.618988   -0.905598
     14          1           0       -0.504056    2.461547   -0.815377
 ---------------------------------------------------------------------
                    Distance matrix (angstroms):
                    1          2          3          4          5
     1  C    0.000000
     2  C    3.008908   0.000000
     3  C    1.498882   2.499667   0.000000
     4  C    2.503857   1.495554   1.335086   0.000000
     5  C    2.560099   3.823399   1.476455   2.401339   0.000000
     6  H    4.078305   1.086378   3.389560   2.153713   4.550831
     7  H    2.984380   1.092267   2.828348   2.140659   4.204518
     8  H    2.984349   1.092261   2.828472   2.140561   4.205387
     9  H    1.091121   2.998904   2.146521   2.841478   3.287106
    10  H    1.087105   4.072203   2.132130   3.374223   2.595829
    11  H    1.091111   2.997577   2.146451   2.841018   3.286765
    12  H    3.470862   2.223500   2.079152   1.085881   2.545271
    13  O    2.899463   4.862937   2.376421   3.523997   1.203042
    14  H    3.527785   4.047209   2.182031   2.552712   1.107412
                    6          7          8          9         10
     6  H    0.000000
     7  H    1.766419   0.000000
     8  H    1.766440   1.750995   0.000000
     9  H    4.050047   3.118942   2.578377   0.000000
    10  H    5.127167   4.035759   4.036172   1.770419   0.000000
    11  H    4.048776   2.577086   3.117197   1.757663   1.770350
    12  H    2.415337   2.948525   2.948512   3.848656   4.211280
    13  O    5.675085   5.139130   5.131586   3.647186   2.448077
    14  H    4.541509   4.566772   4.558052   4.174931   3.690533
                   11         12         13         14
    11  H    0.000000
    12  H    3.848380   0.000000
    13  O    3.658996   3.748095   0.000000
    14  H    4.185114   2.205103   2.009490   0.000000
 Stoichiometry    C5H8O
 Framework group  C1[X(C5H8O)]
 Deg. of freedom    36
 Full point group                 C1      NOp   1
 Largest Abelian subgroup         C1      NOp   1
 Largest concise Abelian subgroup C1      NOp   1
                         Standard orientation:                         
 ---------------------------------------------------------------------
 Center     Atomic      Atomic             Coordinates (Angstroms)
 Number     Number       Type             X           Y           Z
 ---------------------------------------------------------------------
      1          6           0       -0.058125    1.505865   -0.001797
      2          6           0        2.421530   -0.198484    0.004204
      3          6           0       -0.069659    0.007029   -0.004509
      4          6           0        1.030901   -0.748757   -0.001501
      5          6           0       -1.369760   -0.692684   -0.012135
      6          1           0        3.171685   -0.984285    0.005573
      7          1           0        2.588878    0.435042   -0.869688
      8          1           0        2.582664    0.432218    0.881293
      9          1           0        0.456455    1.890732    0.880037
     10          1           0       -1.076405    1.886508   -0.005801
     11          1           0        0.464388    1.893758   -0.877605
     12          1           0        0.908411   -1.827705   -0.003774
     13          8           0       -2.441119   -0.145833    0.009155
     14          1           0       -1.296434   -1.797420    0.011149
 ---------------------------------------------------------------------
 Rotational constants (GHZ):      8.1050026      2.1860925      1.7589295
 Standard basis: 6-311+G(2df,2p) (5D, 7F)
 There are   276 symmetry adapted basis functions of A   symmetry.
 Integral buffers will be    131072 words long.
 Raffenetti 2 integral format.
 Two-electron integral symmetry is turned on.
   276 basis functions,   400 primitive gaussians,   306 cartesian basis functions
    23 alpha electrons       23 beta electrons
       nuclear repulsion energy       221.5314367937 Hartrees.
 NAtoms=   14 NActive=   14 NUniq=   14 SFac= 1.00D+00 NAtFMM=   50 NAOKFM=F Big=F
 One-electron integrals computed using PRISM.
 NBasis=   276 RedAO= T  NBF=   276
 NBsUse=   276 1.00D-06 NBFU=   276
 Initial guess read from the read-write file.
 B after Tr=     0.000000    0.000000    0.000000
         Rot=    1.000000    0.000000    0.000000    0.000000 Ang=   0.00 deg.
 Initial guess orbital symmetries:
       Occupied  (A) (A) (A) (A) (A) (A) (A) (A) (A) (A) (A) (A)
                 (A) (A) (A) (A) (A) (A) (A) (A) (A) (A) (A)
       Virtual   (A) (A) (A) (A) (A) (A) (A) (A) (A) (A) (A) (A)
                 (A) (A) (A) (A) (A) (A) (A) (A) (A) (A) (A) (A)
                 (A) (A) (A) (A) (A) (A) (A) (A) (A) (A) (A) (A)
                 (A) (A) (A) (A) (A) (A) (A) (A) (A) (A) (A) (A)
                 (A) (A) (A) (A) (A) (A) (A) (A) (A) (A) (A) (A)
                 (A) (A) (A) (A) (A) (A) (A) (A) (A) (A) (A) (A)
                 (A) (A) (A) (A) (A) (A) (A) (A) (A) (A) (A) (A)
                 (A) (A) (A) (A) (A) (A) (A) (A) (A) (A) (A) (A)
                 (A) (A) (A) (A) (A) (A) (A) (A) (A) (A) (A) (A)
                 (A) (A) (A) (A) (A) (A) (A) (A) (A) (A) (A) (A)
                 (A) (A) (A) (A) (A) (A) (A) (A) (A) (A) (A) (A)
                 (A) (A) (A) (A) (A) (A) (A) (A) (A) (A) (A) (A)
                 (A) (A) (A) (A) (A) (A) (A) (A) (A) (A) (A) (A)
                 (A) (A) (A) (A) (A) (A) (A) (A) (A) (A) (A) (A)
                 (A) (A) (A) (A) (A) (A) (A) (A) (A) (A) (A) (A)
                 (A) (A) (A) (A) (A) (A) (A) (A) (A) (A) (A) (A)
                 (A) (A) (A) (A) (A) (A) (A) (A) (A) (A) (A) (A)
                 (A) (A) (A) (A) (A) (A) (A) (A) (A) (A) (A) (A)
                 (A) (A) (A) (A) (A) (A) (A) (A) (A) (A) (A) (A)
                 (A) (A) (A) (A) (A) (A) (A) (A) (A) (A) (A) (A)
                 (A) (A) (A) (A) (A) (A) (A) (A) (A) (A) (A) (A)
                 (A)
 Harris functional with IExCor= 1009 diagonalized for initial guess.
 ExpMin= 4.38D-02 ExpMax= 8.59D+03 ExpMxC= 1.30D+03 IAcc=2 IRadAn=         0 AccDes= 0.00D+00
 HarFok:  IExCor= 1009 AccDes= 0.00D+00 IRadAn=         0 IDoV= 1
 ScaDFX=  1.000000  1.000000  1.000000  1.000000
 FoFCou: FMM=F IPFlag=           0 FMFlag=      100000 FMFlg1=           0
         NFxFlg=           0 DoJE=T BraDBF=F KetDBF=T FulRan=T
         Omega=  0.000000  0.000000  1.000000  0.000000  0.000000 ICntrl=     500 IOpCl=  0
         NMat0=    1 NMatS0=    1 NMatT0=    0 NMatD0=    1 NMtDS0=    0 NMtDT0=    0
         I1Cent=           4 NGrid=           0.
 Petite list used in FoFCou.
 Requested convergence on RMS density matrix=1.00D-08 within 128 cycles.
 Requested convergence on MAX density matrix=1.00D-06.
 Requested convergence on             energy=1.00D-06.
 No special actions if energy rises.
 SCF Done:  E(RM062X) =  -270.515307884     A.U. after   14 cycles
             Convg  =    0.4022D-08             -V/T =  2.0039
 Calling FoFJK, ICntrl=      2127 FMM=F ISym2X=0 I1Cent= 0 IOpClX= 0 NMat=1 NMatS=1 NMatT=0.
 ***** Axes restored to original set *****
 -------------------------------------------------------------------
 Center     Atomic                   Forces (Hartrees/Bohr)
 Number     Number              X              Y              Z
 -------------------------------------------------------------------
      1        6           0.000078959    0.000208924    0.000042283
      2        6          -0.000074162   -0.000192590   -0.000200096
      3        6          -0.000332225    0.000045929    0.001893125
      4        6          -0.000035124    0.000188730    0.000040598
      5        6           0.001748996   -0.001296626   -0.005590872
      6        1           0.000087918    0.000018992   -0.000015081
      7        1          -0.000014848    0.000073117    0.000041521
      8        1           0.000068390   -0.000022806   -0.000051402
      9        1          -0.000034289   -0.000007783   -0.000067389
     10        1          -0.000024696   -0.000052062   -0.000045986
     11        1          -0.000025732   -0.000027021    0.000077197
     12        1           0.000002175    0.000000117    0.000127151
     13        8          -0.000774065    0.000600359    0.001866244
     14        1          -0.000671298    0.000462721    0.001882708
 -------------------------------------------------------------------
 Cartesian Forces:  Max     0.005590872 RMS     0.001075454

 GradGradGradGradGradGradGradGradGradGradGradGradGradGradGradGradGradGrad
 Berny optimization.
 Using GDIIS optimizer.
 Internal  Forces:  Max     0.001984275 RMS     0.000537848
 Search for a local minimum.
 Step number   4 out of a maximum of   64
 All quantities printed in internal units (Hartrees-Bohrs-Radians)
 Swaping is turned off.
 Update second derivatives using D2CorX and points    1    2    3    4
 DE=  8.08D-05 DEPred=-2.94D-05 R=-2.75D+00
 Trust test=-2.75D+00 RLast= 5.92D-02 DXMaxT set to 2.52D-01
 ITU= -1  1  1  0
     Eigenvalues ---    0.00635   0.00768   0.01050   0.01376   0.01586
     Eigenvalues ---    0.02792   0.04535   0.07072   0.07220   0.07226
     Eigenvalues ---    0.07490   0.09039   0.15999   0.16000   0.16000
     Eigenvalues ---    0.16000   0.16006   0.16015   0.16104   0.21091
     Eigenvalues ---    0.22008   0.23471   0.25011   0.30382   0.31778
     Eigenvalues ---    0.32470   0.32568   0.32578   0.32586   0.32628
     Eigenvalues ---    0.32651   0.33550   0.35469   0.35607   0.55874
     Eigenvalues ---    0.74650
 DIIS coeff's:      0.17562      0.99263     -0.20905      0.04079
 Cosine:  0.978 >  0.710
 Length:  0.955
 GDIIS step was calculated using  4 of the last  4 vectors.
 Iteration  1 RMS(Cart)=  0.00606594 RMS(Int)=  0.00010047
 Iteration  2 RMS(Cart)=  0.00010694 RMS(Int)=  0.00001132
 Iteration  3 RMS(Cart)=  0.00000001 RMS(Int)=  0.00001132
 Variable       Old X    -DE/DX   Delta X   Delta X   Delta X     New X
                                  (DIIS)     (GDIIS)  (Total)
    R1        2.83248  -0.00010   0.00157  -0.00169  -0.00012   2.83236
    R2        2.06192   0.00003   0.00012   0.00015   0.00027   2.06220
    R3        2.05433   0.00003   0.00022   0.00008   0.00030   2.05463
    R4        2.06190   0.00008   0.00014   0.00016   0.00030   2.06220
[...]
     11        1          -0.000002000    0.000001343   -0.000000731
     12        1           0.000001929   -0.000001721    0.000000856
     13        8           0.000002575    0.000003102   -0.000000965
     14        1           0.000003565    0.000000701    0.000000068
 -------------------------------------------------------------------
 Cartesian Forces:  Max     0.000003565 RMS     0.000001680

 GradGradGradGradGradGradGradGradGradGradGradGradGradGradGradGradGradGrad
 Berny optimization.
 Internal  Forces:  Max     0.000000064 RMS     0.000000016
 Search for a local minimum.
 Step number   1 out of a maximum of    2
 All quantities printed in internal units (Hartrees-Bohrs-Radians)
 Swaping is turned off.
 Second derivative matrix not updated -- analytic derivatives used.
 ITU=  0
     Eigenvalues ---    0.00024   0.00075   0.00755   0.01532   0.02059
     Eigenvalues ---    0.03112   0.05492   0.05666   0.05674   0.05839
     Eigenvalues ---    0.07674   0.11544   0.12009   0.12235   0.13824
     Eigenvalues ---    0.14019   0.14408   0.14460   0.15659   0.17981
     Eigenvalues ---    0.21005   0.22354   0.23575   0.31440   0.32557
     Eigenvalues ---    0.33429   0.33671   0.33714   0.33797   0.34517
     Eigenvalues ---    0.34982   0.35100   0.35268   0.35839   0.62927
     Eigenvalues ---    0.89683
 Angle between quadratic step and forces=  85.25 degrees.
 Linear search not attempted -- option 19 set.
 Iteration  1 RMS(Cart)=  0.00000246 RMS(Int)=  0.00000000
 Iteration  2 RMS(Cart)=  0.00000000 RMS(Int)=  0.00000000
 Variable       Old X    -DE/DX   Delta X   Delta X   Delta X     New X
                                 (Linear)    (Quad)   (Total)
    R1        2.83754   0.00000   0.00000   0.00000   0.00000   2.83754
    R2        2.05990   0.00000   0.00000   0.00000   0.00000   2.05990
    R3        2.05477   0.00000   0.00000   0.00000   0.00000   2.05477
    R4        2.05990   0.00000   0.00000   0.00000   0.00000   2.05990
    R5        2.81752   0.00000   0.00000   0.00000   0.00000   2.81752
    R6        2.06302   0.00000   0.00000   0.00000   0.00000   2.06302
    R7        2.05470   0.00000   0.00000   0.00000   0.00000   2.05470
    R8        2.06302   0.00000   0.00000   0.00000   0.00000   2.06302
    R9        2.52321   0.00000   0.00000   0.00000   0.00000   2.52321
   R10        2.79451   0.00000   0.00000   0.00000   0.00000   2.79451
   R11        2.05420   0.00000   0.00000   0.00000   0.00000   2.05420
   R12        2.27364   0.00000   0.00000   0.00000   0.00000   2.27364
   R13        2.09157   0.00000   0.00000   0.00000   0.00000   2.09157
    A1        1.94178   0.00000   0.00000   0.00000   0.00000   1.94178
    A2        1.91193   0.00000   0.00000   0.00000   0.00000   1.91193
    A3        1.94178   0.00000   0.00000   0.00000   0.00000   1.94178
    A4        1.89295   0.00000   0.00000   0.00000   0.00000   1.89295
    A5        1.88104   0.00000   0.00000   0.00000   0.00000   1.88104
    A6        1.89295   0.00000   0.00000   0.00000   0.00000   1.89295
    A7        1.92709   0.00000   0.00000   0.00000   0.00000   1.92709
    A8        1.95677   0.00000   0.00000   0.00000   0.00000   1.95677
    A9        1.92709   0.00000   0.00000   0.00000   0.00000   1.92709
   A10        1.89430   0.00000   0.00000   0.00000   0.00000   1.89430
   A11        1.86134   0.00000   0.00000   0.00000   0.00000   1.86134
   A12        1.89430   0.00000   0.00000   0.00000   0.00000   1.89430
   A13        2.18961   0.00000   0.00000   0.00000   0.00000   2.18961
   A14        2.05931   0.00000   0.00000   0.00000   0.00000   2.05931
   A15        2.03426   0.00000   0.00000   0.00000   0.00000   2.03426
   A16        2.20012   0.00000   0.00000   0.00000   0.00000   2.20012
   A17        2.03087   0.00000   0.00000   0.00000   0.00000   2.03087
   A18        2.05219   0.00000   0.00000   0.00000   0.00000   2.05219
   A19        2.17619   0.00000   0.00000   0.00000   0.00000   2.17619
   A20        2.00062   0.00000   0.00000   0.00000   0.00000   2.00062
   A21        2.10637   0.00000   0.00000   0.00000   0.00000   2.10637
    D1       -1.04881   0.00000   0.00000  -0.00001  -0.00001  -1.04882
    D2        2.09278   0.00000   0.00000  -0.00001  -0.00001   2.09277
    D3       -3.14159   0.00000   0.00000   0.00000   0.00000  -3.14159
    D4        0.00001   0.00000   0.00000  -0.00001  -0.00001   0.00000
    D5        1.04883   0.00000   0.00000  -0.00001  -0.00001   1.04882
    D6       -2.09276   0.00000   0.00000  -0.00001  -0.00001  -2.09277
    D7       -2.11457   0.00000   0.00000   0.00000   0.00000  -2.11456
    D8        1.02703   0.00000   0.00000   0.00000   0.00000   1.02703
    D9        0.00000   0.00000   0.00000   0.00000   0.00000   0.00000
   D10        3.14159   0.00000   0.00000   0.00000   0.00000   3.14159
   D11        2.11456   0.00000   0.00000   0.00000   0.00000   2.11456
   D12       -1.02703   0.00000   0.00000   0.00000   0.00000  -1.02703
   D13        0.00000   0.00000   0.00000   0.00000   0.00000   0.00000
   D14       -3.14159   0.00000   0.00000   0.00000   0.00000   3.14159
   D15        3.14159   0.00000   0.00000   0.00000   0.00000   3.14159
   D16        0.00000   0.00000   0.00000   0.00000   0.00000   0.00000
   D17        0.00000   0.00000   0.00000   0.00000   0.00000   0.00000
   D18        3.14159   0.00000   0.00000   0.00000   0.00000   3.14159
   D19       -3.14159   0.00000   0.00000   0.00000   0.00000  -3.14159
   D20        0.00000   0.00000   0.00000   0.00000   0.00000   0.00000
         Item               Value     Threshold  Converged?
 Maximum Force            0.000000     0.000002     YES
 RMS     Force            0.000000     0.000001     YES
 Maximum Displacement     0.000009     0.000006     NO 
 RMS     Displacement     0.000002     0.000004     YES
 Predicted change in Energy=-6.818747D-14
 GradGradGradGradGradGradGradGradGradGradGradGradGradGradGradGradGradGrad


 Test job not archived.
 1\1\GINC-COMPUTE-3-042\Freq\RM062X\6-311+G(2df,2p)\C5H8O1\ROOT\28-Aug-
 2017\0\\#N Geom=AllCheck Guess=TCheck SCRF=Check Test GenChk RM062X/6-
 311+G(2df,2p) Freq\\InChI=1S/C5H8O/c1-3-5(2)4-6/h3-4H,1-2H3\\0,1\C,-1.
 2840650676,-0.8356552319,0.2007624173\C,1.7860995513,-0.6555440862,0.4
 286741206\C,-0.4434016047,0.3491485585,-0.1789996886\C,0.8860744045,0.
 4199622096,-0.0775110658\C,-1.1304193142,1.5454798295,-0.7115552868\H,
 2.3563914159,-0.3010659925,1.2894489149\H,1.2352553663,-1.545933051,0.
 7219261497\H,2.5141563542,-0.9339147289,-0.3356975038\H,-1.0087612455,
 -1.7173546352,-0.3780525724\H,-2.3317337371,-0.6136411477,0.012593653\
 H,-1.1674492259,-1.0808540232,1.2564570995\H,1.3662665398,1.3435776825
 ,-0.3905583338\O,-2.3200572912,1.6407462507,-0.86414061\H,-0.458356145
 7,2.3850483658,-0.9732472938\\Version=EM64L-G09RevB.01\State=1-A\HF=-2
 70.5163577\RMSD=1.750e-09\RMSF=1.680e-06\ZeroPoint=0.118279\Thermal=0.
 1256722\Dipole=1.3402622,-0.5425396,0.3413802\DipoleDeriv=0.0176658,0.
 0322449,-0.0206259,-0.0793863,-0.0517802,0.0517043,0.0228455,0.062542,
 0.0786499,-0.1697225,0.0965143,-0.0611439,0.0538153,-0.0227742,0.04250
 8,-0.0445158,0.046653,0.0504818,-0.4725695,0.3481459,-0.171066,0.58088
 53,-0.2048267,0.094509,-0.2616974,0.0719153,-0.1603494,0.4441346,-0.23
 15108,0.1504286,-0.1740853,0.0695095,-0.1128012,0.1280665,-0.1183761,-
 0.1182355,1.4411465,-0.3029001,0.2396009,-0.5679688,0.873694,-0.322136
 4,0.3428209,-0.2964038,0.3367438,0.0305869,-0.0063527,-0.0567559,0.035
 135,0.0236801,-0.0368474,-0.1124755,-0.0121764,-0.0151989,0.0179959,-0
 .0767798,0.025258,-0.0104374,-0.042338,0.0410978,-0.0005765,0.0346574,
 0.0522506,0.0027473,0.0366687,0.0507066,0.0998961,0.0392871,0.0153274,
 0.0656489,-0.0195091,-0.0029667,0.0329795,0.0295709,0.0508089,-0.01659
 03,-0.0527317,-0.0362554,0.0348641,-0.0623897,0.0253923,-0.026217,-0.0
 322275,0.0017958,0.0424291,0.0937807,0.0005246,-0.0272765,-0.0067235,0
 .0845189,0.0462561,-0.0211244,-0.0414691,-0.0394131,0.0285511,0.020436
 3,-0.0004272,0.0528273,-0.0691667,0.0177081,-0.0204045,-0.0027545,-0.0
 416574,-0.0667735,0.0717748,0.0055215,0.0738379,0.0997119,-1.3205155,0
 .2869422,-0.2058336,0.2107902,-0.5614419,0.102319,-0.1761791,0.1097113
 ,-0.4110623,-0.0621962,-0.1387871,0.0410501,-0.0934124,-0.1258363,0.06
 78393,0.0233807,0.0634344,0.0492303\Polar=86.0768845,-6.6253891,61.238
 3736,6.6270276,-7.204685,47.8373644\PG=C01 [X(C5H8O1)]\NImag=0\\0.5563
 8213,-0.03994335,0.51948304,0.01662029,0.00621622,0.54459661,0.0013990
 8,0.00261457,-0.00030008,0.54017993,-0.00047309,-0.00074125,-0.0020928
 4,0.04156634,0.54614081,0.00090229,-0.00179309,-0.00521191,-0.01525484
 ,-0.00202202,0.52989226,-0.12960469,-0.05877832,0.01730238,-0.02413634
 ,0.00413476,-0.00528357,0.82759738,-0.06071856,-0.16705085,0.03109568,
 0.02900462,0.00783327,0.00510171,0.05658699,0.50690971,0.01805793,0.03
 128413,-0.08248923,-0.01496811,0.00268742,0.01120418,0.04352503,-0.132
 60853,0.20812829,-0.01889517,-0.00800176,0.00075847,-0.13487106,0.0647
 3235,-0.03092275,-0.51446833,-0.03493311,-0.03048843,0.82930413,-0.027
 31174,-0.00027349,-0.00044624,0.05892201,-0.17296062,0.04347832,-0.029
 14141,-0.10810975,0.01579468,0.04552352,0.55321999,0.00827796,0.001428
 29,0.00563659,-0.02866011,0.04404231,-0.09593058,-0.03274378,0.0152324
 5,-0.06939447,0.04708770,-0.14806065,0.22387915,0.01474217,-0.01220404
 ,0.00570578,0.00033327,-0.00213828,-0.00072515,-0.08029609,0.01322445,
 -0.00515387,-0.04582923,0.02882917,-0.01577922,1.00354696,0.00606000,-
 0.02501670,0.01224636,-0.00890570,0.00102248,0.00511578,0.02510260,-0.
 19867725,0.04855229,0.01820452,0.00483099,0.00030263,0.02503669,0.5303
 8690,-0.00140645,0.01047334,0.00070637,0.00191015,0.00577276,0.0143174
 2,-0.00977932,0.04739918,-0.09965998,-0.01164189,0.00133407,-0.0005798
 7,0.06907711,-0.12951276,0.24869568,-0.00011773,-0.00001741,-0.0004913
 7,-0.11204346,-0.04941088,-0.10893727,0.00061649,0.00290548,-0.0003908
 7,-0.01568611,-0.00515039,-0.01668671,-0.00075431,0.00040219,0.0019070
 3,0.12431925,-0.00070572,0.00038680,0.00072897,-0.04652420,-0.07572340
 ,-0.06685393,0.00183619,-0.00429550,0.00026155,0.01369221,0.01045010,0
 .02146321,-0.00017112,0.00074886,-0.00301180,0.04800627,0.07945618,0.0
 0025773,-0.00033595,-0.00023643,-0.10822205,-0.06892751,-0.20800976,0.
 00075580,0.00187914,-0.00055642,-0.00590076,-0.00267766,-0.00756067,-0
 .00000827,-0.00051493,0.00092999,0.12013539,0.07506884,0.22558660,-0.0
 0104936,0.00014305,-0.00017247,-0.12170201,-0.11642549,0.03817384,0.00
 062009,-0.00021768,0.00016703,0.01398161,0.01849016,-0.00571648,0.0002
 2070,0.00031724,-0.00009713,-0.00853296,-0.01161364,0.00563354,0.13141
 607,-0.00075813,0.00053655,-0.00022286,-0.11322837,-0.22753654,0.05895
 597,-0.00119431,0.00018436,-0.00027622,-0.01276721,-0.02054761,0.00625
 468,-0.00046502,-0.00009733,-0.00002723,-0.00434809,-0.00789140,0.0027
 8316,0.12364043,0.24726786,0.00017847,-0.00013536,0.00022333,0.0369288
 5,0.05864561,-0.06716349,0.00054733,-0.00018140,-0.00010345,0.00645547
 ,0.00928906,-0.00429343,0.00020749,0.00004871,-0.00005014,-0.01301888,
 -0.02156733,0.00876369,-0.03982575,-0.06648978,0.06772577,-0.00019938,
 0.00027564,0.00035597,-0.15792134,0.04151592,0.12739464,0.00094997,0.0
 0250164,-0.00146515,-0.01831213,0.00633959,0.01241124,-0.00041207,-0.0
 0101561,-0.00169277,0.01174310,-0.00464093,-0.01221796,-0.01048858,0.0
 0481959,0.01073919,0.17427243,-0.00054607,-0.00011512,-0.00094009,0.04
 346872,-0.06324041,-0.04616237,0.00068933,-0.00344095,0.00260517,0.016
 75629,-0.00567657,-0.01831274,-0.00056265,0.00249989,0.00131999,0.0071
 9885,-0.00351318,-0.00790344,-0.01701381,0.00846332,0.01956649,-0.0503
 9606,0.06511825,0.00019491,0.00027144,0.00034715,0.12479485,-0.0445585
 6,-0.17461493,-0.00148971,0.00126733,-0.00174443,-0.00976856,0.0029876
 7,0.01119203,0.00026940,-0.00116521,-0.00116328,0.01777515,-0.00625369
 ,-0.01898347,0.00341819,-0.00195915,-0.00563542,-0.13542115,0.04972455
 ,0.18997142,-0.06335062,0.05572890,0.03730838,0.00018681,-0.00011474,-
 0.00002413,0.00437950,-0.01658245,-0.01193730,-0.00004468,-0.00155364,
 0.00073700,-0.00300476,-0.00056463,0.00008355,0.00024511,0.00041024,-0
 .00016317,-0.00090151,0.00000268,-0.00085062,-0.00017622,-0.00005634,0
 .00004916,0.06677145,0.05696228,-0.21609827,-0.11700260,-0.00063453,-0
 .00010309,-0.00076144,0.00423196,-0.02196807,-0.01067957,0.00212821,0.
 00015019,0.00139504,-0.00301172,-0.00157602,-0.00020827,-0.00005168,0.
 00028874,-0.00008551,-0.00018239,0.00027367,-0.00026275,0.00015102,0.0
 0012265,-0.00011634,-0.05924086,0.23708071,0.03715796,-0.11577640,-0.1
 2079791,-0.00009422,-0.00044738,0.00043337,-0.00354387,0.00943695,0.00
 528838,-0.00000251,-0.00016752,0.00102870,0.00090254,0.00106478,-0.000
 79060,0.00011512,0.00006070,-0.00008197,-0.00020734,0.00015948,-0.0002
 5131,0.00011988,0.00018300,-0.00012377,-0.04232159,0.12518823,0.129411
 31,-0.30257775,0.05304127,-0.04534953,0.00042324,-0.00031135,0.0001391
 5,-0.01810649,0.00077347,-0.00183457,-0.00092846,-0.00286063,0.0009742
 6,-0.00316122,0.00201305,-0.00118758,-0.00004476,-0.00000287,-0.000001
 80,0.00017879,-0.00001738,0.00005331,-0.00003726,0.00000570,-0.0000040
 5,-0.00573094,0.00123436,-0.00098308,0.32940341,0.05735286,-0.05852613
 ,0.00958158,0.00036045,-0.00061109,0.00036590,-0.02719150,0.00652530,-
 0.00608143,-0.00185010,-0.00500515,0.00196819,-0.00247233,0.00036587,0
 .00000579,0.00001032,0.00008376,-0.00005265,0.00018947,0.00022746,-0.0
 0018726,-0.00002234,0.00005963,-0.00001723,0.02455159,-0.00474770,0.00
 612918,-0.05663424,0.06463627,-0.04702848,0.00916295,-0.05635385,-0.00
 012244,0.00030068,0.00010971,0.00905537,-0.00336639,-0.00012235,0.0005
 8076,0.00187007,-0.00016148,0.00055903,0.00044123,0.00087954,0.0000382
 9,0.00001123,-0.00001152,-0.00002723,-0.00020734,-0.00022257,-0.000038
 36,-0.00007966,0.00000510,0.01882824,-0.00288711,0.00332569,0.04939544
 ,-0.01206135,0.05727542,-0.04866933,0.00643209,-0.02952762,0.00011189,
 -0.00013481,0.00015221,0.00094137,-0.00393246,0.01985997,0.00015718,-0
 .00179922,0.00033939,-0.00299428,-0.00050739,-0.00013393,-0.00013887,-
 0.00003525,-0.00002721,-0.00106494,0.00057502,0.00045966,0.00025094,0.
 00045689,-0.00011724,0.00023664,-0.00210227,0.00914496,-0.00085029,0.0
 0532853,-0.03128803,0.05045617,0.00721909,-0.05504338,0.05689632,-0.00
 051590,0.00070770,0.00040668,0.00211264,-0.00889433,0.02565107,0.00161
 849,-0.00006815,-0.00009999,-0.00303783,-0.00186823,0.00050276,0.00001
 708,-0.00002536,0.00002712,-0.00006082,0.00012119,-0.00001459,-0.00008
 799,0.00015340,-0.00013673,-0.00380993,0.00659861,-0.02603317,0.000261
 93,-0.00226480,0.00650562,-0.00467452,0.06183108,-0.03016402,0.0554738
 9,-0.29653412,0.00057311,0.00018005,-0.00030245,0.00100712,0.00292692,
 -0.00434727,-0.00168574,0.00077332,0.00104515,0.00098536,-0.00028703,-
 0.00050878,-0.00019906,-0.00029743,-0.00001310,0.00013607,-0.00035711,
 0.00006465,-0.00000347,-0.00018519,0.00004753,-0.00268902,0.00384390,-
 0.01652120,-0.00042363,0.00024497,-0.00403788,0.03240377,-0.06253021,0
 .32097618,-0.00400076,0.00236629,-0.00226839,0.01071577,0.01725527,-0.
 00596973,-0.01314933,-0.02905714,0.00944485,-0.10884563,-0.09904660,0.
 03194016,-0.00210929,-0.00366546,0.00213304,0.00053577,-0.00090957,-0.
 00002497,-0.00239999,0.00320607,-0.00163043,0.00058021,-0.00074864,0.0
 0071042,-0.00000813,-0.00013492,-0.00009763,-0.00079278,-0.00144508,0.
 00043491,0.00021312,0.00017892,0.00014395,0.11808551,-0.00019665,0.002
 44783,0.00287263,-0.01036883,-0.01554927,0.00621427,-0.00382406,-0.000
 13617,0.00206340,-0.10284066,-0.24939679,0.07134056,0.00545761,-0.0020
 3992,-0.00232787,0.00024309,0.00038957,0.00045542,0.00316058,-0.001562
 96,0.00151305,-0.00012685,0.00051279,-0.00052028,0.00061552,0.00033238
 ,-0.00011076,0.00005474,-0.00023602,0.00030122,-0.00037908,-0.00049706
 ,0.00002314,0.10919880,0.26442275,-0.00127033,0.00312143,0.00853495,0.
 00478733,0.00889599,-0.00000556,-0.00038115,-0.00038620,0.00622935,0.0
 3341761,0.07170887,-0.06523635,-0.00141956,-0.00321351,-0.00826487,0.0
 0058572,-0.00073199,0.00048316,-0.00161273,0.00151747,0.00078714,-0.00
 059125,0.00049488,0.00031547,0.00127557,0.00096038,-0.00050910,-0.0001
 4913,0.00015564,0.00044878,-0.00130420,-0.00106670,0.00009908,-0.03362
 416,-0.08207938,0.05511830,-0.00329003,-0.00294255,0.00091511,-0.00324
 686,-0.00026398,0.00021317,-0.06061405,0.03145221,-0.02033302,0.013612
 42,0.00631525,-0.00142571,-0.76718761,0.03581379,-0.08218052,-0.000180
 62,0.00077917,-0.00028102,-0.00018187,0.00048225,-0.00020337,-0.000256
 53,0.00086288,-0.00043211,0.00133123,0.00043121,-0.00012865,0.00233648
 ,0.00150625,-0.00023498,0.00118401,0.00047865,0.00001821,0.00137638,-0
 .00126370,0.00042536,0.86434974,-0.00028778,0.00124893,-0.00087008,0.0
 0309407,0.00031496,-0.00152934,0.04296387,0.00788750,0.00992807,-0.000
 66681,-0.00616575,0.00349142,0.03911610,-0.10644052,0.02020436,0.00017
 925,-0.00022896,0.00020029,-0.00017710,0.00027316,-0.00013191,0.000526
 18,-0.00073509,0.00036898,0.00072724,0.00014859,0.00006699,0.00248904,
 -0.00109689,0.00016853,0.00126638,0.00016410,0.00000608,0.00103147,0.0
 0082036,0.00058433,-0.06195835,0.08732625,-0.00011863,-0.00112776,-0.0
 0048592,-0.00109449,-0.00185535,-0.00376752,-0.02481575,0.00881054,0.0
 1683211,0.00129315,0.00416922,0.00146846,-0.08346649,0.01988379,-0.080
 15287,-0.00061243,0.00095098,-0.00027549,0.00005339,-0.00006790,0.0000
 1019,0.00026404,-0.00029080,0.00030654,-0.00094456,-0.00009209,-0.0000
 8380,-0.00061771,0.00007312,-0.00137312,0.00041209,0.00005992,0.000047
 90,-0.00046839,0.00036152,0.00187753,0.10569037,-0.03060907,0.04634776
 ,-0.00076857,0.00128561,-0.00085694,0.00057108,0.00006798,0.00014213,0
 .00527052,0.00899253,-0.00448348,0.00082547,0.00244393,-0.00075571,-0.
 11309423,-0.09829129,0.03300870,0.00003912,-0.00012078,0.00006475,-0.0
 0009604,0.00005248,-0.00004073,0.00000685,-0.00011509,0.00002074,0.000
 06612,0.00021933,-0.00006158,-0.00011197,0.00031611,-0.00015252,0.0001
 6640,0.00030019,-0.00010263,-0.00020086,0.00026950,-0.00013908,-0.0492
 3270,-0.02830356,0.00442539,0.15655883,0.00334686,-0.00123795,0.001936
 96,0.00114674,0.00044644,-0.00051644,-0.01752875,-0.01676726,0.0108179
 8,-0.00159594,-0.00044739,-0.00044540,-0.08760103,-0.20413902,0.048075
 69,0.00001592,-0.00012621,0.00008368,-0.00024998,0.00028826,-0.0000925
 3,0.00016020,-0.00020861,0.00010721,-0.00011357,-0.00050240,0.00024594
 ,-0.00004710,0.00058950,-0.00015969,-0.00049391,-0.00091477,0.00018470
 ,0.00177060,0.00049251,0.00003879,-0.01169309,0.01648335,-0.00026613,0
 .11288306,0.20604355,-0.00165961,0.00173687,0.00206437,-0.00027795,-0.
 00062117,-0.00095076,0.00584411,0.01339261,0.01073530,0.00081746,-0.00
 005322,-0.00109324,0.02884583,0.04703789,-0.07435860,-0.00022010,0.000
 17069,-0.00003461,0.00007706,-0.00006317,0.00014504,0.00014515,-0.0000
 1979,0.00008006,0.00064848,0.00070814,-0.00032780,-0.00001109,-0.00012
 444,0.00023853,-0.00037383,-0.00016811,-0.00001570,-0.00072362,-0.0001
 0693,0.00012211,-0.00204285,-0.00187864,0.01924823,-0.03106904,-0.0600
 1075,0.04414707\\0.00000119,-0.00000162,0.00000075,0.00000109,0.000002
 35,-0.00000076,-0.00000055,-0.00000058,0.00000016,-0.00000059,0.000001
 11,-0.00000050,-0.00000234,-0.00000157,0.00000038,0.00000104,0.0000032
 1,-0.00000116,0.00000237,0.00000170,-0.00000044,0.00000104,0.00000321,
 -0.00000116,0.00000202,-0.00000135,0.00000070,0.00000081,-0.00000303,0
 .00000126,0.00000200,-0.00000134,0.00000073,-0.00000193,0.00000172,-0.
 00000086,-0.00000257,-0.00000310,0.00000097,-0.00000357,-0.00000070,-0
 .00000007\\\@


 A MAN IS NEVER SO BRILLIANT AS WHEN HE TAKES THE WORDS RIGHT OUT
 OF YOUR MOUTH. -- ARNOT SHEPPARD, JR.
 Job cpu time:  0 days  1 hours 46 minutes 18.6 seconds.
 File lengths (MBytes):  RWF=   2352 Int=      0 D2E=      0 Chk=     32 Scr=     32
 Normal termination of Gaussian 09 at Mon Aug 28 16:01:08 2017.
