 Entering Gaussian System, Link 0=/shared/apps/gaussian/G09_LINUX_LINDA/g09/g09
 Input=/gss_gpfs_scratch/westgroup/QMscratch/ADJPNXDTTBCKTM-UHFFFAOYSA-u4.gjf
 Output=/gss_gpfs_scratch/westgroup/QMscratch/ADJPNXDTTBCKTM-UHFFFAOYSA-u4.log
 Initial command:
 /shared/apps/gaussian/G09_LINUX_LINDA/g09/l1.exe /gss_gpfs_scratch/westgroup/rwest-autotst-1/Gau-19085.inp -scrdir=/gss_gpfs_scratch/westgroup/rwest-autotst-1/
 Entering Link 1 = /shared/apps/gaussian/G09_LINUX_LINDA/g09/l1.exe PID=     19086.
  
 Copyright (c) 1988,1990,1992,1993,1995,1998,2003,2009,2010,
            Gaussian, Inc.  All Rights Reserved.
  
 This is part of the Gaussian(R) 09 program.  It is based on
 the Gaussian(R) 03 system (copyright 2003, Gaussian, Inc.),
 the Gaussian(R) 98 system (copyright 1998, Gaussian, Inc.),
 the Gaussian(R) 94 system (copyright 1995, Gaussian, Inc.),
 the Gaussian 92(TM) system (copyright 1992, Gaussian, Inc.),
 the Gaussian 90(TM) system (copyright 1990, Gaussian, Inc.),
 the Gaussian 88(TM) system (copyright 1988, Gaussian, Inc.),
 the Gaussian 86(TM) system (copyright 1986, Carnegie Mellon
 University), and the Gaussian 82(TM) system (copyright 1983,
 Carnegie Mellon University). Gaussian is a federally registered
 trademark of Gaussian, Inc.
  
 This software contains proprietary and confidential information,
 including trade secrets, belonging to Gaussian, Inc.
  
 This software is provided under written license and may be
 used, copied, transmitted, or stored only in accord with that
 written license.
  
 The following legend is applicable only to US Government
 contracts under FAR:
  
                    RESTRICTED RIGHTS LEGEND
  
 Use, reproduction and disclosure by the US Government is
 subject to restrictions as set forth in subparagraphs (a)
 and (c) of the Commercial Computer Software - Restricted
 Rights clause in FAR 52.227-19.
  
 Gaussian, Inc.
 340 Quinnipiac St., Bldg. 40, Wallingford CT 06492
  
  
 ---------------------------------------------------------------
 Warning -- This program may not be used in any manner that
 competes with the business of Gaussian, Inc. or will provide
 assistance to any competitor of Gaussian, Inc.  The licensee
 of this program is prohibited from giving any competitor of
 Gaussian, Inc. access to this program.  By using this program,
 the user acknowledges that Gaussian, Inc. is engaged in the
 business of creating and licensing software in the field of
 computational chemistry and represents and warrants to the
 licensee that it is not a competitor of Gaussian, Inc. and that
 it will not use this program in any manner prohibited above.
 ---------------------------------------------------------------
  

 Cite this work as:
 Gaussian 09, Revision B.01,
 M. J. Frisch, G. W. Trucks, H. B. Schlegel, G. E. Scuseria, 
 M. A. Robb, J. R. Cheeseman, G. Scalmani, V. Barone, B. Mennucci, 
 G. A. Petersson, H. Nakatsuji, M. Caricato, X. Li, H. P. Hratchian, 
 A. F. Izmaylov, J. Bloino, G. Zheng, J. L. Sonnenberg, M. Hada, 
 M. Ehara, K. Toyota, R. Fukuda, J. Hasegawa, M. Ishida, T. Nakajima, 
 Y. Honda, O. Kitao, H. Nakai, T. Vreven, J. A. Montgomery, Jr., 
 J. E. Peralta, F. Ogliaro, M. Bearpark, J. J. Heyd, E. Brothers, 
 K. N. Kudin, V. N. Staroverov, T. Keith, R. Kobayashi, J. Normand, 
 K. Raghavachari, A. Rendell, J. C. Burant, S. S. Iyengar, J. Tomasi, 
 M. Cossi, N. Rega, J. M. Millam, M. Klene, J. E. Knox, J. B. Cross, 
 V. Bakken, C. Adamo, J. Jaramillo, R. Gomperts, R. E. Stratmann, 
 O. Yazyev, A. J. Austin, R. Cammi, C. Pomelli, J. W. Ochterski, 
 R. L. Martin, K. Morokuma, V. G. Zakrzewski, G. A. Voth, 
 P. Salvador, J. J. Dannenberg, S. Dapprich, A. D. Daniels, 
 O. Farkas, J. B. Foresman, J. V. Ortiz, J. Cioslowski, 
 and D. J. Fox, Gaussian, Inc., Wallingford CT, 2010.
 
 ******************************************
 Gaussian 09:  EM64L-G09RevB.01 12-Aug-2010
                10-Mar-2017 
 ******************************************
 %nprocshared=20
 Will use up to   20 processors via shared memory.
 %mem=5GB
 --------------------------------------------------------------
 # m062x/6-311+g(2df,2p) opt=(verytight,gdiis) freq IOP(2/16=3)
 --------------------------------------------------------------

 Warning!  Use of Opt=GDIIS is deprecated since it is seldom a good choice.

 1/7=1,14=-1,18=20,19=11,26=3,38=1/1,3;
 2/9=110,12=2,16=3,17=6,18=5,40=1/2;
 3/5=4,6=6,7=214,11=2,16=1,25=1,30=1,71=1,74=-55/1,2,3;
 4//1;
 5/5=2,38=5/2;
 6/7=2,8=2,9=2,10=2,28=1/1;
 7//1,2,3,16;
 1/7=1,14=-1,18=20,19=11/3(2);
 2/9=110,16=3/2;
 99//99;
 2/9=110,16=3/2;
 3/5=4,6=6,7=214,11=2,16=1,25=1,30=1,71=1,74=-55/1,2,3;
 4/5=5,16=3/1;
 5/5=2,38=5/2;
 7//1,2,3,16;
 1/7=1,14=-1,18=20,19=11/3(-5);
 2/9=110,16=3/2;
 6/7=2,8=2,9=2,10=2,19=2,28=1/1;
 99/9=1/99;
 --------------------------------------------
 InChI=1S/C5H9O/c1-2-4-6-5-3-1/h4H,1-3,5H2/u4
 --------------------------------------------
 Symbolic Z-matrix:
 Charge =  0 Multiplicity = 2
 C                     0.5969   -1.0331    0.0641 
 C                    -0.7195   -0.7914   -0.6827 
 C                     1.3628    0.2802    0.2433 
 C                    -1.4753    0.3866   -0.0504 
 C                     0.4189    1.3407    0.815 
 O                    -0.6728    1.5498   -0.0537 
 H                    -1.3475   -1.7072   -0.6421 
 H                    -0.5041   -0.5601   -1.7489 
 H                     0.3773   -1.4698    1.0635 
 H                     1.2215   -1.7584   -0.5002 
 H                     2.2142    0.1246    0.9394 
 H                     1.7605    0.6237   -0.7367 
 H                    -1.8107    0.1317    0.9821 
 H                    -2.3876    0.5862   -0.651 
 H                     0.9653    2.2965    0.9582 
 

 GradGradGradGradGradGradGradGradGradGradGradGradGradGradGradGradGradGrad
 Berny optimization.
 Initialization pass.
                           ----------------------------
                           !    Initial Parameters    !
                           ! (Angstroms and Degrees)  !
 --------------------------                            --------------------------
 ! Name  Definition              Value          Derivative Info.                !
 --------------------------------------------------------------------------------
 ! R1    R(1,2)                  1.5327         estimate D2E/DX2                !
 ! R2    R(1,3)                  1.5308         estimate D2E/DX2                !
 ! R3    R(1,9)                  1.1125         estimate D2E/DX2                !
 ! R4    R(1,10)                 1.1111         estimate D2E/DX2                !
 ! R5    R(2,4)                  1.5358         estimate D2E/DX2                !
 ! R6    R(2,7)                  1.1112         estimate D2E/DX2                !
 ! R7    R(2,8)                  1.1121         estimate D2E/DX2                !
 ! R8    R(3,5)                  1.5305         estimate D2E/DX2                !
 ! R9    R(3,11)                 1.1107         estimate D2E/DX2                !
 ! R10   R(3,12)                 1.112          estimate D2E/DX2                !
 ! R11   R(4,6)                  1.4132         estimate D2E/DX2                !
 ! R12   R(4,13)                 1.1151         estimate D2E/DX2                !
 ! R13   R(4,14)                 1.1103         estimate D2E/DX2                !
 ! R14   R(5,6)                  1.4107         estimate D2E/DX2                !
 ! R15   R(5,15)                 1.1102         estimate D2E/DX2                !
 ! A1    A(2,1,3)              110.5771         estimate D2E/DX2                !
 ! A2    A(2,1,9)              109.2733         estimate D2E/DX2                !
 ! A3    A(2,1,10)             109.7729         estimate D2E/DX2                !
 ! A4    A(3,1,9)              109.2898         estimate D2E/DX2                !
 ! A5    A(3,1,10)             109.7676         estimate D2E/DX2                !
 ! A6    A(9,1,10)             108.1163         estimate D2E/DX2                !
 ! A7    A(1,2,4)              110.0618         estimate D2E/DX2                !
 ! A8    A(1,2,7)              109.7335         estimate D2E/DX2                !
 ! A9    A(1,2,8)              109.4874         estimate D2E/DX2                !
 ! A10   A(4,2,7)              109.815          estimate D2E/DX2                !
 ! A11   A(4,2,8)              109.2998         estimate D2E/DX2                !
 ! A12   A(7,2,8)              108.4164         estimate D2E/DX2                !
 ! A13   A(1,3,5)              109.2453         estimate D2E/DX2                !
 ! A14   A(1,3,11)             109.6755         estimate D2E/DX2                !
 ! A15   A(1,3,12)             109.924          estimate D2E/DX2                !
 ! A16   A(5,3,11)             109.616          estimate D2E/DX2                !
 ! A17   A(5,3,12)             109.6164         estimate D2E/DX2                !
 ! A18   A(11,3,12)            108.7507         estimate D2E/DX2                !
 ! A19   A(2,4,6)              110.5438         estimate D2E/DX2                !
 ! A20   A(2,4,13)             110.725          estimate D2E/DX2                !
 ! A21   A(2,4,14)             108.6345         estimate D2E/DX2                !
 ! A22   A(6,4,13)             111.1684         estimate D2E/DX2                !
 ! A23   A(6,4,14)             108.5032         estimate D2E/DX2                !
 ! A24   A(13,4,14)            107.1454         estimate D2E/DX2                !
 ! A25   A(3,5,6)              110.4837         estimate D2E/DX2                !
 ! A26   A(3,5,15)             109.9491         estimate D2E/DX2                !
 ! A27   A(6,5,15)             109.4311         estimate D2E/DX2                !
 ! A28   A(4,6,5)              108.4217         estimate D2E/DX2                !
 ! D1    D(3,1,2,4)            -48.6855         estimate D2E/DX2                !
 ! D2    D(3,1,2,7)           -169.6425         estimate D2E/DX2                !
 ! D3    D(3,1,2,8)             71.4783         estimate D2E/DX2                !
 ! D4    D(9,1,2,4)             71.6514         estimate D2E/DX2                !
 ! D5    D(9,1,2,7)            -49.3057         estimate D2E/DX2                !
 ! D6    D(9,1,2,8)           -168.1849         estimate D2E/DX2                !
 ! D7    D(10,1,2,4)          -169.9404         estimate D2E/DX2                !
 ! D8    D(10,1,2,7)            69.1025         estimate D2E/DX2                !
 ! D9    D(10,1,2,8)           -49.7766         estimate D2E/DX2                !
 ! D10   D(2,1,3,5)             49.6039         estimate D2E/DX2                !
 ! D11   D(2,1,3,11)           169.7674         estimate D2E/DX2                !
 ! D12   D(2,1,3,12)           -70.7127         estimate D2E/DX2                !
 ! D13   D(9,1,3,5)            -70.7231         estimate D2E/DX2                !
 ! D14   D(9,1,3,11)            49.4404         estimate D2E/DX2                !
 ! D15   D(9,1,3,12)           168.9603         estimate D2E/DX2                !
 ! D16   D(10,1,3,5)           170.8619         estimate D2E/DX2                !
 ! D17   D(10,1,3,11)          -68.9745         estimate D2E/DX2                !
 ! D18   D(10,1,3,12)           50.5453         estimate D2E/DX2                !
 ! D19   D(1,2,4,6)             57.1456         estimate D2E/DX2                !
 ! D20   D(1,2,4,13)           -66.504          estimate D2E/DX2                !
 ! D21   D(1,2,4,14)           176.0946         estimate D2E/DX2                !
 ! D22   D(7,2,4,6)            178.0537         estimate D2E/DX2                !
 ! D23   D(7,2,4,13)            54.4041         estimate D2E/DX2                !
 ! D24   D(7,2,4,14)           -62.9973         estimate D2E/DX2                !
 ! D25   D(8,2,4,6)            -63.1316         estimate D2E/DX2                !
 ! D26   D(8,2,4,13)           173.2188         estimate D2E/DX2                !
 ! D27   D(8,2,4,14)            55.8174         estimate D2E/DX2                !
 ! D28   D(1,3,5,6)            -59.6081         estimate D2E/DX2                !
 ! D29   D(1,3,5,15)           179.5024         estimate D2E/DX2                !
 ! D30   D(11,3,5,6)          -179.8082         estimate D2E/DX2                !
 ! D31   D(11,3,5,15)           59.3023         estimate D2E/DX2                !
 ! D32   D(12,3,5,6)            60.8969         estimate D2E/DX2                !
 ! D33   D(12,3,5,15)          -59.9926         estimate D2E/DX2                !
 ! D34   D(2,4,6,5)            -66.6662         estimate D2E/DX2                !
 ! D35   D(13,4,6,5)            56.7271         estimate D2E/DX2                !
 ! D36   D(14,4,6,5)           174.3051         estimate D2E/DX2                !
 ! D37   D(3,5,6,4)             68.2157         estimate D2E/DX2                !
 ! D38   D(15,5,6,4)          -170.5868         estimate D2E/DX2                !
 --------------------------------------------------------------------------------
 Trust Radius=3.00D-01 FncErr=1.00D-07 GrdErr=1.00D-06
 Number of steps in this run=     91 maximum allowed number of steps=    100.
 GradGradGradGradGradGradGradGradGradGradGradGradGradGradGradGradGradGrad

                          Input orientation:                          
 ---------------------------------------------------------------------
 Center     Atomic      Atomic             Coordinates (Angstroms)
 Number     Number       Type             X           Y           Z
 ---------------------------------------------------------------------
      1          6           0        0.596900   -1.033100    0.064100
      2          6           0       -0.719500   -0.791400   -0.682700
      3          6           0        1.362800    0.280200    0.243300
      4          6           0       -1.475300    0.386600   -0.050400
      5          6           0        0.418900    1.340700    0.815000
      6          8           0       -0.672800    1.549800   -0.053700
      7          1           0       -1.347500   -1.707200   -0.642100
      8          1           0       -0.504100   -0.560100   -1.748900
      9          1           0        0.377300   -1.469800    1.063500
     10          1           0        1.221500   -1.758400   -0.500200
     11          1           0        2.214200    0.124600    0.939400
     12          1           0        1.760500    0.623700   -0.736700
     13          1           0       -1.810700    0.131700    0.982100
     14          1           0       -2.387600    0.586200   -0.651000
     15          1           0        0.965300    2.296500    0.958200
 ---------------------------------------------------------------------
                    Distance matrix (angstroms):
                    1          2          3          4          5
     1  C    0.000000
     2  C    1.532657   0.000000
     3  C    1.530840   2.518288   0.000000
     4  C    2.514492   1.535813   2.855239   0.000000
     5  C    2.496089   2.843398   1.530506   2.290681   0.000000
     6  O    2.880519   2.424673   2.417387   1.413171   1.410734
     7  H    2.175734   1.111180   3.475546   2.179550   3.812218
     8  H    2.173223   1.112061   2.856620   2.173562   3.322432
     9  H    1.112534   2.170809   2.169433   2.849407   2.821771
    10  H    1.111134   2.176207   2.174545   3.475065   3.460974
    11  H    2.173034   3.475178   1.110697   3.828937   2.171975
    12  H    2.177207   2.855840   1.112006   3.316267   2.172959
    13  H    2.827724   2.194172   3.261745   1.115134   2.541795
    14  H    3.469977   2.163641   3.867675   1.110339   3.254976
    15  H    3.467185   3.881524   2.175903   3.259067   1.110231
                    6          7          8          9         10
     6  O    0.000000
     7  H    3.377793   0.000000
     8  H    2.711797   1.803377   0.000000
     9  H    3.386566   2.437286   3.084480   0.000000
    10  H    3.838219   2.573425   2.443946   1.800311   0.000000
    11  H    3.369304   4.306082   3.883932   2.435511   2.569745
    12  H    2.691672   3.886092   2.748517   3.088156   2.453743
    13  H    2.092536   2.496825   3.105503   2.712706   3.868324
    14  H    2.055683   2.518248   2.463120   3.848548   4.306448
    15  H    2.065157   4.892813   4.200915   3.813377   4.316802
                   11         12         13         14         15
    11  H    0.000000
    12  H    1.806725   0.000000
    13  H    4.025133   3.993721   0.000000
    14  H    4.890706   4.149155   1.790642   0.000000
    15  H    2.505445   2.510635   3.520384   4.093481   0.000000
 Stoichiometry    C5H9O(2)
 Framework group  C1[X(C5H9O)]
 Deg. of freedom    39
 Full point group                 C1      NOp   1
 Largest Abelian subgroup         C1      NOp   1
 Largest concise Abelian subgroup C1      NOp   1
                         Standard orientation:                         
 ---------------------------------------------------------------------
 Center     Atomic      Atomic             Coordinates (Angstroms)
 Number     Number       Type             X           Y           Z
 ---------------------------------------------------------------------
      1          6           0       -0.974178    1.056135    0.206556
      2          6           0        0.471840    1.315446   -0.230284
      3          6           0       -1.402543   -0.365181   -0.167391
      4          6           0        1.375679    0.161497    0.228190
      5          6           0       -0.338723   -1.355390    0.312425
      6          8           0        0.907085   -1.069227   -0.284438
      7          1           0        0.830370    2.271630    0.207770
      8          1           0        0.515405    1.398489   -1.338384
      9          1           0       -1.053760    1.186013    1.308613
     10          1           0       -1.650946    1.792303   -0.277862
     11          1           0       -2.375556   -0.601211    0.313424
     12          1           0       -1.519343   -0.447991   -1.270141
     13          1           0        1.446273    0.133598    1.340737
     14          1           0        2.400715    0.337735   -0.160518
     15          1           0       -0.642287   -2.391794    0.054884
 ---------------------------------------------------------------------
 Rotational constants (GHZ):      4.8575941      4.5903268      2.6516852
 Standard basis: 6-311+G(2df,2p) (5D, 7F)
 There are   285 symmetry adapted basis functions of A   symmetry.
 Integral buffers will be    131072 words long.
 Raffenetti 2 integral format.
 Two-electron integral symmetry is turned on.
   285 basis functions,   411 primitive gaussians,   315 cartesian basis functions
    24 alpha electrons       23 beta electrons
       nuclear repulsion energy       248.6420107744 Hartrees.
 NAtoms=   15 NActive=   15 NUniq=   15 SFac= 1.00D+00 NAtFMM=   50 NAOKFM=F Big=F
 One-electron integrals computed using PRISM.
 NBasis=   285 RedAO= T  NBF=   285
 NBsUse=   285 1.00D-06 NBFU=   285
 Harris functional with IExCor= 1009 diagonalized for initial guess.
 ExpMin= 4.38D-02 ExpMax= 8.59D+03 ExpMxC= 1.30D+03 IAcc=2 IRadAn=         0 AccDes= 0.00D+00
 HarFok:  IExCor= 1009 AccDes= 0.00D+00 IRadAn=         0 IDoV= 1
 ScaDFX=  1.000000  1.000000  1.000000  1.000000
 FoFCou: FMM=F IPFlag=           0 FMFlag=      100000 FMFlg1=           0
         NFxFlg=           0 DoJE=T BraDBF=F KetDBF=T FulRan=T
         Omega=  0.000000  0.000000  1.000000  0.000000  0.000000 ICntrl=     500 IOpCl=  0
         NMat0=    1 NMatS0=    1 NMatT0=    0 NMatD0=    1 NMtDS0=    0 NMtDT0=    0
         I1Cent=           4 NGrid=           0.
 Petite list used in FoFCou.
 Initial guess orbital symmetries:
 Alpha Orbitals:
       Occupied  (A) (A) (A) (A) (A) (A) (A) (A) (A) (A) (A) (A)
                 (A) (A) (A) (A) (A) (A) (A) (A) (A) (A) (A) (A)
       Virtual   (A) (A) (A) (A) (A) (A) (A) (A) (A) (A) (A) (A)
                 (A) (A) (A) (A) (A) (A) (A) (A) (A) (A) (A) (A)
                 (A) (A) (A) (A) (A) (A) (A) (A) (A) (A) (A) (A)
                 (A) (A) (A) (A) (A) (A) (A) (A) (A) (A) (A) (A)
                 (A) (A) (A) (A) (A) (A) (A) (A) (A) (A) (A) (A)
                 (A) (A) (A) (A) (A) (A) (A) (A) (A) (A) (A) (A)
                 (A) (A) (A) (A) (A) (A) (A) (A) (A) (A) (A) (A)
                 (A) (A) (A) (A) (A) (A) (A) (A) (A) (A) (A) (A)
                 (A) (A) (A) (A) (A) (A) (A) (A) (A) (A) (A) (A)
                 (A) (A) (A) (A) (A) (A) (A) (A) (A) (A) (A) (A)
                 (A) (A) (A) (A) (A) (A) (A) (A) (A) (A) (A) (A)
                 (A) (A) (A) (A) (A) (A) (A) (A) (A) (A) (A) (A)
                 (A) (A) (A) (A) (A) (A) (A) (A) (A) (A) (A) (A)
                 (A) (A) (A) (A) (A) (A) (A) (A) (A) (A) (A) (A)
                 (A) (A) (A) (A) (A) (A) (A) (A) (A) (A) (A) (A)
                 (A) (A) (A) (A) (A) (A) (A) (A) (A) (A) (A) (A)
                 (A) (A) (A) (A) (A) (A) (A) (A) (A) (A) (A) (A)
                 (A) (A) (A) (A) (A) (A) (A) (A) (A) (A) (A) (A)
                 (A) (A) (A) (A) (A) (A) (A) (A) (A) (A) (A) (A)
                 (A) (A) (A) (A) (A) (A) (A) (A) (A) (A) (A) (A)
                 (A) (A) (A) (A) (A) (A) (A) (A) (A) (A) (A) (A)
                 (A) (A) (A) (A) (A) (A) (A) (A) (A)
 Beta  Orbitals:
       Occupied  (A) (A) (A) (A) (A) (A) (A) (A) (A) (A) (A) (A)
                 (A) (A) (A) (A) (A) (A) (A) (A) (A) (A) (A)
       Virtual   (A) (A) (A) (A) (A) (A) (A) (A) (A) (A) (A) (A)
                 (A) (A) (A) (A) (A) (A) (A) (A) (A) (A) (A) (A)
                 (A) (A) (A) (A) (A) (A) (A) (A) (A) (A) (A) (A)
                 (A) (A) (A) (A) (A) (A) (A) (A) (A) (A) (A) (A)
                 (A) (A) (A) (A) (A) (A) (A) (A) (A) (A) (A) (A)
                 (A) (A) (A) (A) (A) (A) (A) (A) (A) (A) (A) (A)
                 (A) (A) (A) (A) (A) (A) (A) (A) (A) (A) (A) (A)
                 (A) (A) (A) (A) (A) (A) (A) (A) (A) (A) (A) (A)
                 (A) (A) (A) (A) (A) (A) (A) (A) (A) (A) (A) (A)
                 (A) (A) (A) (A) (A) (A) (A) (A) (A) (A) (A) (A)
                 (A) (A) (A) (A) (A) (A) (A) (A) (A) (A) (A) (A)
                 (A) (A) (A) (A) (A) (A) (A) (A) (A) (A) (A) (A)
                 (A) (A) (A) (A) (A) (A) (A) (A) (A) (A) (A) (A)
                 (A) (A) (A) (A) (A) (A) (A) (A) (A) (A) (A) (A)
                 (A) (A) (A) (A) (A) (A) (A) (A) (A) (A) (A) (A)
                 (A) (A) (A) (A) (A) (A) (A) (A) (A) (A) (A) (A)
                 (A) (A) (A) (A) (A) (A) (A) (A) (A) (A) (A) (A)
                 (A) (A) (A) (A) (A) (A) (A) (A) (A) (A) (A) (A)
                 (A) (A) (A) (A) (A) (A) (A) (A) (A) (A) (A) (A)
                 (A) (A) (A) (A) (A) (A) (A) (A) (A) (A) (A) (A)
                 (A) (A) (A) (A) (A) (A) (A) (A) (A) (A) (A) (A)
                 (A) (A) (A) (A) (A) (A) (A) (A) (A) (A)
 The electronic state of the initial guess is 2-A.
 Initial guess <Sx>= 0.0000 <Sy>= 0.0000 <Sz>= 0.5000 <S**2>= 0.7500 S= 0.5000
 Requested convergence on RMS density matrix=1.00D-08 within 128 cycles.
 Requested convergence on MAX density matrix=1.00D-06.
 Requested convergence on             energy=1.00D-06.
 No special actions if energy rises.
 SCF Done:  E(UM062X) =  -271.060014919     A.U. after   15 cycles
             Convg  =    0.3834D-08             -V/T =  2.0051
 <Sx>= 0.0000 <Sy>= 0.0000 <Sz>= 0.5000 <S**2>= 0.7540 S= 0.5020
 <L.S>= 0.000000000000E+00
 Annihilation of the first spin contaminant:
 S**2 before annihilation     0.7540,   after     0.7500

 **********************************************************************

            Population analysis using the SCF density.

 **********************************************************************

 Orbital symmetries:
 Alpha Orbitals:
       Occupied  (A) (A) (A) (A) (A) (A) (A) (A) (A) (A) (A) (A)
                 (A) (A) (A) (A) (A) (A) (A) (A) (A) (A) (A) (A)
       Virtual   (A) (A) (A) (A) (A) (A) (A) (A) (A) (A) (A) (A)
                 (A) (A) (A) (A) (A) (A) (A) (A) (A) (A) (A) (A)
                 (A) (A) (A) (A) (A) (A) (A) (A) (A) (A) (A) (A)
                 (A) (A) (A) (A) (A) (A) (A) (A) (A) (A) (A) (A)
                 (A) (A) (A) (A) (A) (A) (A) (A) (A) (A) (A) (A)
                 (A) (A) (A) (A) (A) (A) (A) (A) (A) (A) (A) (A)
                 (A) (A) (A) (A) (A) (A) (A) (A) (A) (A) (A) (A)
                 (A) (A) (A) (A) (A) (A) (A) (A) (A) (A) (A) (A)
                 (A) (A) (A) (A) (A) (A) (A) (A) (A) (A) (A) (A)
                 (A) (A) (A) (A) (A) (A) (A) (A) (A) (A) (A) (A)
                 (A) (A) (A) (A) (A) (A) (A) (A) (A) (A) (A) (A)
                 (A) (A) (A) (A) (A) (A) (A) (A) (A) (A) (A) (A)
                 (A) (A) (A) (A) (A) (A) (A) (A) (A) (A) (A) (A)
                 (A) (A) (A) (A) (A) (A) (A) (A) (A) (A) (A) (A)
                 (A) (A) (A) (A) (A) (A) (A) (A) (A) (A) (A) (A)
                 (A) (A) (A) (A) (A) (A) (A) (A) (A) (A) (A) (A)
                 (A) (A) (A) (A) (A) (A) (A) (A) (A) (A) (A) (A)
                 (A) (A) (A) (A) (A) (A) (A) (A) (A) (A) (A) (A)
                 (A) (A) (A) (A) (A) (A) (A) (A) (A) (A) (A) (A)
                 (A) (A) (A) (A) (A) (A) (A) (A) (A) (A) (A) (A)
                 (A) (A) (A) (A) (A) (A) (A) (A) (A) (A) (A) (A)
                 (A) (A) (A) (A) (A) (A) (A) (A) (A)
 Beta  Orbitals:
       Occupied  (A) (A) (A) (A) (A) (A) (A) (A) (A) (A) (A) (A)
                 (A) (A) (A) (A) (A) (A) (A) (A) (A) (A) (A)
       Virtual   (A) (A) (A) (A) (A) (A) (A) (A) (A) (A) (A) (A)
                 (A) (A) (A) (A) (A) (A) (A) (A) (A) (A) (A) (A)
                 (A) (A) (A) (A) (A) (A) (A) (A) (A) (A) (A) (A)
                 (A) (A) (A) (A) (A) (A) (A) (A) (A) (A) (A) (A)
                 (A) (A) (A) (A) (A) (A) (A) (A) (A) (A) (A) (A)
                 (A) (A) (A) (A) (A) (A) (A) (A) (A) (A) (A) (A)
                 (A) (A) (A) (A) (A) (A) (A) (A) (A) (A) (A) (A)
                 (A) (A) (A) (A) (A) (A) (A) (A) (A) (A) (A) (A)
                 (A) (A) (A) (A) (A) (A) (A) (A) (A) (A) (A) (A)
                 (A) (A) (A) (A) (A) (A) (A) (A) (A) (A) (A) (A)
                 (A) (A) (A) (A) (A) (A) (A) (A) (A) (A) (A) (A)
                 (A) (A) (A) (A) (A) (A) (A) (A) (A) (A) (A) (A)
                 (A) (A) (A) (A) (A) (A) (A) (A) (A) (A) (A) (A)
                 (A) (A) (A) (A) (A) (A) (A) (A) (A) (A) (A) (A)
                 (A) (A) (A) (A) (A) (A) (A) (A) (A) (A) (A) (A)
                 (A) (A) (A) (A) (A) (A) (A) (A) (A) (A) (A) (A)
                 (A) (A) (A) (A) (A) (A) (A) (A) (A) (A) (A) (A)
                 (A) (A) (A) (A) (A) (A) (A) (A) (A) (A) (A) (A)
                 (A) (A) (A) (A) (A) (A) (A) (A) (A) (A) (A) (A)
                 (A) (A) (A) (A) (A) (A) (A) (A) (A) (A) (A) (A)
                 (A) (A) (A) (A) (A) (A) (A) (A) (A) (A) (A) (A)
                 (A) (A) (A) (A) (A) (A) (A) (A) (A) (A)
 The electronic state is 2-A.
 Alpha  occ. eigenvalues --  -19.64368 -10.59665 -10.58665 -10.54125 -10.53839
 Alpha  occ. eigenvalues --  -10.53787  -1.17645  -0.90012  -0.85712  -0.72791
 Alpha  occ. eigenvalues --   -0.71807  -0.63381  -0.57880  -0.53864  -0.52240
 Alpha  occ. eigenvalues --   -0.51206  -0.48181  -0.45458  -0.45089  -0.40855
 Alpha  occ. eigenvalues --   -0.39745  -0.37934  -0.33869  -0.26991
 Alpha virt. eigenvalues --    0.01720   0.02877   0.03354   0.03521   0.05106
 Alpha virt. eigenvalues --    0.06037   0.06849   0.07342   0.07714   0.09704
 Alpha virt. eigenvalues --    0.10373   0.11159   0.11433   0.11728   0.12411
 Alpha virt. eigenvalues --    0.13160   0.14897   0.15777   0.16985   0.18581
 Alpha virt. eigenvalues --    0.19554   0.20150   0.22043   0.23511   0.23644
 Alpha virt. eigenvalues --    0.25260   0.25620   0.26681   0.27323   0.28140
 Alpha virt. eigenvalues --    0.29325   0.29524   0.29748   0.31153   0.31538
 Alpha virt. eigenvalues --    0.32205   0.33859   0.35552   0.38111   0.43920
 Alpha virt. eigenvalues --    0.45054   0.45496   0.48826   0.49162   0.51662
 Alpha virt. eigenvalues --    0.53603   0.54580   0.55581   0.56619   0.57075
 Alpha virt. eigenvalues --    0.58571   0.58986   0.59800   0.60702   0.61426
 Alpha virt. eigenvalues --    0.61748   0.62827   0.64727   0.65726   0.67318
 Alpha virt. eigenvalues --    0.68842   0.68966   0.69771   0.71053   0.75637
 Alpha virt. eigenvalues --    0.78622   0.79650   0.81958   0.84387   0.85646
 Alpha virt. eigenvalues --    0.86716   0.88744   0.90376   0.94888   0.98292
 Alpha virt. eigenvalues --    1.01444   1.02318   1.03698   1.04953   1.08825
 Alpha virt. eigenvalues --    1.11478   1.12440   1.15257   1.15731   1.17071
 Alpha virt. eigenvalues --    1.17261   1.19413   1.19587   1.20602   1.22091
 Alpha virt. eigenvalues --    1.22912   1.25883   1.26095   1.28848   1.31262
 Alpha virt. eigenvalues --    1.32747   1.33733   1.33998   1.37062   1.38419
 Alpha virt. eigenvalues --    1.39014   1.39718   1.41146   1.41717   1.43186
 Alpha virt. eigenvalues --    1.44174   1.48246   1.49149   1.49651   1.51333
 Alpha virt. eigenvalues --    1.51864   1.53278   1.54950   1.56148   1.58175
 Alpha virt. eigenvalues --    1.60645   1.62423   1.64517   1.69055   1.70173
 Alpha virt. eigenvalues --    1.72771   1.74445   1.79845   1.86046   2.04468
 Alpha virt. eigenvalues --    2.09628   2.16827   2.25599   2.36935   2.47342
 Alpha virt. eigenvalues --    2.50181   2.52281   2.55844   2.63484   2.64889
 Alpha virt. eigenvalues --    2.66651   2.70387   2.75016   2.76445   2.78283
 Alpha virt. eigenvalues --    2.80574   2.82003   2.82705   2.85703   2.87580
 Alpha virt. eigenvalues --    2.89754   2.91613   2.92257   2.93509   2.96981
 Alpha virt. eigenvalues --    2.99621   3.04882   3.05363   3.07710   3.10126
 Alpha virt. eigenvalues --    3.10902   3.12802   3.14791   3.19368   3.24747
 Alpha virt. eigenvalues --    3.26144   3.29182   3.30875   3.31594   3.32112
 Alpha virt. eigenvalues --    3.36042   3.37387   3.38791   3.39204   3.43640
 Alpha virt. eigenvalues --    3.45083   3.47072   3.49281   3.53164   3.55987
 Alpha virt. eigenvalues --    3.58510   3.60480   3.60819   3.64864   3.65915
 Alpha virt. eigenvalues --    3.66560   3.69397   3.71123   3.71570   3.74366
 Alpha virt. eigenvalues --    3.75923   3.77660   3.78877   3.80243   3.81887
 Alpha virt. eigenvalues --    3.85094   3.88635   3.88914   3.91689   3.95594
 Alpha virt. eigenvalues --    3.96143   3.97587   3.98392   4.01818   4.05378
 Alpha virt. eigenvalues --    4.06109   4.11820   4.12420   4.14233   4.15955
 Alpha virt. eigenvalues --    4.17185   4.20127   4.20990   4.25491   4.25622
 Alpha virt. eigenvalues --    4.28268   4.32052   4.33797   4.35817   4.41083
 Alpha virt. eigenvalues --    4.41698   4.43054   4.45987   4.47282   4.49190
 Alpha virt. eigenvalues --    4.53188   4.55233   4.56395   4.59277   4.63522
 Alpha virt. eigenvalues --    4.66074   4.68425   4.70321   4.73186   4.88330
 Alpha virt. eigenvalues --    5.12844   5.21291   5.23645   5.28558   5.34248
 Alpha virt. eigenvalues --    5.36596   5.38761   5.40473   5.46842   5.49849
 Alpha virt. eigenvalues --    5.55374   5.56847   5.58313   5.62986   5.67326
 Alpha virt. eigenvalues --    5.80864   5.84138   6.18724   6.44496   6.66134
 Alpha virt. eigenvalues --    7.21784   7.24710   7.28578   7.59819   7.74267
 Alpha virt. eigenvalues --   24.22310  24.27033  24.32841  24.41060  24.42897
 Alpha virt. eigenvalues --   50.18969
  Beta  occ. eigenvalues --  -19.64138 -10.58809 -10.58648 -10.54120 -10.53826
  Beta  occ. eigenvalues --  -10.53781  -1.16690  -0.89765  -0.84751  -0.72439
  Beta  occ. eigenvalues --   -0.70643  -0.62104  -0.57264  -0.52753  -0.51958
  Beta  occ. eigenvalues --   -0.49811  -0.47145  -0.45192  -0.44522  -0.39814
  Beta  occ. eigenvalues --   -0.39364  -0.37612  -0.32888
  Beta virt. eigenvalues --   -0.03974   0.01962   0.02840   0.03211   0.03406
  Beta virt. eigenvalues --    0.05174   0.05866   0.06522   0.06980   0.07665
  Beta virt. eigenvalues --    0.09366   0.10432   0.10571   0.11087   0.11556
  Beta virt. eigenvalues --    0.12083   0.12315   0.14818   0.15796   0.16548
  Beta virt. eigenvalues --    0.17078   0.19888   0.20350   0.22356   0.23630
  Beta virt. eigenvalues --    0.24019   0.25352   0.25766   0.26690   0.27674
  Beta virt. eigenvalues --    0.28453   0.28948   0.29652   0.29814   0.30907
  Beta virt. eigenvalues --    0.32074   0.33127   0.33611   0.35548   0.38347
  Beta virt. eigenvalues --    0.44141   0.45119   0.45759   0.49102   0.49277
  Beta virt. eigenvalues --    0.51539   0.54071   0.54593   0.55597   0.56818
  Beta virt. eigenvalues --    0.57384   0.58735   0.59138   0.60084   0.60668
  Beta virt. eigenvalues --    0.61965   0.62307   0.63054   0.64529   0.65481
  Beta virt. eigenvalues --    0.67297   0.68530   0.68928   0.69519   0.70873
  Beta virt. eigenvalues --    0.74924   0.78159   0.79692   0.81737   0.84263
  Beta virt. eigenvalues --    0.85502   0.87319   0.88861   0.90225   0.94583
  Beta virt. eigenvalues --    0.98362   1.01439   1.02406   1.04026   1.05015
  Beta virt. eigenvalues --    1.08792   1.11474   1.12607   1.15122   1.15692
  Beta virt. eigenvalues --    1.17007   1.17325   1.19647   1.19765   1.20646
  Beta virt. eigenvalues --    1.22029   1.22990   1.25766   1.26196   1.28879
  Beta virt. eigenvalues --    1.31323   1.32831   1.34001   1.34065   1.37219
  Beta virt. eigenvalues --    1.38678   1.39241   1.39724   1.41146   1.41882
  Beta virt. eigenvalues --    1.43547   1.44407   1.48508   1.49166   1.49737
  Beta virt. eigenvalues --    1.51327   1.51966   1.53217   1.54787   1.56371
  Beta virt. eigenvalues --    1.58248   1.60721   1.62441   1.64444   1.69244
  Beta virt. eigenvalues --    1.70133   1.73288   1.74545   1.80137   1.86102
  Beta virt. eigenvalues --    2.05290   2.09828   2.17398   2.26040   2.37448
  Beta virt. eigenvalues --    2.47548   2.50426   2.52593   2.56334   2.63984
  Beta virt. eigenvalues --    2.65640   2.67151   2.70560   2.75264   2.76915
  Beta virt. eigenvalues --    2.80242   2.81781   2.82561   2.84226   2.86394
  Beta virt. eigenvalues --    2.87854   2.90968   2.92020   2.93784   2.94178
  Beta virt. eigenvalues --    2.97975   3.00867   3.05761   3.06199   3.08772
  Beta virt. eigenvalues --    3.10974   3.12192   3.13468   3.15618   3.20315
  Beta virt. eigenvalues --    3.26092   3.26612   3.29668   3.31721   3.31926
  Beta virt. eigenvalues --    3.32360   3.36863   3.39016   3.39166   3.41385
  Beta virt. eigenvalues --    3.44270   3.46716   3.49007   3.51540   3.55735
  Beta virt. eigenvalues --    3.57280   3.59649   3.61006   3.62228   3.65858
  Beta virt. eigenvalues --    3.66254   3.67822   3.70228   3.71545   3.72831
  Beta virt. eigenvalues --    3.74650   3.77753   3.78362   3.79406   3.81056
  Beta virt. eigenvalues --    3.82949   3.85535   3.88860   3.89597   3.91784
  Beta virt. eigenvalues --    3.96071   3.96497   3.98088   3.98809   4.02606
  Beta virt. eigenvalues --    4.06409   4.06819   4.12371   4.12915   4.14800
  Beta virt. eigenvalues --    4.16178   4.17638   4.20270   4.21265   4.26383
  Beta virt. eigenvalues --    4.26645   4.28597   4.32622   4.34357   4.36921
  Beta virt. eigenvalues --    4.41554   4.42406   4.43718   4.46275   4.47764
  Beta virt. eigenvalues --    4.50244   4.54170   4.55807   4.57052   4.59748
  Beta virt. eigenvalues --    4.63943   4.66477   4.68884   4.70679   4.73615
  Beta virt. eigenvalues --    4.89842   5.13618   5.22244   5.24258   5.29061
  Beta virt. eigenvalues --    5.35865   5.37473   5.38898   5.40880   5.47060
  Beta virt. eigenvalues --    5.50383   5.56484   5.56913   5.58358   5.63028
  Beta virt. eigenvalues --    5.67903   5.81242   5.84597   6.18996   6.45194
  Beta virt. eigenvalues --    6.66537   7.22382   7.25413   7.29034   7.60062
  Beta virt. eigenvalues --    7.74310  24.23111  24.27293  24.33016  24.41396
  Beta virt. eigenvalues --   24.42936  50.18801
          Condensed to atoms (all electrons):
              1          2          3          4          5          6
     1  C    5.610375   0.049209   0.003743  -0.072146  -0.061699  -0.038308
     2  C    0.049209   5.429250  -0.015217   0.090012   0.094870  -0.033469
     3  C    0.003743  -0.015217   5.333114   0.056231   0.197825  -0.017908
     4  C   -0.072146   0.090012   0.056231   5.404984  -0.201066   0.133596
     5  C   -0.061699   0.094870   0.197825  -0.201066   5.680224   0.100664
     6  O   -0.038308  -0.033469  -0.017908   0.133596   0.100664   8.137082
     7  H   -0.046785   0.423494   0.022780  -0.022397  -0.010913   0.006839
     8  H   -0.013450   0.468053  -0.026419  -0.071690   0.008922  -0.006285
     9  H    0.481618  -0.048625  -0.053388  -0.007688  -0.006929  -0.000154
    10  H    0.421165  -0.039166  -0.034107   0.015055   0.009427  -0.001631
    11  H   -0.039193   0.021507   0.430018  -0.008166  -0.035456   0.006028
    12  H   -0.023458  -0.024786   0.469502   0.008854  -0.064447  -0.008479
    13  H    0.007568  -0.063170   0.001934   0.450250  -0.010900  -0.028974
    14  H    0.008703  -0.038043   0.000835   0.443151   0.005140  -0.054082
    15  H    0.017290  -0.003037  -0.061157   0.002157   0.439831  -0.047316
              7          8          9         10         11         12
     1  C   -0.046785  -0.013450   0.481618   0.421165  -0.039193  -0.023458
     2  C    0.423494   0.468053  -0.048625  -0.039166   0.021507  -0.024786
     3  C    0.022780  -0.026419  -0.053388  -0.034107   0.430018   0.469502
     4  C   -0.022397  -0.071690  -0.007688   0.015055  -0.008166   0.008854
     5  C   -0.010913   0.008922  -0.006929   0.009427  -0.035456  -0.064447
     6  O    0.006839  -0.006285  -0.000154  -0.001631   0.006028  -0.008479
     7  H    0.521677  -0.023969  -0.007844  -0.003611  -0.000203  -0.000265
     8  H   -0.023969   0.490292   0.004222  -0.007254  -0.000196  -0.000089
     9  H   -0.007844   0.004222   0.484516  -0.021499  -0.007454   0.004105
    10  H   -0.003611  -0.007254  -0.021499   0.523524  -0.004106  -0.005340
    11  H   -0.000203  -0.000196  -0.007454  -0.004106   0.523740  -0.027008
    12  H   -0.000265  -0.000089   0.004105  -0.005340  -0.027008   0.494661
    13  H   -0.002652   0.004935  -0.000909  -0.000297  -0.000013  -0.000277
    14  H   -0.002956  -0.006452  -0.000078  -0.000277   0.000136  -0.000003
    15  H    0.000147  -0.000047  -0.000143  -0.000345  -0.002685  -0.003822
             13         14         15
     1  C    0.007568   0.008703   0.017290
     2  C   -0.063170  -0.038043  -0.003037
     3  C    0.001934   0.000835  -0.061157
     4  C    0.450250   0.443151   0.002157
     5  C   -0.010900   0.005140   0.439831
     6  O   -0.028974  -0.054082  -0.047316
     7  H   -0.002652  -0.002956   0.000147
     8  H    0.004935  -0.006452  -0.000047
     9  H   -0.000909  -0.000078  -0.000143
    10  H   -0.000297  -0.000277  -0.000345
    11  H   -0.000013   0.000136  -0.002685
    12  H   -0.000277  -0.000003  -0.003822
    13  H    0.511784  -0.026261   0.000567
    14  H   -0.026261   0.524847  -0.000113
    15  H    0.000567  -0.000113   0.501709
 Mulliken atomic charges:
              1
     1  C   -0.304632
     2  C   -0.310880
     3  C   -0.307785
     4  C   -0.221139
     5  C   -0.145494
     6  O   -0.147603
     7  H    0.146659
     8  H    0.179428
     9  H    0.180249
    10  H    0.148462
    11  H    0.143053
    12  H    0.180852
    13  H    0.156413
    14  H    0.145452
    15  H    0.156964
 Sum of Mulliken atomic charges =   0.00000
 Mulliken charges with hydrogens summed into heavy atoms:
              1
     1  C    0.024080
     2  C    0.015206
     3  C    0.016119
     4  C    0.080727
     5  C    0.011471
     6  O   -0.147603
 Sum of Mulliken charges with hydrogens summed into heavy atoms =   0.00000
          Atomic-Atomic Spin Densities.
              1          2          3          4          5          6
     1  C    0.010859   0.027692   0.029619   0.004197  -0.036361  -0.000032
     2  C    0.027692   0.036019  -0.043409  -0.030821   0.009849  -0.006990
     3  C    0.029619  -0.043409   0.016535   0.016780  -0.027978   0.007083
     4  C    0.004197  -0.030821   0.016780   0.042849  -0.008151   0.022134
     5  C   -0.036361   0.009849  -0.027978  -0.008151   1.140484  -0.152885
     6  O   -0.000032  -0.006990   0.007083   0.022134  -0.152885   0.161913
     7  H    0.002062  -0.005073   0.000302   0.001790   0.000782  -0.000025
     8  H   -0.006549   0.010905   0.002869  -0.004311  -0.004556   0.000264
     9  H   -0.006553   0.008163   0.004149  -0.004804  -0.005820   0.000655
    10  H   -0.000238  -0.000262  -0.003493   0.000964   0.002362  -0.000099
    11  H    0.007971   0.002733  -0.008469  -0.001170  -0.003973  -0.000256
    12  H   -0.011749  -0.005836   0.022250   0.004865  -0.015911   0.005614
    13  H   -0.004818   0.001328   0.008891   0.000844  -0.005526   0.000893
    14  H    0.003062  -0.003097  -0.003626  -0.000529   0.006920  -0.002323
    15  H    0.002364  -0.001999   0.010078   0.000138  -0.016735   0.002580
              7          8          9         10         11         12
     1  C    0.002062  -0.006549  -0.006553  -0.000238   0.007971  -0.011749
     2  C   -0.005073   0.010905   0.008163  -0.000262   0.002733  -0.005836
     3  C    0.000302   0.002869   0.004149  -0.003493  -0.008469   0.022250
     4  C    0.001790  -0.004311  -0.004804   0.000964  -0.001170   0.004865
     5  C    0.000782  -0.004556  -0.005820   0.002362  -0.003973  -0.015911
     6  O   -0.000025   0.000264   0.000655  -0.000099  -0.000256   0.005614
     7  H   -0.000887   0.000260   0.000063  -0.000258  -0.000019   0.000014
     8  H    0.000260  -0.001770  -0.000010   0.000575   0.000029  -0.000537
     9  H    0.000063  -0.000010  -0.011761   0.002337   0.000242  -0.000211
    10  H   -0.000258   0.000575   0.002337  -0.004563  -0.000106   0.000269
    11  H   -0.000019   0.000029   0.000242  -0.000106   0.006327  -0.002141
    12  H    0.000014  -0.000537  -0.000211   0.000269  -0.002141   0.034305
    13  H    0.000044  -0.000230  -0.000129   0.000106  -0.000046   0.000090
    14  H   -0.000168   0.000228   0.000059  -0.000044  -0.000002   0.000047
    15  H    0.000001   0.000075   0.000033  -0.000004   0.000638  -0.002743
             13         14         15
     1  C   -0.004818   0.003062   0.002364
     2  C    0.001328  -0.003097  -0.001999
     3  C    0.008891  -0.003626   0.010078
     4  C    0.000844  -0.000529   0.000138
     5  C   -0.005526   0.006920  -0.016735
     6  O    0.000893  -0.002323   0.002580
     7  H    0.000044  -0.000168   0.000001
     8  H   -0.000230   0.000228   0.000075
     9  H   -0.000129   0.000059   0.000033
    10  H    0.000106  -0.000044  -0.000004
    11  H   -0.000046  -0.000002   0.000638
    12  H    0.000090   0.000047  -0.002743
    13  H   -0.016739   0.002710  -0.000110
    14  H    0.002710  -0.003628  -0.000039
    15  H   -0.000110  -0.000039  -0.009431
 Mulliken atomic spin densities:
              1
     1  C    0.021527
     2  C   -0.000799
     3  C    0.031580
     4  C    0.044774
     5  C    0.882501
     6  O    0.038525
     7  H   -0.001112
     8  H   -0.002756
     9  H   -0.013587
    10  H   -0.002456
    11  H    0.001759
    12  H    0.028324
    13  H   -0.012693
    14  H   -0.000432
    15  H   -0.015154
 Sum of Mulliken atomic spin densities =   1.00000
 Electronic spatial extent (au):  <R**2>=            529.1037
 Charge=              0.0000 electrons
 Dipole moment (field-independent basis, Debye):
    X=             -0.7251    Y=              1.2277    Z=              0.1448  Tot=              1.4332
 Quadrupole moment (field-independent basis, Debye-Ang):
   XX=            -37.2232   YY=            -38.7751   ZZ=            -38.7778
   XY=              2.7683   XZ=              1.0491   YZ=              0.0108
 Traceless Quadrupole moment (field-independent basis, Debye-Ang):
   XX=              1.0355   YY=             -0.5164   ZZ=             -0.5191
   XY=              2.7683   XZ=              1.0491   YZ=              0.0108
 Octapole moment (field-independent basis, Debye-Ang**2):
  XXX=              5.3380  YYY=             -4.0386  ZZZ=             -3.2031  XYY=             -2.4209
  XXY=              1.0999  XXZ=             -0.1290  XZZ=              1.1672  YZZ=              1.2850
  YYZ=             -1.0498  XYZ=             -0.6560
 Hexadecapole moment (field-independent basis, Debye-Ang**3):
 XXXX=           -314.4074 YYYY=           -306.2648 ZZZZ=            -86.4290 XXXY=              1.0818
 XXXZ=             -3.5138 YYYX=              4.2655 YYYZ=              5.1860 ZZZX=              1.4725
 ZZZY=              3.9121 XXYY=           -109.5366 XXZZ=            -68.1250 YYZZ=            -70.1824
 XXYZ=             -1.1782 YYXZ=              2.6937 ZZXY=             -1.0782
 N-N= 2.486420107744D+02 E-N=-1.685083873873D+03  KE= 4.037006126605D+02
                          Isotropic Fermi Contact Couplings
        Atom                 a.u.       MegaHertz       Gauss      10(-4) cm-1
     1  C(13)              0.01120      12.59645       4.49473       4.20172
     2  C(13)              0.00307       3.44642       1.22977       1.14960
     3  C(13)              0.00928      10.43278       3.72267       3.48000
     4  C(13)              0.01791      20.13671       7.18528       6.71688
     5  C(13)              0.37850     425.50567     151.83100     141.93341
     6  O(17)              0.01004      -6.08789      -2.17231      -2.03070
     7  H(1)              -0.00008      -0.37155      -0.13258      -0.12394
     8  H(1)               0.00009       0.40657       0.14508       0.13562
     9  H(1)              -0.00035      -1.58071      -0.56404      -0.52727
    10  H(1)              -0.00067      -2.98519      -1.06519      -0.99575
    11  H(1)               0.00048       2.13706       0.76256       0.71285
    12  H(1)               0.01722      76.98046      27.46854      25.67792
    13  H(1)              -0.00060      -2.69332      -0.96104      -0.89840
    14  H(1)               0.00014       0.64261       0.22930       0.21435
    15  H(1)              -0.00146      -6.54620      -2.33585      -2.18358
 --------------------------------------------------------
       Center         ----  Spin Dipole Couplings  ----
                      3XX-RR        3YY-RR        3ZZ-RR
 --------------------------------------------------------
     1   Atom       -0.006784      0.017913     -0.011128
     2   Atom       -0.004147      0.008682     -0.004534
     3   Atom        0.005511     -0.001660     -0.003850
     4   Atom       -0.000998      0.014939     -0.013941
     5   Atom       -0.453022     -0.460069      0.913091
     6   Atom       -0.313967     -0.215915      0.529882
     7   Atom       -0.002083      0.004559     -0.002475
     8   Atom       -0.003029      0.003372     -0.000343
     9   Atom       -0.005264      0.009579     -0.004315
    10   Atom       -0.002241      0.004788     -0.002547
    11   Atom        0.016558     -0.008173     -0.008385
    12   Atom       -0.001672     -0.003914      0.005587
    13   Atom        0.005147      0.000098     -0.005245
    14   Atom        0.004547     -0.000461     -0.004086
    15   Atom       -0.045183      0.054795     -0.009612
 --------------------------------------------------------
                        XY            XZ            YZ
 --------------------------------------------------------
     1   Atom       -0.000085     -0.000026     -0.005175
     2   Atom        0.001236     -0.001922     -0.003061
     3   Atom       -0.028503      0.027914     -0.025018
     4   Atom        0.019349     -0.007074     -0.006731
     5   Atom        0.021110      0.226755      0.128034
     6   Atom       -0.013431      0.086371     -0.151910
     7   Atom        0.002062     -0.000263     -0.000455
     8   Atom        0.001661     -0.000795     -0.004438
     9   Atom       -0.005548     -0.000531      0.004354
    10   Atom       -0.003396      0.000959     -0.001838
    11   Atom       -0.009285      0.002404     -0.000909
    12   Atom       -0.006601      0.007918     -0.005135
    13   Atom        0.013079      0.004894      0.006320
    14   Atom        0.006818     -0.001474     -0.001013
    15   Atom        0.029307      0.013170      0.021561
 --------------------------------------------------------


 ---------------------------------------------------------------------------------
              Anisotropic Spin Dipole Couplings in Principal Axis System
 ---------------------------------------------------------------------------------

       Atom             a.u.   MegaHertz   Gauss  10(-4) cm-1        Axes

              Baa    -0.0120    -1.613    -0.576    -0.538  0.0076  0.1703  0.9854
     1 C(13)  Bbb    -0.0068    -0.910    -0.325    -0.304  1.0000  0.0018 -0.0080
              Bcc     0.0188     2.524     0.901     0.842 -0.0031  0.9854 -0.1703
 
              Baa    -0.0064    -0.863    -0.308    -0.288  0.6039  0.1105  0.7894
     2 C(13)  Bbb    -0.0031    -0.418    -0.149    -0.140  0.7881 -0.2306 -0.5707
              Bcc     0.0096     1.282     0.457     0.427  0.1190  0.9668 -0.2263
 
              Baa    -0.0279    -3.746    -1.337    -1.250 -0.2497  0.5120  0.8219
     3 C(13)  Bbb    -0.0267    -3.589    -1.281    -1.197  0.7352  0.6526 -0.1832
              Bcc     0.0547     7.335     2.617     2.447  0.6302 -0.5585  0.5394
 
              Baa    -0.0173    -2.322    -0.829    -0.775  0.5366 -0.1486  0.8307
     4 C(13)  Bbb    -0.0127    -1.699    -0.606    -0.567  0.6381 -0.5728 -0.5146
              Bcc     0.0300     4.021     1.435     1.341  0.5522  0.8061 -0.2125
 
              Baa    -0.4897   -65.711   -23.447   -21.919  0.9873 -0.0228 -0.1575
     5 C(13)  Bbb    -0.4719   -63.325   -22.596   -21.123  0.0081  0.9956 -0.0934
              Bcc     0.9616   129.036    46.043    43.042  0.1589  0.0909  0.9831
 
              Baa    -0.3228    23.355     8.334     7.790  0.9942 -0.0244 -0.1051
     6 O(17)  Bbb    -0.2455    17.766     6.339     5.926  0.0439  0.9813  0.1874
              Bcc     0.5683   -41.121   -14.673   -13.716  0.0985 -0.1909  0.9767
 
              Baa    -0.0027    -1.463    -0.522    -0.488  0.8514 -0.2105  0.4805
     7 H(1)   Bbb    -0.0024    -1.301    -0.464    -0.434 -0.4469  0.1886  0.8745
              Bcc     0.0052     2.764     0.986     0.922  0.2747  0.9592 -0.0665
 
              Baa    -0.0036    -1.916    -0.684    -0.639  0.7446 -0.4760 -0.4681
     8 H(1)   Bbb    -0.0031    -1.642    -0.586    -0.548  0.6414  0.3159  0.6991
              Bcc     0.0067     3.558     1.270     1.187  0.1849  0.8208 -0.5405
 
              Baa    -0.0075    -3.979    -1.420    -1.327  0.8507  0.3720 -0.3715
     9 H(1)   Bbb    -0.0051    -2.703    -0.964    -0.902  0.4350 -0.1012  0.8947
              Bcc     0.0125     6.682     2.384     2.229 -0.2952  0.9227  0.2479
 
              Baa    -0.0037    -1.959    -0.699    -0.653  0.9109  0.3055 -0.2773
    10 H(1)   Bbb    -0.0030    -1.576    -0.562    -0.526  0.1833  0.3025  0.9354
              Bcc     0.0066     3.535     1.261     1.179 -0.3696  0.9029 -0.2195
 
              Baa    -0.0113    -6.016    -2.147    -2.007  0.3133  0.9489  0.0379
    11 H(1)   Bbb    -0.0086    -4.596    -1.640    -1.533 -0.0978 -0.0075  0.9952
              Bcc     0.0199    10.612     3.787     3.540  0.9446 -0.3155  0.0905
 
              Baa    -0.0096    -5.149    -1.837    -1.717  0.7071  0.6944 -0.1335
    12 H(1)   Bbb    -0.0045    -2.416    -0.862    -0.806 -0.4587  0.5941  0.6607
              Bcc     0.0142     7.565     2.699     2.523  0.5381 -0.4060  0.7387
 
              Baa    -0.0115    -6.120    -2.184    -2.041 -0.4915  0.7739 -0.3993
    13 H(1)   Bbb    -0.0070    -3.758    -1.341    -1.254 -0.4895  0.1338  0.8617
              Bcc     0.0185     9.878     3.525     3.295  0.7203  0.6190  0.3130
 
              Baa    -0.0052    -2.786    -0.994    -0.929 -0.5737  0.8189 -0.0139
    14 H(1)   Bbb    -0.0043    -2.305    -0.823    -0.769  0.0987  0.0859  0.9914
              Bcc     0.0095     5.091     1.817     1.698  0.8131  0.5674 -0.1301
 
              Baa    -0.0544   -29.022   -10.356    -9.681  0.9591 -0.2229 -0.1747
    15 H(1)   Bbb    -0.0158    -8.416    -3.003    -2.807  0.0953 -0.3269  0.9402
              Bcc     0.0702    37.438    13.359    12.488  0.2667  0.9184  0.2922
 

 ---------------------------------------------------------------------------------

 Calling FoFJK, ICntrl=      2127 FMM=F ISym2X=0 I1Cent= 0 IOpClX= 1 NMat=1 NMatS=1 NMatT=0.
 ***** Axes restored to original set *****
 -------------------------------------------------------------------
 Center     Atomic                   Forces (Hartrees/Bohr)
 Number     Number              X              Y              Z
 -------------------------------------------------------------------
      1        6           0.005591064   -0.012056978   -0.001617015
      2        6          -0.002141271   -0.004467437   -0.001224214
      3        6          -0.002717017   -0.007153676    0.019126459
      4        6          -0.019229598   -0.016255095   -0.012184611
      5        6           0.021224854    0.021809932   -0.051058145
      6        8           0.010313574   -0.003910070    0.034632254
      7        1           0.005712632    0.011056759   -0.002518375
      8        1          -0.004066242   -0.001715918    0.011640477
      9        1           0.003128112    0.004593236   -0.011014644
     10        1          -0.007337559    0.005823928    0.008482696
     11        1          -0.007825455    0.003410885   -0.009531906
     12        1          -0.004602924    0.000081046    0.010357286
     13        1           0.006241437    0.004413156   -0.010658305
     14        1           0.011171997    0.002811432    0.007466261
     15        1          -0.015463603   -0.008441201    0.008101781
 -------------------------------------------------------------------
 Cartesian Forces:  Max     0.051058145 RMS     0.013269114

 GradGradGradGradGradGradGradGradGradGradGradGradGradGradGradGradGradGrad
 Berny optimization.
 Internal  Forces:  Max     0.024663543 RMS     0.006438709
 Search for a local minimum.
 Step number   1 out of a maximum of   91
 All quantities printed in internal units (Hartrees-Bohrs-Radians)
 Swaping is turned off.
 Second derivative matrix not updated -- first step.
 ITU=  0
     Eigenvalues ---    0.00535   0.00674   0.01581   0.02512   0.03438
     Eigenvalues ---    0.03850   0.04570   0.04852   0.05219   0.05404
     Eigenvalues ---    0.06005   0.06330   0.07698   0.07828   0.07939
     Eigenvalues ---    0.08545   0.08748   0.10561   0.11496   0.12112
     Eigenvalues ---    0.13040   0.16202   0.16653   0.22383   0.27808
     Eigenvalues ---    0.28588   0.28739   0.29170   0.32062   0.32333
     Eigenvalues ---    0.32383   0.32389   0.32475   0.32480   0.32526
     Eigenvalues ---    0.32564   0.32576   0.41919   0.42269
 Quadratic step=7.728D-01 exceeds max=3.000D-01 adjusted using Lamda=-5.635D-02.
 Angle between NR and scaled steps=  30.17 degrees.
 Angle between quadratic step and forces=  34.74 degrees.
 Linear search not attempted -- option 19 set.
 Iteration  1 RMS(Cart)=  0.02564368 RMS(Int)=  0.00201968
 Iteration  2 RMS(Cart)=  0.00180703 RMS(Int)=  0.00132352
 Iteration  3 RMS(Cart)=  0.00000231 RMS(Int)=  0.00132351
 Iteration  4 RMS(Cart)=  0.00000001 RMS(Int)=  0.00132351
 Variable       Old X    -DE/DX   Delta X   Delta X   Delta X     New X
                                 (Linear)    (Quad)   (Total)
    R1        2.89630   0.00072   0.00000   0.00032   0.00020   2.89651
    R2        2.89287   0.00162   0.00000   0.00283   0.00318   2.89605
    R3        2.10238  -0.01232   0.00000  -0.03244  -0.03244   2.06994
    R4        2.09974  -0.01223   0.00000  -0.03209  -0.03209   2.06765
    R5        2.90227  -0.00653   0.00000  -0.01925  -0.01950   2.88277
    R6        2.09983  -0.01244   0.00000  -0.03265  -0.03265   2.06718
    R7        2.10149  -0.01230   0.00000  -0.03234  -0.03234   2.06915
    R8        2.89224  -0.01152   0.00000  -0.03224  -0.03200   2.86023
    R9        2.09891  -0.01244   0.00000  -0.03261  -0.03261   2.06631
   R10        2.10139  -0.01076   0.00000  -0.02829  -0.02829   2.07310
   R11        2.67051   0.00415   0.00000   0.00978   0.00943   2.67994
   R12        2.10730  -0.01276   0.00000  -0.03384  -0.03384   2.07346
   R13        2.09824  -0.01271   0.00000  -0.03329  -0.03329   2.06495
   R14        2.66590  -0.02466   0.00000  -0.04868  -0.04857   2.61733
   R15        2.09803  -0.01383   0.00000  -0.03620  -0.03620   2.06183
    A1        1.92993  -0.00376   0.00000  -0.00386  -0.00424   1.92569
    A2        1.90718   0.00061   0.00000  -0.00195  -0.00178   1.90540
    A3        1.91590   0.00207   0.00000   0.00819   0.00824   1.92414
    A4        1.90747   0.00159   0.00000   0.00202   0.00191   1.90938
    A5        1.91581   0.00113   0.00000   0.00457   0.00488   1.92069
    A6        1.88699  -0.00160   0.00000  -0.00913  -0.00918   1.87781
    A7        1.92094  -0.00204   0.00000  -0.00006  -0.00082   1.92012
    A8        1.91521   0.00253   0.00000   0.00887   0.00919   1.92440
    A9        1.91092   0.00103   0.00000   0.00922   0.00933   1.92025
   A10        1.91663  -0.00103   0.00000  -0.01026  -0.00983   1.90680
   A11        1.90764   0.00048   0.00000  -0.00220  -0.00219   1.90545
   A12        1.89222  -0.00095   0.00000  -0.00564  -0.00585   1.88637
   A13        1.90669   0.00546   0.00000   0.02839   0.02739   1.93408
   A14        1.91420   0.00160   0.00000   0.01600   0.01564   1.92984
   A15        1.91854  -0.00115   0.00000  -0.00561  -0.00493   1.91361
   A16        1.91316  -0.00044   0.00000   0.00499   0.00450   1.91766
   A17        1.91317  -0.00529   0.00000  -0.03629  -0.03594   1.87722
   A18        1.89806  -0.00023   0.00000  -0.00773  -0.00789   1.89017
   A19        1.92935   0.00222   0.00000   0.01553   0.01330   1.94266
   A20        1.93252  -0.00318   0.00000  -0.01667  -0.01590   1.91661
   A21        1.89603   0.00693   0.00000   0.03876   0.03906   1.93509
   A22        1.94026  -0.00237   0.00000  -0.01987  -0.01934   1.92091
   A23        1.89374  -0.00389   0.00000  -0.02292  -0.02261   1.87112
   A24        1.87004   0.00043   0.00000   0.00613   0.00581   1.87585
   A25        1.92830   0.00691   0.00000   0.05130   0.04662   1.97493
   A26        1.91897   0.01610   0.00000   0.10663   0.10318   2.02216
   A27        1.90993  -0.00381   0.00000   0.01195   0.00394   1.91387
   A28        1.89232   0.00771   0.00000   0.04759   0.04651   1.93882
    D1       -0.84972  -0.00118   0.00000  -0.01389  -0.01337  -0.86310
    D2       -2.96082  -0.00022   0.00000  -0.00681  -0.00653  -2.96735
    D3        1.24753  -0.00121   0.00000  -0.01084  -0.01071   1.23682
    D4        1.25055  -0.00117   0.00000  -0.01505  -0.01478   1.23577
    D5       -0.86055  -0.00021   0.00000  -0.00797  -0.00794  -0.86848
    D6       -2.93538  -0.00120   0.00000  -0.01200  -0.01212  -2.94750
    D7       -2.96602  -0.00152   0.00000  -0.02248  -0.02215  -2.98817
    D8        1.20607  -0.00056   0.00000  -0.01539  -0.01531   1.19076
    D9       -0.86877  -0.00155   0.00000  -0.01942  -0.01949  -0.88826
   D10        0.86575  -0.00342   0.00000  -0.03153  -0.03157   0.83418
   D11        2.96300   0.00038   0.00000   0.00187   0.00191   2.96491
   D12       -1.23417   0.00038   0.00000  -0.00118  -0.00120  -1.23537
   D13       -1.23435  -0.00285   0.00000  -0.02800  -0.02794  -1.26229
   D14        0.86290   0.00095   0.00000   0.00540   0.00554   0.86844
   D15        2.94891   0.00095   0.00000   0.00235   0.00243   2.95135
   D16        2.98210  -0.00252   0.00000  -0.02080  -0.02080   2.96130
   D17       -1.20383   0.00128   0.00000   0.01260   0.01268  -1.19116
   D18        0.88218   0.00128   0.00000   0.00955   0.00957   0.89175
   D19        0.99738  -0.00210   0.00000  -0.00581  -0.00623   0.99115
   D20       -1.16071   0.00160   0.00000   0.02037   0.02028  -1.14043
   D21        3.07343  -0.00126   0.00000  -0.00077  -0.00105   3.07238
   D22        3.10762  -0.00092   0.00000  -0.00142  -0.00165   3.10598
   D23        0.94953   0.00277   0.00000   0.02476   0.02486   0.97439
   D24       -1.09951  -0.00009   0.00000   0.00363   0.00353  -1.09598
   D25       -1.10185  -0.00241   0.00000  -0.01576  -0.01583  -1.11769
   D26        3.02324   0.00129   0.00000   0.01042   0.01068   3.03391
   D27        0.97420  -0.00157   0.00000  -0.01071  -0.01066   0.96354
   D28       -1.04036   0.00872   0.00000   0.09160   0.09351  -0.94685
   D29        3.13291  -0.00150   0.00000  -0.02605  -0.02833   3.10458
   D30       -3.13825   0.00367   0.00000   0.05148   0.05357  -3.08468
   D31        1.03502  -0.00655   0.00000  -0.06617  -0.06827   0.96675
   D32        1.06285   0.00744   0.00000   0.07998   0.08176   1.14461
   D33       -1.04707  -0.00278   0.00000  -0.03767  -0.04008  -1.08715
   D34       -1.16355   0.00762   0.00000   0.06944   0.06890  -1.09465
   D35        0.99008   0.00346   0.00000   0.04510   0.04438   1.03445
   D36        3.04220   0.00023   0.00000   0.02704   0.02737   3.06957
   D37        1.19059  -0.01381   0.00000  -0.11547  -0.11603   1.07456
   D38       -2.97730   0.00815   0.00000   0.05770   0.05567  -2.92163
         Item               Value     Threshold  Converged?
 Maximum Force            0.024664     0.000002     NO 
 RMS     Force            0.006439     0.000001     NO 
 Maximum Displacement     0.098842     0.000006     NO 
 RMS     Displacement     0.025869     0.000004     NO 
 Predicted change in Energy=-9.805859D-03
 GradGradGradGradGradGradGradGradGradGradGradGradGradGradGradGradGradGrad

                          Input orientation:                          
 ---------------------------------------------------------------------
 Center     Atomic      Atomic             Coordinates (Angstroms)
 Number     Number       Type             X           Y           Z
 ---------------------------------------------------------------------
      1          6           0        0.593849   -1.042673    0.066213
      2          6           0       -0.716625   -0.792405   -0.688368
      3          6           0        1.363551    0.270200    0.246644
      4          6           0       -1.471351    0.370813   -0.052405
      5          6           0        0.451133    1.362025    0.762695
      6          8           0       -0.676493    1.544849   -0.020473
      7          1           0       -1.345278   -1.687264   -0.662836
      8          1           0       -0.506299   -0.554640   -1.736289
      9          1           0        0.367070   -1.469503    1.049174
     10          1           0        1.209827   -1.767277   -0.474796
     11          1           0        2.203219    0.132051    0.933296
     12          1           0        1.760756    0.600767   -0.721054
     13          1           0       -1.783861    0.100137    0.963949
     14          1           0       -2.373905    0.606862   -0.621372
     15          1           0        0.924308    2.326059    0.955522
 ---------------------------------------------------------------------
                    Distance matrix (angstroms):
                    1          2          3          4          5
     1  C    0.000000
     2  C    1.532765   0.000000
     3  C    1.532525   2.516051   0.000000
     4  C    2.505407   1.525496   2.852406   0.000000
     5  C    2.507594   2.847949   1.513571   2.311457   0.000000
     6  O    2.883844   2.431143   2.420302   1.418161   1.385033
     7  H    2.169614   1.093905   3.463607   2.150396   3.815415
     8  H    2.167375   1.094946   2.847582   2.150176   3.291687
     9  H    1.095366   2.156829   2.159536   2.824895   2.847224
    10  H    1.094153   2.169610   2.166892   3.455222   3.449570
    11  H    2.172990   3.465531   1.093443   3.811965   2.147497
    12  H    2.163876   2.842431   1.097035   3.308547   2.120409
    13  H    2.786655   2.160041   3.232592   1.097225   2.574503
    14  H    3.464289   2.170026   3.851671   1.092724   3.235236
    15  H    3.499775   3.888426   2.218557   3.252397   1.091072
                    6          7          8          9         10
     6  O    0.000000
     7  H    3.362508   0.000000
     8  H    2.716772   1.771729   0.000000
     9  H    3.364444   2.431159   3.059175   0.000000
    10  H    3.838593   2.563264   2.450907   1.766747   0.000000
    11  H    3.346403   4.295274   3.865193   2.439231   2.564566
    12  H    2.705972   3.858228   2.739563   3.059753   2.443727
    13  H    2.069431   2.456336   3.058134   2.664120   3.810432
    14  H    2.030298   2.514519   2.465782   3.822952   4.301297
    15  H    2.031112   4.886396   4.194152   3.837391   4.345426
                   11         12         13         14         15
    11  H    0.000000
    12  H    1.775484   0.000000
    13  H    3.987326   3.956536   0.000000
    14  H    4.857212   4.135867   1.765832   0.000000
    15  H    2.539641   2.546994   3.505565   4.039857   0.000000
 Stoichiometry    C5H9O(2)
 Framework group  C1[X(C5H9O)]
 Deg. of freedom    39
 Full point group                 C1      NOp   1
 Largest Abelian subgroup         C1      NOp   1
 Largest concise Abelian subgroup C1      NOp   1
                         Standard orientation:                         
 ---------------------------------------------------------------------
 Center     Atomic      Atomic             Coordinates (Angstroms)
 Number     Number       Type             X           Y           Z
 ---------------------------------------------------------------------
      1          6           0       -0.979333    1.055226    0.211380
      2          6           0        0.460288    1.318880   -0.243971
      3          6           0       -1.400029   -0.372697   -0.152879
      4          6           0        1.371217    0.188148    0.223781
      5          6           0       -0.337295   -1.368299    0.259756
      6          8           0        0.915923   -1.069180   -0.248464
      7          1           0        0.820447    2.266067    0.168039
      8          1           0        0.501763    1.385691   -1.336090
      9          1           0       -1.043243    1.187634    1.296833
     10          1           0       -1.660552    1.776266   -0.250369
     11          1           0       -2.351463   -0.626068    0.322721
     12          1           0       -1.525727   -0.454198   -1.239638
     13          1           0        1.423685    0.182011    1.319733
     14          1           0        2.387726    0.326074   -0.152691
     15          1           0       -0.569109   -2.417579    0.070779
 ---------------------------------------------------------------------
 Rotational constants (GHZ):      4.8783487      4.6246918      2.6459489
 Standard basis: 6-311+G(2df,2p) (5D, 7F)
 There are   285 symmetry adapted basis functions of A   symmetry.
 Integral buffers will be    131072 words long.
 Raffenetti 2 integral format.
 Two-electron integral symmetry is turned on.
   285 basis functions,   411 primitive gaussians,   315 cartesian basis functions
    24 alpha electrons       23 beta electrons
       nuclear repulsion energy       249.7006429040 Hartrees.
 NAtoms=   15 NActive=   15 NUniq=   15 SFac= 1.00D+00 NAtFMM=   50 NAOKFM=F Big=F
 One-electron integrals computed using PRISM.
 NBasis=   285 RedAO= T  NBF=   285
 NBsUse=   285 1.00D-06 NBFU=   285
 Initial guess read from the read-write file.
 B after Tr=     0.000000    0.000000    0.000000
         Rot=    1.000000    0.000000    0.000000    0.000000 Ang=   0.00 deg.
 Initial guess orbital symmetries:
 Alpha Orbitals:
       Occupied  (A) (A) (A) (A) (A) (A) (A) (A) (A) (A) (A) (A)
                 (A) (A) (A) (A) (A) (A) (A) (A) (A) (A) (A) (A)
       Virtual   (A) (A) (A) (A) (A) (A) (A) (A) (A) (A) (A) (A)
                 (A) (A) (A) (A) (A) (A) (A) (A) (A) (A) (A) (A)
                 (A) (A) (A) (A) (A) (A) (A) (A) (A) (A) (A) (A)
                 (A) (A) (A) (A) (A) (A) (A) (A) (A) (A) (A) (A)
                 (A) (A) (A) (A) (A) (A) (A) (A) (A) (A) (A) (A)
                 (A) (A) (A) (A) (A) (A) (A) (A) (A) (A) (A) (A)
                 (A) (A) (A) (A) (A) (A) (A) (A) (A) (A) (A) (A)
                 (A) (A) (A) (A) (A) (A) (A) (A) (A) (A) (A) (A)
                 (A) (A) (A) (A) (A) (A) (A) (A) (A) (A) (A) (A)
                 (A) (A) (A) (A) (A) (A) (A) (A) (A) (A) (A) (A)
                 (A) (A) (A) (A) (A) (A) (A) (A) (A) (A) (A) (A)
                 (A) (A) (A) (A) (A) (A) (A) (A) (A) (A) (A) (A)
                 (A) (A) (A) (A) (A) (A) (A) (A) (A) (A) (A) (A)
                 (A) (A) (A) (A) (A) (A) (A) (A) (A) (A) (A) (A)
                 (A) (A) (A) (A) (A) (A) (A) (A) (A) (A) (A) (A)
                 (A) (A) (A) (A) (A) (A) (A) (A) (A) (A) (A) (A)
                 (A) (A) (A) (A) (A) (A) (A) (A) (A) (A) (A) (A)
                 (A) (A) (A) (A) (A) (A) (A) (A) (A) (A) (A) (A)
                 (A) (A) (A) (A) (A) (A) (A) (A) (A) (A) (A) (A)
                 (A) (A) (A) (A) (A) (A) (A) (A) (A) (A) (A) (A)
                 (A) (A) (A) (A) (A) (A) (A) (A) (A) (A) (A) (A)
                 (A) (A) (A) (A) (A) (A) (A) (A) (A)
 Beta  Orbitals:
       Occupied  (A) (A) (A) (A) (A) (A) (A) (A) (A) (A) (A) (A)
                 (A) (A) (A) (A) (A) (A) (A) (A) (A) (A) (A)
       Virtual   (A) (A) (A) (A) (A) (A) (A) (A) (A) (A) (A) (A)
                 (A) (A) (A) (A) (A) (A) (A) (A) (A) (A) (A) (A)
                 (A) (A) (A) (A) (A) (A) (A) (A) (A) (A) (A) (A)
                 (A) (A) (A) (A) (A) (A) (A) (A) (A) (A) (A) (A)
                 (A) (A) (A) (A) (A) (A) (A) (A) (A) (A) (A) (A)
                 (A) (A) (A) (A) (A) (A) (A) (A) (A) (A) (A) (A)
                 (A) (A) (A) (A) (A) (A) (A) (A) (A) (A) (A) (A)
                 (A) (A) (A) (A) (A) (A) (A) (A) (A) (A) (A) (A)
                 (A) (A) (A) (A) (A) (A) (A) (A) (A) (A) (A) (A)
                 (A) (A) (A) (A) (A) (A) (A) (A) (A) (A) (A) (A)
                 (A) (A) (A) (A) (A) (A) (A) (A) (A) (A) (A) (A)
                 (A) (A) (A) (A) (A) (A) (A) (A) (A) (A) (A) (A)
                 (A) (A) (A) (A) (A) (A) (A) (A) (A) (A) (A) (A)
                 (A) (A) (A) (A) (A) (A) (A) (A) (A) (A) (A) (A)
                 (A) (A) (A) (A) (A) (A) (A) (A) (A) (A) (A) (A)
                 (A) (A) (A) (A) (A) (A) (A) (A) (A) (A) (A) (A)
                 (A) (A) (A) (A) (A) (A) (A) (A) (A) (A) (A) (A)
                 (A) (A) (A) (A) (A) (A) (A) (A) (A) (A) (A) (A)
                 (A) (A) (A) (A) (A) (A) (A) (A) (A) (A) (A) (A)
                 (A) (A) (A) (A) (A) (A) (A) (A) (A) (A) (A) (A)
                 (A) (A) (A) (A) (A) (A) (A) (A) (A) (A) (A) (A)
                 (A) (A) (A) (A) (A) (A) (A) (A) (A) (A)
 Initial guess <Sx>= 0.0000 <Sy>= 0.0000 <Sz>= 0.5000 <S**2>= 0.7540 S= 0.5020
 Harris functional with IExCor= 1009 diagonalized for initial guess.
 ExpMin= 4.38D-02 ExpMax= 8.59D+03 ExpMxC= 1.30D+03 IAcc=2 IRadAn=         0 AccDes= 0.00D+00
 HarFok:  IExCor= 1009 AccDes= 0.00D+00 IRadAn=         0 IDoV= 1
 ScaDFX=  1.000000  1.000000  1.000000  1.000000
 FoFCou: FMM=F IPFlag=           0 FMFlag=      100000 FMFlg1=           0
         NFxFlg=           0 DoJE=T BraDBF=F KetDBF=T FulRan=T
         Omega=  0.000000  0.000000  1.000000  0.000000  0.000000 ICntrl=     500 IOpCl=  0
         NMat0=    1 NMatS0=    1 NMatT0=    0 NMatD0=    1 NMtDS0=    0 NMtDT0=    0
         I1Cent=           4 NGrid=           0.
 Petite list used in FoFCou.
 Requested convergence on RMS density matrix=1.00D-08 within 128 cycles.
 Requested convergence on MAX density matrix=1.00D-06.
 Requested convergence on             energy=1.00D-06.
 No special actions if energy rises.
 SCF Done:  E(UM062X) =  -271.069879088     A.U. after   13 cycles
             Convg  =    0.4363D-08             -V/T =  2.0042
 <Sx>= 0.0000 <Sy>= 0.0000 <Sz>= 0.5000 <S**2>= 0.7540 S= 0.5020
 <L.S>= 0.000000000000E+00
 Annihilation of the first spin contaminant:
 S**2 before annihilation     0.7540,   after     0.7500
 Calling FoFJK, ICntrl=      2127 FMM=F ISym2X=0 I1Cent= 0 IOpClX= 1 NMat=1 NMatS=1 NMatT=0.
 ***** Axes restored to original set *****
 -------------------------------------------------------------------
 Center     Atomic                   Forces (Hartrees/Bohr)
 Number     Number              X              Y              Z
 -------------------------------------------------------------------
      1        6           0.000790711   -0.000573733   -0.002270612
      2        6           0.001204531    0.000275309    0.002296819
      3        6          -0.006013692   -0.002043914    0.011633752
      4        6          -0.006410134   -0.007816301   -0.007149149
      5        6           0.006005753    0.007915146   -0.027586541
      6        8           0.004209537   -0.002647837    0.019333846
      7        1           0.000582995    0.001753700   -0.001463188
      8        1          -0.000666631    0.000003379    0.001643880
      9        1           0.000643488    0.001142145   -0.001329575
     10        1          -0.001504221    0.000635309    0.002252588
     11        1          -0.000724009    0.000974841   -0.002593676
     12        1           0.000826387   -0.000102905    0.000218930
     13        1           0.001983267    0.002130160   -0.000241156
     14        1           0.003115083    0.001603683    0.000431040
     15        1          -0.004043064   -0.003248981    0.004823041
 -------------------------------------------------------------------
 Cartesian Forces:  Max     0.027586541 RMS     0.006146698

 GradGradGradGradGradGradGradGradGradGradGradGradGradGradGradGradGradGrad
 Berny optimization.
 Using GDIIS optimizer.
 Internal  Forces:  Max     0.012028383 RMS     0.002416065
 Search for a local minimum.
 Step number   2 out of a maximum of   91
 All quantities printed in internal units (Hartrees-Bohrs-Radians)
 Swaping is turned off.
 Update second derivatives using D2CorX and points    1    2
 DE= -9.86D-03 DEPred=-9.81D-03 R= 1.01D+00
 SS=  1.41D+00  RLast= 2.99D-01 DXNew= 5.0454D-01 8.9796D-01
 Trust test= 1.01D+00 RLast= 2.99D-01 DXMaxT set to 5.05D-01
 ITU=  1  0
     Eigenvalues ---    0.00539   0.00645   0.01443   0.02286   0.03311
     Eigenvalues ---    0.03657   0.04517   0.04804   0.05066   0.05350
     Eigenvalues ---    0.05942   0.06177   0.07690   0.07846   0.07925
     Eigenvalues ---    0.08904   0.09142   0.11227   0.11608   0.12212
     Eigenvalues ---    0.12955   0.16645   0.16992   0.22395   0.26802
     Eigenvalues ---    0.27972   0.28630   0.28778   0.31600   0.32115
     Eigenvalues ---    0.32348   0.32397   0.32470   0.32494   0.32528
     Eigenvalues ---    0.32559   0.33160   0.40231   0.42018
 DIIS coeff's:      1.64793     -0.64793
 Cosine:  1.000 >  0.970
 Length:  0.987
 GDIIS step was calculated using  2 of the last  2 vectors.
 Iteration  1 RMS(Cart)=  0.04928747 RMS(Int)=  0.00413757
 Iteration  2 RMS(Cart)=  0.00316008 RMS(Int)=  0.00288158
 Iteration  3 RMS(Cart)=  0.00001076 RMS(Int)=  0.00288156
 Iteration  4 RMS(Cart)=  0.00000009 RMS(Int)=  0.00288156
 Variable       Old X    -DE/DX   Delta X   Delta X   Delta X     New X
                                  (DIIS)     (GDIIS)  (Total)
    R1        2.89651  -0.00024   0.00013  -0.00907  -0.00954   2.88696
    R2        2.89605  -0.00030   0.00206  -0.01096  -0.00819   2.88786
    R3        2.06994  -0.00178  -0.02102   0.01616  -0.00486   2.06508
    R4        2.06765  -0.00238  -0.02079   0.01287  -0.00793   2.05972
    R5        2.88277  -0.00236  -0.01263   0.00002  -0.01343   2.86934
    R6        2.06718  -0.00181  -0.02115   0.01618  -0.00497   2.06221
    R7        2.06915  -0.00170  -0.02095   0.01650  -0.00445   2.06470
    R8        2.86023  -0.00599  -0.02074  -0.00526  -0.02510   2.83513
    R9        2.06631  -0.00230  -0.02113   0.01365  -0.00748   2.05883
   R10        2.07310   0.00007  -0.01833   0.02236   0.00403   2.07713
   R11        2.67994   0.00132   0.00611   0.00268   0.00809   2.68802
   R12        2.07346  -0.00131  -0.02193   0.01960  -0.00233   2.07113
   R13        2.06495  -0.00246  -0.02157   0.01342  -0.00815   2.05680
   R14        2.61733  -0.01203  -0.03147  -0.00400  -0.03493   2.58240
   R15        2.06183  -0.00377  -0.02346   0.00903  -0.01443   2.04740
    A1        1.92569  -0.00072  -0.00275  -0.01031  -0.01579   1.90990
    A2        1.90540  -0.00011  -0.00115   0.00368   0.00351   1.90891
    A3        1.92414   0.00088   0.00534   0.00337   0.00930   1.93344
    A4        1.90938   0.00062   0.00124  -0.00128   0.00022   1.90959
    A5        1.92069  -0.00023   0.00316   0.00018   0.00471   1.92540
    A6        1.87781  -0.00042  -0.00595   0.00477  -0.00163   1.87618
    A7        1.92012  -0.00167  -0.00053  -0.01198  -0.01511   1.90501
    A8        1.92440   0.00148   0.00596   0.00515   0.01240   1.93681
    A9        1.92025   0.00030   0.00605  -0.00224   0.00396   1.92421
   A10        1.90680  -0.00054  -0.00637   0.00414  -0.00092   1.90589
   A11        1.90545   0.00106  -0.00142   0.00601   0.00489   1.91034
   A12        1.88637  -0.00062  -0.00379  -0.00077  -0.00506   1.88131
   A13        1.93408   0.00120   0.01775  -0.01066   0.00478   1.93886
   A14        1.92984   0.00092   0.01013  -0.00242   0.00796   1.93780
   A15        1.91361  -0.00101  -0.00320  -0.00651  -0.00894   1.90466
   A16        1.91766   0.00006   0.00291  -0.00003   0.00285   1.92051
   A17        1.87722  -0.00064  -0.02329   0.03155   0.00919   1.88641
   A18        1.89017  -0.00062  -0.00511  -0.01111  -0.01654   1.87363
   A19        1.94266   0.00027   0.00862  -0.00351  -0.00031   1.94235
   A20        1.91661  -0.00054  -0.01030   0.01374   0.00501   1.92163
   A21        1.93509   0.00267   0.02531  -0.00631   0.01962   1.95471
   A22        1.92091  -0.00169  -0.01253  -0.01376  -0.02520   1.89571
   A23        1.87112  -0.00138  -0.01465  -0.00694  -0.01950   1.85162
   A24        1.87585   0.00066   0.00377   0.01681   0.01956   1.89541
   A25        1.97493   0.00381   0.03021   0.04623   0.06448   2.03941
   A26        2.02216   0.00491   0.06686   0.00662   0.06301   2.08517
   A27        1.91387  -0.00117   0.00255   0.04764   0.03485   1.94872
   A28        1.93882   0.00368   0.03013   0.02632   0.05187   1.99070
    D1       -0.86310  -0.00142  -0.00867  -0.09147  -0.09882  -0.96192
    D2       -2.96735  -0.00062  -0.00423  -0.09220  -0.09579  -3.06314
    D3        1.23682  -0.00097  -0.00694  -0.09305  -0.09985   1.13697
    D4        1.23577  -0.00117  -0.00958  -0.09710  -0.10606   1.12970
    D5       -0.86848  -0.00037  -0.00514  -0.09783  -0.10303  -0.97152
    D6       -2.94750  -0.00072  -0.00785  -0.09869  -0.10709  -3.05459
    D7       -2.98817  -0.00123  -0.01435  -0.08709  -0.10036  -3.08853
    D8        1.19076  -0.00043  -0.00992  -0.08782  -0.09733   1.09343
    D9       -0.88826  -0.00078  -0.01263  -0.08867  -0.10139  -0.98964
   D10        0.83418  -0.00123  -0.02046   0.03602   0.01581   0.84999
   D11        2.96491   0.00029   0.00124   0.02707   0.02830   2.99321
   D12       -1.23537  -0.00055  -0.00078   0.00773   0.00719  -1.22817
   D13       -1.26229  -0.00104  -0.01810   0.03871   0.02108  -1.24121
   D14        0.86844   0.00048   0.00359   0.02975   0.03357   0.90201
   D15        2.95135  -0.00035   0.00158   0.01042   0.01246   2.96381
   D16        2.96130  -0.00076  -0.01348   0.03356   0.02013   2.98143
   D17       -1.19116   0.00076   0.00821   0.02460   0.03262  -1.15854
[...]
 ! A16   A(5,3,11)             109.3193         -DE/DX =    0.0                 !
 ! A17   A(5,3,12)             109.6226         -DE/DX =    0.0                 !
 ! A18   A(11,3,12)            106.692          -DE/DX =    0.0                 !
 ! A19   A(2,4,6)              112.3728         -DE/DX =    0.0                 !
 ! A20   A(2,4,13)             109.8521         -DE/DX =    0.0                 !
 ! A21   A(2,4,14)             111.8593         -DE/DX =    0.0                 !
 ! A22   A(6,4,13)             108.265          -DE/DX =    0.0                 !
 ! A23   A(6,4,14)             105.6518         -DE/DX =    0.0                 !
 ! A24   A(13,4,14)            108.6599         -DE/DX =    0.0                 !
 ! A25   A(3,5,6)              118.7368         -DE/DX =    0.0                 !
 ! A26   A(3,5,15)             120.5303         -DE/DX =    0.0                 !
 ! A27   A(6,5,15)             111.6591         -DE/DX =    0.0                 !
 ! A28   A(4,6,5)              115.4259         -DE/DX =    0.0                 !
 ! D1    D(3,1,2,4)            -56.0355         -DE/DX =    0.0                 !
 ! D2    D(3,1,2,7)           -176.8142         -DE/DX =    0.0                 !
 ! D3    D(3,1,2,8)             64.0148         -DE/DX =    0.0                 !
 ! D4    D(9,1,2,4)             63.4677         -DE/DX =    0.0                 !
 ! D5    D(9,1,2,7)            -57.311          -DE/DX =    0.0                 !
 ! D6    D(9,1,2,8)           -176.482          -DE/DX =    0.0                 !
 ! D7    D(10,1,2,4)          -178.0553         -DE/DX =    0.0                 !
 ! D8    D(10,1,2,7)            61.166          -DE/DX =    0.0                 !
 ! D9    D(10,1,2,8)           -58.005          -DE/DX =    0.0                 !
 ! D10   D(2,1,3,5)             49.3784         -DE/DX =    0.0                 !
 ! D11   D(2,1,3,11)           171.6547         -DE/DX =    0.0                 !
 ! D12   D(2,1,3,12)           -71.1669         -DE/DX =    0.0                 !
 ! D13   D(9,1,3,5)            -70.0222         -DE/DX =    0.0                 !
 ! D14   D(9,1,3,11)            52.2541         -DE/DX =    0.0                 !
 ! D15   D(9,1,3,12)           169.4324         -DE/DX =    0.0                 !
 ! D16   D(10,1,3,5)           171.6239         -DE/DX =    0.0                 !
 ! D17   D(10,1,3,11)          -66.0998         -DE/DX =    0.0                 !
 ! D18   D(10,1,3,12)           51.0786         -DE/DX =    0.0                 !
 ! D19   D(1,2,4,6)             56.529          -DE/DX =    0.0                 !
 ! D20   D(1,2,4,13)           -64.0649         -DE/DX =    0.0                 !
 ! D21   D(1,2,4,14)           175.1806         -DE/DX =    0.0                 !
 ! D22   D(7,2,4,6)            178.7887         -DE/DX =    0.0                 !
 ! D23   D(7,2,4,13)            58.1948         -DE/DX =    0.0                 !
 ! D24   D(7,2,4,14)           -62.5597         -DE/DX =    0.0                 !
 ! D25   D(8,2,4,6)            -63.936          -DE/DX =    0.0                 !
 ! D26   D(8,2,4,13)           175.47           -DE/DX =    0.0                 !
 ! D27   D(8,2,4,14)            54.7155         -DE/DX =    0.0                 !
 ! D28   D(1,3,5,6)            -45.2322         -DE/DX =    0.0                 !
 ! D29   D(1,3,5,15)           170.471          -DE/DX =    0.0                 !
 ! D30   D(11,3,5,6)          -168.7841         -DE/DX =    0.0                 !
 ! D31   D(11,3,5,15)           46.9192         -DE/DX =    0.0                 !
 ! D32   D(12,3,5,6)            74.5927         -DE/DX =    0.0                 !
 ! D33   D(12,3,5,15)          -69.704          -DE/DX =    0.0                 !
 ! D34   D(2,4,6,5)            -50.3851         -DE/DX =    0.0                 !
 ! D35   D(13,4,6,5)            71.1196         -DE/DX =    0.0                 !
 ! D36   D(14,4,6,5)          -172.6252         -DE/DX =    0.0                 !
 ! D37   D(3,5,6,4)             45.5582         -DE/DX =    0.0                 !
 ! D38   D(15,5,6,4)          -167.1845         -DE/DX =    0.0                 !
 --------------------------------------------------------------------------------
 GradGradGradGradGradGradGradGradGradGradGradGradGradGradGradGradGradGrad


 Test job not archived.
 1\1\GINC-COMPUTE-3-046\Freq\UM062X\6-311+G(2df,2p)\C5H9O1(2)\ROOT\10-M
 ar-2017\0\\#N Geom=AllCheck Guess=TCheck SCRF=Check Test GenChk UM062X
 /6-311+G(2df,2p) Freq\\InChI=1S/C5H9O/c1-2-4-6-5-3-1/h4H,1-3,5H2/u4\\0
 ,2\C,0.5812238179,-1.0381635737,0.0922449913\C,-0.6972702875,-0.773995
 2154,-0.6981114877\C,1.3684276664,0.2668506047,0.2087344531\C,-1.49004
 00016,0.336828537,-0.0316222155\C,0.4941008253,1.3835183447,0.67567500
 41\O,-0.7322608324,1.5332758039,0.1101635856\H,-1.3204061353,-1.667388
 3232,-0.7591536491\H,-0.4478642527,-0.4747800188,-1.719459948\H,0.3205
 48503,-1.3966248292,1.0915137894\H,1.18449461,-1.8093524763,-0.3866626
 599\H,2.2153833355,0.1640666468,0.8872378871\H,1.7839516105,0.51167240
 65,-0.7808642918\H,-1.8150092506,0.0160081186,0.9645784119\H,-2.367917
 7229,0.6124573622,-0.6121503059\H,0.9225381143,2.3356266121,0.95777643
 54\\Version=EM64L-G09RevB.01\State=2-A\HF=-271.0743202\S2=0.754319\S2-
 1=0.\S2A=0.750015\RMSD=2.292e-09\RMSF=3.723e-06\ZeroPoint=0.1339304\Th
 ermal=0.1394328\Dipole=0.1002274,-0.586252,-0.1676335\DipoleDeriv=0.05
 56543,0.0113316,-0.030684,-0.0103792,0.0761711,0.0015384,-0.0160241,-0
 .0242827,0.1045757,-0.0013903,0.0856508,0.003713,-0.0001089,-0.015672,
 -0.0515124,0.0051484,-0.0473837,0.0675092,0.0041852,-0.0079907,-0.0693
 94,0.0375785,-0.0053219,0.0136381,0.0000009,-0.0948837,0.143338,0.5146
 374,0.1704951,0.0257005,0.3184573,0.6094199,0.083334,0.01192,0.042496,
 0.3654213,0.7299406,-0.0785283,0.364075,-0.1583352,0.1982629,0.0721775
 ,0.3200996,0.1303102,0.0401599,-1.082302,-0.1118459,-0.2807883,-0.1009
 583,-0.6984203,-0.0835766,-0.4096818,-0.0928033,-0.4839347,-0.0370384,
 -0.0940006,-0.0290184,-0.0998314,-0.0680621,-0.0346139,-0.0134599,-0.0
 06731,0.05709,0.011627,0.0151426,0.0588152,0.0130434,0.0323046,0.06702
 92,0.0215273,0.0280295,-0.1100508,0.0109959,-0.047413,0.0373406,-0.024
 8172,0.0221153,0.0294408,0.0145586,0.081802,-0.1083882,-0.0352822,0.09
 07748,0.0294429,0.074985,-0.0784718,-0.0498745,0.040252,-0.080493,0.02
 91429,-0.0695138,-0.010105,-0.0705141,0.0027977,0.0457804,-0.0034846,-
 0.1104217,-0.0024925,0.0019698,-0.0016069,0.0025605,0.0638223,0.017510
 6,-0.0051211,0.0119779,0.1315964,0.0081641,-0.1367028,0.0092734,-0.018
 9337,0.0046515,-0.0834504,-0.0214896,0.0014209,0.1198811,0.0590714,-0.
 1269553,-0.0911468,0.0176898,-0.0647951,0.0621283,0.010144,0.0198,-0.0
 974071,0.0076896,0.0202333,-0.0180334,-0.024828,-0.042367,-0.0486201,-
 0.1016394,-0.077295,-0.01799,-0.0084929,0.1365919\Polar=65.8893447,1.5
 53285,61.5201722,2.1940762,3.3397254,57.142066\PG=C01 [X(C5H9O1)]\NIma
 g=0\\0.49986190,-0.05053073,0.53907363,-0.05948702,0.00467132,0.570520
 32,-0.15868470,0.01657773,-0.04932322,0.50980911,0.01723037,-0.0838474
 0,0.01203193,0.07137036,0.55270076,-0.04917330,0.00962155,-0.11472578,
 -0.01959188,-0.01613502,0.55781805,-0.11083711,-0.04951339,-0.00449179
 ,-0.02154923,-0.02790307,-0.00581170,0.55377407,-0.04715223,-0.1612371
 6,-0.00528985,-0.00368776,0.00542593,-0.00244342,-0.00992859,0.4598993
 3,-0.00281617,-0.00218151,-0.07783147,-0.01330667,-0.01677509,-0.00202
 461,0.05103635,-0.01279923,0.53628384,-0.02425811,0.02812404,0.0125995
 1,-0.12347529,0.04302758,0.02914006,0.00200592,0.00013210,0.00205978,0
 .59279691,0.01343696,-0.00562833,0.00146356,0.05206031,-0.13104587,-0.
 03676297,0.00346141,0.00130890,-0.00010465,-0.03729985,0.46580539,-0.0
 0904184,0.01420001,0.01109369,0.03395145,-0.03480490,-0.11007613,0.002
 03755,0.00129509,-0.00047941,0.04242638,-0.05143696,0.59223933,0.01913
 433,-0.01076433,-0.00536884,0.00465415,0.00415983,0.00073210,-0.124205
 70,0.05593887,0.02315130,-0.03554966,-0.01722853,-0.01806733,0.5261873
 7,0.01301324,-0.03348023,-0.01465721,-0.00002971,0.00040865,-0.0006037
 0,0.05831879,-0.16241639,-0.05847318,-0.03334162,0.00467970,-0.0161003
 9,0.01230037,0.58096073,0.00294490,-0.00733006,-0.00207582,0.00058145,
 -0.00003811,0.00035650,0.01153808,-0.03911641,-0.07991986,-0.01137845,
 -0.00422042,-0.00792654,0.13744347,0.14849616,0.22373535,-0.00318829,-
 0.00441593,-0.00255768,0.00962241,0.00426343,-0.00109729,-0.03240742,0
 .00825374,-0.01755707,-0.11904282,-0.06873992,-0.00588849,-0.27507628,
 0.04234062,-0.11667698,0.47735089,-0.00433816,0.00414663,0.00075061,-0
 .02343785,-0.04067677,-0.00499252,0.02444802,0.00315594,0.01645775,-0.
 04442113,-0.19011497,0.00218530,0.02279544,-0.10101444,-0.00632366,0.0
 6840328,0.34525287,-0.00333358,0.00037378,-0.00081140,-0.01262460,-0.0
 1875172,0.00175961,0.00629798,-0.00206912,0.01082347,-0.01131651,-0.00
 504589,-0.06488784,-0.12407731,0.00903915,-0.08959737,0.15194626,0.010
 13524,0.13097542,-0.01492916,-0.02365629,-0.00032772,-0.13134422,-0.12
 279977,-0.00586592,-0.00456509,0.00279774,-0.00434865,0.01122884,0.012
 76743,-0.00058040,-0.00174745,0.00100249,-0.00024701,0.00038279,0.0053
 7432,0.00316618,0.14284298,0.00461465,0.00770137,0.00021577,-0.1222281
 6,-0.22665703,-0.01070861,0.00155844,0.00075077,0.00100426,-0.01660212
 ,-0.01783622,0.00174001,0.00208628,-0.00002763,0.00101871,0.00200502,-
 0.00491643,-0.00444812,0.13296885,0.24527741,-0.00978840,-0.01507029,-
 0.00179158,-0.00517310,-0.00917713,-0.04905908,-0.00267865,0.00166228,
 -0.00152389,-0.00980666,-0.01101442,-0.00138374,0.00059353,0.00031295,
 0.00013942,0.00121586,-0.00350032,-0.00056498,0.00878389,0.01187918,0.
 04980056,0.00574771,0.00823744,-0.02836637,-0.06145325,-0.01775729,0.0
 5494073,0.00182286,0.00073572,-0.00011172,-0.00706213,-0.00626257,0.01
 934101,-0.00053010,0.00011508,0.00014694,0.00160575,-0.00022512,-0.001
 99322,-0.00446447,-0.00382638,0.01657388,0.06882039,-0.00097649,-0.002
 82039,0.00720436,-0.01901414,-0.06919135,0.06696290,-0.00023063,0.0003
 3010,-0.00112836,0.00750369,0.00606482,-0.02594323,-0.00015692,-0.0000
 8481,-0.00007481,-0.00014207,0.00228036,0.00198872,-0.00565789,-0.0066
 8013,0.02505484,0.01545997,0.07141315,0.00279627,0.00527443,-0.0165542
 2,0.05502403,0.06555845,-0.27022053,0.00119651,0.00021047,0.00043431,0
 .00523257,0.00406816,-0.01495338,-0.00028034,-0.00021829,-0.00046834,-
 0.00114405,0.00025449,0.00151357,-0.00048120,-0.00036035,0.00270129,-0
 .05997201,-0.07225274,0.29584993,-0.06177070,-0.01787333,0.05847362,0.
 00537147,0.01015545,-0.02821579,-0.00613091,-0.00707390,0.01657268,0.0
 0167785,-0.00040703,-0.00111686,0.00013603,0.00137834,-0.00052162,-0.0
 0002417,-0.00012954,0.00045856,0.00118143,-0.00050864,0.00064144,-0.00
 465472,0.00155842,-0.00304612,0.06978314,-0.01751223,-0.07522096,0.073
 83365,-0.00076578,-0.00199594,0.00424826,-0.00810351,-0.01058165,0.025
 81059,-0.00071811,-0.00020671,0.00117740,0.00028049,0.00174141,0.00095
 664,0.00011138,-0.00037273,-0.00033334,0.00019399,0.00029758,-0.000381
 54,0.00068109,0.00066476,0.00047398,0.02293105,0.08087310,0.05778589,0
 .07563496,-0.26352226,0.00275261,0.00563355,-0.01812071,-0.00071962,-0
 .00129513,0.00387179,0.00138672,-0.00059377,0.00039731,-0.00017765,-0.
 00025564,0.00046351,-0.00046677,0.00029829,-0.00018310,-0.00001076,-0.
 00039888,0.00034327,-0.00337390,0.00027803,-0.00042486,-0.05972806,-0.
 08340412,0.28690507,-0.12974975,0.10400285,0.06734644,-0.01558122,0.01
 943899,0.01389789,0.01159550,-0.01473113,-0.00849724,-0.00535413,-0.00
 096725,-0.00523409,-0.00360022,-0.00291180,-0.00086855,0.00173615,0.00
 036916,0.00077485,0.00067823,-0.00055337,0.00073322,0.00111119,-0.0001
 6582,-0.00015235,-0.00443500,0.00481121,0.00307193,0.14194007,0.103039
 03,-0.17837766,-0.08246337,0.00257349,-0.00277801,-0.00109295,0.015835
 24,-0.02044153,-0.01242980,0.00003613,0.00095713,0.00113611,-0.0061316
 6,-0.00340574,-0.00057539,0.00053484,0.00081128,0.00021009,0.00007524,
 0.00044402,0.00034133,0.00003520,-0.00006092,0.00010108,-0.00628786,0.
 00808650,0.00418688,-0.11149627,0.19422162,0.06833992,-0.08418904,-0.1
 0406492,-0.01136989,0.01471013,0.00873704,0.00098864,0.00014035,-0.000
 93236,-0.00344981,-0.00052929,-0.00253470,-0.00123447,-0.00064462,0.00
 013432,0.00116050,0.00012637,0.00036938,0.00098622,-0.00042271,0.00054
 111,0.00080012,0.00004229,0.00065789,0.01596912,-0.02095587,-0.0125471
 1,-0.07117946,0.09091029,0.10835712,-0.01182717,0.00194657,-0.00882020
 ,-0.00034192,-0.00366485,0.00060649,-0.20210830,0.02121005,-0.12829261
 ,0.00110733,0.00023012,-0.00021024,-0.01741891,-0.00016158,-0.01158925
 ,-0.00147877,0.00405965,0.00130465,-0.00076848,0.00037870,-0.00054612,
 0.00009201,0.00003761,-0.00008808,0.00014863,0.00030298,0.00038595,0.0
 0050514,-0.00006672,0.00010933,0.22186229,-0.02306787,0.00496670,-0.01
 874276,-0.00266673,-0.00581155,0.00028356,0.02182422,-0.05075484,0.016
 22305,-0.00076043,-0.00176318,-0.00030318,0.01823083,0.00158517,0.0163
 8831,0.00531289,-0.00384708,-0.00146955,-0.00178071,0.00033581,-0.0008
 1572,0.00020236,-0.00005141,-0.00001652,0.00052963,0.00125393,0.000432
 43,0.00089867,0.00084457,-0.00021150,-0.02330573,0.05392006,0.00085766
 ,0.00017841,-0.00093330,-0.00002793,-0.00060569,0.00066501,-0.13053092
 ,0.01645881,-0.15123623,-0.00015807,-0.00061524,-0.00013139,0.01005398
 ,0.00026155,0.00638310,0.00319826,-0.00221015,0.00070737,-0.00030149,0
 .00015483,0.00028132,0.00036008,-0.00008700,0.00041375,0.00021722,-0.0
 0030332,0.00060893,-0.00015179,-0.00022192,-0.00034211,0.13948910,-0.0
 1670753,0.16229802,-0.00685886,-0.00575219,0.01507834,0.00039882,0.000
 10162,0.00152398,-0.07841525,-0.02316423,0.07787646,-0.00007619,0.0004
 8827,0.00052129,-0.00965012,0.00250091,0.02163771,0.00072214,-0.000376
 89,-0.00306218,0.00027910,0.00001719,-0.00031385,-0.00038851,-0.000049
 20,-0.00059966,-0.00120428,-0.00258845,-0.00028582,0.00082117,0.000500
 71,-0.00034831,0.00965084,0.00548223,-0.02237933,0.08447439,-0.0125181
 3,-0.01047872,0.02743629,0.00135351,0.00077178,0.00059212,-0.01775722,
 -0.05405588,0.04484742,-0.00044524,-0.00130546,-0.00074089,0.01109909,
 0.00256943,-0.02730347,0.00026508,0.00045760,0.00430508,0.00029644,0.0
 0006031,-0.00026311,-0.00029132,0.00037911,-0.00064510,-0.00387620,-0.
 00459876,-0.00091710,0.00082391,0.00096481,0.00029608,-0.00121648,-0.0
 0116194,0.00325344,0.02285659,0.06620825,-0.00130920,-0.00008443,0.001
 04352,-0.00001179,-0.00041694,0.00064500,0.07393929,0.05471385,-0.2374
 9854,-0.00049232,-0.00100573,-0.00021742,0.00667905,-0.00624019,-0.013
 68451,0.00263513,0.00051197,0.00354767,0.00006969,0.00000376,0.0001882
 3,0.00051921,-0.00013179,0.00015599,-0.00048607,-0.00051236,0.00111302
 ,0.00005473,0.00060158,0.00045347,0.00723197,0.00487251,-0.01878499,-0
 .08889956,-0.05211281,0.26245510,0.00055939,-0.00123476,0.00111341,-0.
 00478561,-0.00265949,0.01776761,-0.00048833,0.00013031,-0.00012982,-0.
 07150866,-0.01332509,0.05943529,0.00434594,-0.00057715,0.00305747,-0.0
 1368369,-0.01831644,0.01458979,0.00058655,-0.00001853,-0.00031114,-0.0
 0099652,0.00255697,0.00152816,-0.00015227,0.00033545,-0.00040731,0.000
 28758,0.00009474,-0.00023370,-0.00005006,0.00007595,-0.00002003,0.0000
 6207,0.00003879,-0.00007580,0.07669991,-0.00128099,0.00081155,-0.00068
 630,0.00878163,0.00680729,-0.02389383,-0.00019087,-0.00025405,0.000085
 02,-0.01533937,-0.06248639,0.06101170,0.00524698,0.00022450,0.00180505
 ,-0.02369244,-0.02477506,0.02286386,-0.00075988,0.00094655,0.00067662,
 0.00357306,-0.00327385,-0.00214855,-0.00001950,-0.00014323,0.00053616,
 -0.00031203,0.00000874,0.00019025,-0.00000880,0.00017250,0.00005878,-0
 .00020815,0.00011119,0.00025848,0.02589969,0.08271319,-0.00087196,0.00
 087296,0.00071717,0.00419530,0.00289373,-0.01538038,0.00003128,0.00025
 275,-0.00026636,0.06338233,0.06382333,-0.26702925,0.00078247,-0.001000
 00,0.00220768,-0.00111712,0.00227387,0.00921814,-0.00010602,-0.0004032
 0,0.00001465,0.00136120,-0.00261261,0.00012606,0.00069921,-0.00018268,
 0.00081192,-0.00024454,-0.00019593,0.00025237,0.00005486,0.00005749,0.
 00000123,0.00003121,-0.00030358,-0.00029665,-0.07302630,-0.06908783,0.
 28444870,-0.00022362,0.00260092,0.00249698,-0.01180470,0.00533924,-0.0
 0879208,0.00041454,-0.00010194,-0.00012506,-0.22054966,0.05790891,-0.1
 1382566,0.00146166,-0.00340642,0.00014424,-0.02220051,-0.00318572,-0.0
 1214331,0.00030131,0.00034895,0.00010868,0.00025890,-0.00070529,-0.000
 02039,0.00007885,0.00003128,-0.00013359,-0.00073579,0.00002161,-0.0006
 3071,0.00000289,0.00008048,0.00002101,-0.00004629,0.00002137,0.0000797
 7,0.00914972,-0.00160099,0.00454063,0.24482171,0.00206902,-0.00376316,
 -0.00380204,0.01878274,-0.00447693,0.01452232,-0.00059815,-0.00037466,
 -0.00020775,0.06831573,-0.06976074,0.04662553,-0.00062400,-0.00481874,
 -0.00083190,-0.03592406,0.00081007,-0.01986538,-0.00069919,0.00027660,
 0.00027879,-0.00063099,0.00099899,-0.00025911,-0.00040487,0.00009763,-
 0.00026969,0.00167756,-0.00009186,0.00072084,-0.00002081,0.00020299,0.
 00009046,-0.00000095,0.00013103,0.00005878,0.00695668,-0.00088855,0.00
 357484,-0.05746168,0.08150819,0.00128222,-0.00245547,-0.00154258,0.014
 85952,-0.00422837,0.00969750,-0.00007311,-0.00007779,-0.00005379,-0.11
 864853,0.04025882,-0.13483950,0.00090144,-0.00112789,0.00077954,-0.003
 40892,-0.00155551,-0.00024027,-0.00079200,0.00066408,0.00034780,-0.000
 20649,0.00073392,0.00081265,0.00016722,-0.00019258,0.00032873,0.000762
 07,-0.00032790,0.00061949,-0.00000075,0.00005776,-0.00001434,-0.000011
 66,0.00005379,0.00001790,-0.02301360,0.00849537,-0.01459117,0.12851664
 ,-0.04027542,0.13850563,-0.00297586,0.00225140,0.00163455,-0.00083582,
 -0.00030240,-0.00006091,0.01109444,0.01664124,0.00448846,-0.00194022,0
 .00387682,-0.00374805,-0.08814104,-0.09054156,-0.03621239,-0.02431817,
 -0.03101902,-0.00998757,0.00033762,-0.00024086,-0.00003258,0.00009087,
 -0.00001821,0.00000664,-0.00000535,0.00000916,-0.00007962,0.00078109,0
 .00123625,0.00009249,0.00062447,-0.00105579,-0.00062776,0.00023098,-0.
 00065018,0.00006590,-0.00002603,-0.00008833,0.00028744,-0.00092900,-0.
 00143703,-0.00033405,0.10601203,0.00397357,-0.00184588,-0.00196595,0.0
 0033037,0.00036647,0.00040231,-0.01122069,-0.01075482,-0.00032853,0.00
 178860,0.00133194,-0.00004159,-0.09723273,-0.28692161,-0.08285065,0.00
 142414,0.00880274,0.00306722,-0.00012278,0.00002703,0.00001654,-0.0000
 4626,0.00003156,-0.00004040,0.00002796,0.00010505,0.00013403,-0.000884
 69,-0.00118295,-0.00018358,0.00027929,0.00010827,0.00029456,0.00019253
 ,-0.00005275,-0.00051669,0.00004290,0.00002562,0.00003685,0.00010928,0
 .00014915,-0.00002280,0.10133850,0.28981018,0.00181462,0.00048336,0.00
 047862,0.00006472,0.00010517,-0.00007149,-0.00275989,-0.01164264,0.000
 35311,-0.00097700,0.00171549,0.00072899,-0.03113140,-0.05878869,-0.040
 52699,-0.01024164,-0.01441174,-0.00262968,0.00005519,0.00006127,-0.000
 03439,-0.00001945,-0.00003451,-0.00004411,-0.00008456,-0.00023470,-0.0
 0004551,-0.00031312,-0.00018011,0.00029901,0.00036489,-0.00004834,0.00
 008364,-0.00076863,0.00150183,0.00086219,-0.00027402,-0.00016477,-0.00
 023411,-0.00023716,-0.00036028,0.00017239,0.04450744,0.08199868,0.0406
 0834\\-0.00000191,-0.00000090,0.00000280,0.00000146,0.00000082,-0.0000
 0231,-0.00000038,-0.00000202,0.00000530,0.00000063,0.00000217,-0.00000
 620,-0.00000035,-0.00000035,0.00000117,0.00000199,0.00000124,-0.000003
 50,0.00000040,0.00000168,-0.00000441,0.00000605,-0.00000015,-0.0000015
 5,-0.00000649,0.00000002,0.00000195,-0.00000132,-0.00000203,0.00000553
 ,-0.00000328,-0.00000302,0.00000864,0.00000385,-0.00000313,0.00000680,
 -0.00000378,0.00000328,-0.00000717,0.00000329,0.00000336,-0.00000963,-
 0.00000016,-0.00000099,0.00000257\\\@


 ON A CLEAR DISK YOU CAN SEEK FOREVER.
 Job cpu time:  0 days  4 hours  3 minutes 39.4 seconds.
 File lengths (MBytes):  RWF=   2544 Int=      0 D2E=      0 Chk=     32 Scr=     32
 Normal termination of Gaussian 09 at Fri Mar 10 17:44:40 2017.
