 Entering Gaussian System, Link 0=/shared/apps/gaussian/G09_LINUX_LINDA/g09/g09
 Input=/gss_gpfs_scratch/harms.n/QMscratch/AELZBYQHJCEGBO-UHFFFAOYSA-u6.gjf
 Output=/gss_gpfs_scratch/harms.n/QMscratch/AELZBYQHJCEGBO-UHFFFAOYSA-u6.log
 Initial command:
 /shared/apps/gaussian/G09_LINUX_LINDA/g09/l1.exe /gss_gpfs_scratch/harms.n/comparerTST/Gau-13803.inp -scrdir=/gss_gpfs_scratch/harms.n/comparerTST/
 Entering Link 1 = /shared/apps/gaussian/G09_LINUX_LINDA/g09/l1.exe PID=     13804.
  
 Copyright (c) 1988,1990,1992,1993,1995,1998,2003,2009,2010,
            Gaussian, Inc.  All Rights Reserved.
  
 This is part of the Gaussian(R) 09 program.  It is based on
 the Gaussian(R) 03 system (copyright 2003, Gaussian, Inc.),
 the Gaussian(R) 98 system (copyright 1998, Gaussian, Inc.),
 the Gaussian(R) 94 system (copyright 1995, Gaussian, Inc.),
 the Gaussian 92(TM) system (copyright 1992, Gaussian, Inc.),
 the Gaussian 90(TM) system (copyright 1990, Gaussian, Inc.),
 the Gaussian 88(TM) system (copyright 1988, Gaussian, Inc.),
 the Gaussian 86(TM) system (copyright 1986, Carnegie Mellon
 University), and the Gaussian 82(TM) system (copyright 1983,
 Carnegie Mellon University). Gaussian is a federally registered
 trademark of Gaussian, Inc.
  
 This software contains proprietary and confidential information,
 including trade secrets, belonging to Gaussian, Inc.
  
 This software is provided under written license and may be
 used, copied, transmitted, or stored only in accord with that
 written license.
  
 The following legend is applicable only to US Government
 contracts under FAR:
  
                    RESTRICTED RIGHTS LEGEND
  
 Use, reproduction and disclosure by the US Government is
 subject to restrictions as set forth in subparagraphs (a)
 and (c) of the Commercial Computer Software - Restricted
 Rights clause in FAR 52.227-19.
  
 Gaussian, Inc.
 340 Quinnipiac St., Bldg. 40, Wallingford CT 06492
  
  
 ---------------------------------------------------------------
 Warning -- This program may not be used in any manner that
 competes with the business of Gaussian, Inc. or will provide
 assistance to any competitor of Gaussian, Inc.  The licensee
 of this program is prohibited from giving any competitor of
 Gaussian, Inc. access to this program.  By using this program,
 the user acknowledges that Gaussian, Inc. is engaged in the
 business of creating and licensing software in the field of
 computational chemistry and represents and warrants to the
 licensee that it is not a competitor of Gaussian, Inc. and that
 it will not use this program in any manner prohibited above.
 ---------------------------------------------------------------
  

 Cite this work as:
 Gaussian 09, Revision B.01,
 M. J. Frisch, G. W. Trucks, H. B. Schlegel, G. E. Scuseria, 
 M. A. Robb, J. R. Cheeseman, G. Scalmani, V. Barone, B. Mennucci, 
 G. A. Petersson, H. Nakatsuji, M. Caricato, X. Li, H. P. Hratchian, 
 A. F. Izmaylov, J. Bloino, G. Zheng, J. L. Sonnenberg, M. Hada, 
 M. Ehara, K. Toyota, R. Fukuda, J. Hasegawa, M. Ishida, T. Nakajima, 
 Y. Honda, O. Kitao, H. Nakai, T. Vreven, J. A. Montgomery, Jr., 
 J. E. Peralta, F. Ogliaro, M. Bearpark, J. J. Heyd, E. Brothers, 
 K. N. Kudin, V. N. Staroverov, T. Keith, R. Kobayashi, J. Normand, 
 K. Raghavachari, A. Rendell, J. C. Burant, S. S. Iyengar, J. Tomasi, 
 M. Cossi, N. Rega, J. M. Millam, M. Klene, J. E. Knox, J. B. Cross, 
 V. Bakken, C. Adamo, J. Jaramillo, R. Gomperts, R. E. Stratmann, 
 O. Yazyev, A. J. Austin, R. Cammi, C. Pomelli, J. W. Ochterski, 
 R. L. Martin, K. Morokuma, V. G. Zakrzewski, G. A. Voth, 
 P. Salvador, J. J. Dannenberg, S. Dapprich, A. D. Daniels, 
 O. Farkas, J. B. Foresman, J. V. Ortiz, J. Cioslowski, 
 and D. J. Fox, Gaussian, Inc., Wallingford CT, 2010.
 
 ******************************************
 Gaussian 09:  EM64L-G09RevB.01 12-Aug-2010
                18-Aug-2017 
 ******************************************
 %nprocshared=20
 Will use up to   20 processors via shared memory.
 %mem=5GB
 --------------------------------------------------------------
 # m062x/6-311+g(2df,2p) opt=(verytight,gdiis) freq IOP(2/16=3)
 --------------------------------------------------------------

 Warning!  Use of Opt=GDIIS is deprecated since it is seldom a good choice.

 1/7=1,14=-1,18=20,19=11,26=3,38=1/1,3;
 2/9=110,12=2,16=3,17=6,18=5,40=1/2;
 3/5=4,6=6,7=214,11=2,16=1,25=1,30=1,71=1,74=-55/1,2,3;
 4//1;
 5/5=2,38=5/2;
 6/7=2,8=2,9=2,10=2,28=1/1;
 7//1,2,3,16;
 1/7=1,14=-1,18=20,19=11/3(2);
 2/9=110,16=3/2;
 99//99;
 2/9=110,16=3/2;
 3/5=4,6=6,7=214,11=2,16=1,25=1,30=1,71=1,74=-55/1,2,3;
 4/5=5,16=3/1;
 5/5=2,38=5/2;
 7//1,2,3,16;
 1/7=1,14=-1,18=20,19=11/3(-5);
 2/9=110,16=3/2;
 6/7=2,8=2,9=2,10=2,19=2,28=1/1;
 99/9=1/99;
 ------------------------------------------
 InChI=1S/C5H11O/c1-5(2,3)4-6/h4H2,1-3H3/u6
 ------------------------------------------
 Symbolic Z-matrix:
 Charge =  0 Multiplicity = 2
 C                     0.0066    0.0001   -0.0011 
 C                     1.5054   -0.2287   -0.2774 
 C                    -0.8079   -0.4639   -1.2254 
 C                    -0.4087   -0.8216    1.2359 
 C                    -0.2337    1.506     0.2568 
 O                    -1.5829    1.7646    0.5132 
 H                     1.8327    0.3499   -1.1683 
 H                     2.1182    0.0941    0.592 
 H                     1.7107   -1.3046   -0.4671 
 H                    -0.5306    0.1255   -2.126 
 H                    -1.8974   -0.3378   -1.0472 
 H                    -0.6161   -1.5378   -1.4388 
 H                    -1.493    -0.7002    1.4462 
 H                    -0.2088   -1.9028    1.0725 
 H                     0.1601   -0.4935    2.1326 
 H                     0.365     1.8478    1.1286 
 H                     0.0803    2.1029   -0.6266 
 

 GradGradGradGradGradGradGradGradGradGradGradGradGradGradGradGradGradGrad
 Berny optimization.
 Initialization pass.
                           ----------------------------
                           !    Initial Parameters    !
                           ! (Angstroms and Degrees)  !
 --------------------------                            --------------------------
 ! Name  Definition              Value          Derivative Info.                !
 --------------------------------------------------------------------------------
 ! R1    R(1,2)                  1.5411         estimate D2E/DX2                !
 ! R2    R(1,3)                  1.542          estimate D2E/DX2                !
 ! R3    R(1,4)                  1.542          estimate D2E/DX2                !
 ! R4    R(1,5)                  1.5466         estimate D2E/DX2                !
 ! R5    R(2,7)                  1.1116         estimate D2E/DX2                !
 ! R6    R(2,8)                  1.1116         estimate D2E/DX2                !
 ! R7    R(2,9)                  1.1116         estimate D2E/DX2                !
 ! R8    R(3,10)                 1.1115         estimate D2E/DX2                !
 ! R9    R(3,11)                 1.1112         estimate D2E/DX2                !
 ! R10   R(3,12)                 1.1116         estimate D2E/DX2                !
 ! R11   R(4,13)                 1.1112         estimate D2E/DX2                !
 ! R12   R(4,14)                 1.1116         estimate D2E/DX2                !
 ! R13   R(4,15)                 1.1114         estimate D2E/DX2                !
 ! R14   R(5,6)                  1.3975         estimate D2E/DX2                !
 ! R15   R(5,16)                 1.1114         estimate D2E/DX2                !
 ! R16   R(5,17)                 1.1114         estimate D2E/DX2                !
 ! A1    A(2,1,3)              109.0681         estimate D2E/DX2                !
 ! A2    A(2,1,4)              109.0645         estimate D2E/DX2                !
 ! A3    A(2,1,5)              108.9992         estimate D2E/DX2                !
 ! A4    A(3,1,4)              109.5314         estimate D2E/DX2                !
 ! A5    A(3,1,5)              110.0796         estimate D2E/DX2                !
 ! A6    A(4,1,5)              110.074          estimate D2E/DX2                !
 ! A7    A(1,2,7)              110.6569         estimate D2E/DX2                !
 ! A8    A(1,2,8)              110.6594         estimate D2E/DX2                !
 ! A9    A(1,2,9)              110.726          estimate D2E/DX2                !
 ! A10   A(7,2,8)              108.2629         estimate D2E/DX2                !
 ! A11   A(7,2,9)              108.2186         estimate D2E/DX2                !
 ! A12   A(8,2,9)              108.2237         estimate D2E/DX2                !
 ! A13   A(1,3,10)             110.6094         estimate D2E/DX2                !
 ! A14   A(1,3,11)             110.8821         estimate D2E/DX2                !
 ! A15   A(1,3,12)             110.6101         estimate D2E/DX2                !
 ! A16   A(10,3,11)            108.3242         estimate D2E/DX2                !
 ! A17   A(10,3,12)            108.283          estimate D2E/DX2                !
 ! A18   A(11,3,12)            108.036          estimate D2E/DX2                !
 ! A19   A(1,4,13)             110.8804         estimate D2E/DX2                !
 ! A20   A(1,4,14)             110.6065         estimate D2E/DX2                !
 ! A21   A(1,4,15)             110.6142         estimate D2E/DX2                !
 ! A22   A(13,4,14)            108.0335         estimate D2E/DX2                !
 ! A23   A(13,4,15)            108.328          estimate D2E/DX2                !
 ! A24   A(14,4,15)            108.2822         estimate D2E/DX2                !
 ! A25   A(1,5,6)              111.1478         estimate D2E/DX2                !
 ! A26   A(1,5,16)             110.2757         estimate D2E/DX2                !
 ! A27   A(1,5,17)             110.2724         estimate D2E/DX2                !
 ! A28   A(6,5,16)             108.6168         estimate D2E/DX2                !
 ! A29   A(6,5,17)             108.615          estimate D2E/DX2                !
 ! A30   A(16,5,17)            107.825          estimate D2E/DX2                !
 ! D1    D(3,1,2,7)             60.2048         estimate D2E/DX2                !
 ! D2    D(3,1,2,8)           -179.7899         estimate D2E/DX2                !
 ! D3    D(3,1,2,9)            -59.7885         estimate D2E/DX2                !
 ! D4    D(4,1,2,7)            179.7898         estimate D2E/DX2                !
 ! D5    D(4,1,2,8)            -60.2049         estimate D2E/DX2                !
 ! D6    D(4,1,2,9)             59.7965         estimate D2E/DX2                !
 ! D7    D(5,1,2,7)            -60.0072         estimate D2E/DX2                !
 ! D8    D(5,1,2,8)             59.9981         estimate D2E/DX2                !
 ! D9    D(5,1,2,9)            179.9995         estimate D2E/DX2                !
 ! D10   D(2,1,3,10)           -61.3484         estimate D2E/DX2                !
 ! D11   D(2,1,3,11)           178.4547         estimate D2E/DX2                !
 ! D12   D(2,1,3,12)            58.619          estimate D2E/DX2                !
 ! D13   D(4,1,3,10)           179.3563         estimate D2E/DX2                !
 ! D14   D(4,1,3,11)            59.1593         estimate D2E/DX2                !
 ! D15   D(4,1,3,12)           -60.6764         estimate D2E/DX2                !
 ! D16   D(5,1,3,10)            58.1962         estimate D2E/DX2                !
 ! D17   D(5,1,3,11)           -62.0008         estimate D2E/DX2                !
 ! D18   D(5,1,3,12)           178.1635         estimate D2E/DX2                !
 ! D19   D(2,1,4,13)          -178.4535         estimate D2E/DX2                !
 ! D20   D(2,1,4,14)           -58.6244         estimate D2E/DX2                !
 ! D21   D(2,1,4,15)            61.3427         estimate D2E/DX2                !
 ! D22   D(3,1,4,13)           -59.156          estimate D2E/DX2                !
 ! D23   D(3,1,4,14)            60.6731         estimate D2E/DX2                !
 ! D24   D(3,1,4,15)          -179.3597         estimate D2E/DX2                !
 ! D25   D(5,1,4,13)            62.0075         estimate D2E/DX2                !
 ! D26   D(5,1,4,14)          -178.1634         estimate D2E/DX2                !
 ! D27   D(5,1,4,15)           -58.1962         estimate D2E/DX2                !
 ! D28   D(2,1,5,6)           -179.9989         estimate D2E/DX2                !
 ! D29   D(2,1,5,16)           -59.4811         estimate D2E/DX2                !
 ! D30   D(2,1,5,17)            59.4878         estimate D2E/DX2                !
 ! D31   D(3,1,5,6)             60.4146         estimate D2E/DX2                !
 ! D32   D(3,1,5,16)          -179.0675         estimate D2E/DX2                !
 ! D33   D(3,1,5,17)           -60.0987         estimate D2E/DX2                !
 ! D34   D(4,1,5,6)            -60.4202         estimate D2E/DX2                !
 ! D35   D(4,1,5,16)            60.0976         estimate D2E/DX2                !
 ! D36   D(4,1,5,17)           179.0665         estimate D2E/DX2                !
 --------------------------------------------------------------------------------
 Trust Radius=3.00D-01 FncErr=1.00D-07 GrdErr=1.00D-06
 Number of steps in this run=     92 maximum allowed number of steps=    102.
 GradGradGradGradGradGradGradGradGradGradGradGradGradGradGradGradGradGrad

                          Input orientation:                          
 ---------------------------------------------------------------------
 Center     Atomic      Atomic             Coordinates (Angstroms)
 Number     Number       Type             X           Y           Z
 ---------------------------------------------------------------------
      1          6           0        0.006600    0.000100   -0.001100
      2          6           0        1.505400   -0.228700   -0.277400
      3          6           0       -0.807900   -0.463900   -1.225400
      4          6           0       -0.408700   -0.821600    1.235900
      5          6           0       -0.233700    1.506000    0.256800
      6          8           0       -1.582900    1.764600    0.513200
      7          1           0        1.832700    0.349900   -1.168300
      8          1           0        2.118200    0.094100    0.592000
      9          1           0        1.710700   -1.304600   -0.467100
     10          1           0       -0.530600    0.125500   -2.126000
     11          1           0       -1.897400   -0.337800   -1.047200
     12          1           0       -0.616100   -1.537800   -1.438800
     13          1           0       -1.493000   -0.700200    1.446200
     14          1           0       -0.208800   -1.902800    1.072500
     15          1           0        0.160100   -0.493500    2.132600
     16          1           0        0.365000    1.847800    1.128600
     17          1           0        0.080300    2.102900   -0.626600
 ---------------------------------------------------------------------
                    Distance matrix (angstroms):
                    1          2          3          4          5
     1  C    0.000000
     2  C    1.541134   0.000000
     3  C    1.541952   2.511052   0.000000
     4  C    1.542023   2.511053   2.518989   0.000000
     5  C    1.546606   2.513767   2.531231   2.531202   0.000000
     6  O    2.429913   3.759773   2.930796   2.930780   1.397482
     7  H    2.195303   1.111578   2.763747   3.489479   2.763600
     8  H    2.195326   1.111566   3.489465   2.763754   2.763558
     9  H    2.196214   1.111618   2.761366   2.761404   3.493450
    10  H    2.195338   2.772738   1.111471   3.494886   2.769777
    11  H    2.198572   3.490493   1.111156   2.768183   2.804980
    12  H    2.195421   2.750155   1.111570   2.776685   3.505140
    13  H    2.198613   3.490489   2.768149   1.111157   2.804965
    14  H    2.195460   2.750150   2.776634   1.111599   3.505125
    15  H    2.195422   2.772734   3.494863   1.111420   2.769784
    16  H    2.195146   2.754850   3.501566   2.781334   1.111442
    17  H    2.195097   2.754852   2.781353   3.501532   1.111432
                    6          7          8          9         10
     6  O    0.000000
     7  H    4.061421   0.000000
     8  H    4.061394   1.801555   0.000000
     9  H    4.607470   1.801093   1.801142   0.000000
    10  H    3.280146   2.559830   3.795346   3.133777   0.000000
    11  H    2.637014   3.794897   4.358733   3.780159   1.801832
    12  H    3.956116   3.103740   3.776724   2.532308   1.801699
    13  H    2.637008   4.358738   3.794909   3.780173   3.790595
    14  H    3.956108   3.776713   3.103775   2.532329   3.801047
    15  H    3.280171   3.795373   2.559859   3.133797   4.358429
    16  H    2.044494   3.110241   2.537147   3.780846   3.789570
    17  H    2.044462   2.537194   3.110193   3.780833   2.555682
                   11         12         13         14         15
    11  H    0.000000
    12  H    1.798633   0.000000
    13  H    2.551846   3.129497   0.000000
    14  H    3.129492   2.570165   1.798630   0.000000
    15  H    3.790604   3.801045   1.801835   1.801673   0.000000
    16  H    3.824841   4.360778   3.169438   3.794653   2.555716
    17  H    3.169419   3.794646   3.824806   4.360751   3.789571
                   16         17
    16  H    0.000000
    17  H    1.796345   0.000000
 Stoichiometry    C5H11O(2)
 Framework group  C1[X(C5H11O)]
 Deg. of freedom    45
 Full point group                 C1      NOp   1
 Largest Abelian subgroup         C1      NOp   1
 Largest concise Abelian subgroup C1      NOp   1
                         Standard orientation:                         
 ---------------------------------------------------------------------
 Center     Atomic      Atomic             Coordinates (Angstroms)
 Number     Number       Type             X           Y           Z
 ---------------------------------------------------------------------
      1          6           0        0.346009    0.000156   -0.000036
      2          6           0        1.551006    0.960923   -0.000768
      3          6           0        0.409315   -0.888240   -1.258750
      4          6           0        0.409268   -0.886151    1.260239
      5          6           0       -0.959331    0.829662   -0.000676
      6          8           0       -2.083904    0.000029   -0.000018
      7          1           0        1.533473    1.611234   -0.902097
      8          1           0        1.533420    1.612740    0.899457
      9          1           0        2.506755    0.393261   -0.000321
     10          1           0        0.353286   -0.267445   -2.178991
     11          1           0       -0.432617   -1.613199   -1.274612
     12          1           0        1.359796   -1.464036   -1.283877
     13          1           0       -0.432643   -1.611112    1.277233
     14          1           0        1.359767   -1.461935    1.286287
     15          1           0        0.353274   -0.263902    2.179437
     16          1           0       -1.000446    1.483776    0.896960
     17          1           0       -1.000440    1.482281   -0.899385
 ---------------------------------------------------------------------
 Rotational constants (GHZ):      4.3843630      2.6687784      2.6654444
 Standard basis: 6-311+G(2df,2p) (5D, 7F)
 There are   303 symmetry adapted basis functions of A   symmetry.
 Integral buffers will be    131072 words long.
 Raffenetti 2 integral format.
 Two-electron integral symmetry is turned on.
   303 basis functions,   433 primitive gaussians,   333 cartesian basis functions
    25 alpha electrons       24 beta electrons
       nuclear repulsion energy       255.1912157715 Hartrees.
 NAtoms=   17 NActive=   17 NUniq=   17 SFac= 1.00D+00 NAtFMM=   50 NAOKFM=F Big=F
 One-electron integrals computed using PRISM.
 NBasis=   303 RedAO= T  NBF=   303
 NBsUse=   303 1.00D-06 NBFU=   303
 Harris functional with IExCor= 1009 diagonalized for initial guess.
 ExpMin= 4.38D-02 ExpMax= 8.59D+03 ExpMxC= 1.30D+03 IAcc=2 IRadAn=         0 AccDes= 0.00D+00
 HarFok:  IExCor= 1009 AccDes= 0.00D+00 IRadAn=         0 IDoV= 1
 ScaDFX=  1.000000  1.000000  1.000000  1.000000
 FoFCou: FMM=F IPFlag=           0 FMFlag=      100000 FMFlg1=           0
         NFxFlg=           0 DoJE=T BraDBF=F KetDBF=T FulRan=T
         Omega=  0.000000  0.000000  1.000000  0.000000  0.000000 ICntrl=     500 IOpCl=  0
         NMat0=    1 NMatS0=    1 NMatT0=    0 NMatD0=    1 NMtDS0=    0 NMtDT0=    0
         I1Cent=           4 NGrid=           0.
 Petite list used in FoFCou.
 Initial guess orbital symmetries:
 Alpha Orbitals:
       Occupied  (A) (A) (A) (A) (A) (A) (A) (A) (A) (A) (A) (A)
                 (A) (A) (A) (A) (A) (A) (A) (A) (A) (A) (A) (A)
                 (A)
       Virtual   (A) (A) (A) (A) (A) (A) (A) (A) (A) (A) (A) (A)
                 (A) (A) (A) (A) (A) (A) (A) (A) (A) (A) (A) (A)
                 (A) (A) (A) (A) (A) (A) (A) (A) (A) (A) (A) (A)
                 (A) (A) (A) (A) (A) (A) (A) (A) (A) (A) (A) (A)
                 (A) (A) (A) (A) (A) (A) (A) (A) (A) (A) (A) (A)
                 (A) (A) (A) (A) (A) (A) (A) (A) (A) (A) (A) (A)
                 (A) (A) (A) (A) (A) (A) (A) (A) (A) (A) (A) (A)
                 (A) (A) (A) (A) (A) (A) (A) (A) (A) (A) (A) (A)
                 (A) (A) (A) (A) (A) (A) (A) (A) (A) (A) (A) (A)
                 (A) (A) (A) (A) (A) (A) (A) (A) (A) (A) (A) (A)
                 (A) (A) (A) (A) (A) (A) (A) (A) (A) (A) (A) (A)
                 (A) (A) (A) (A) (A) (A) (A) (A) (A) (A) (A) (A)
                 (A) (A) (A) (A) (A) (A) (A) (A) (A) (A) (A) (A)
                 (A) (A) (A) (A) (A) (A) (A) (A) (A) (A) (A) (A)
                 (A) (A) (A) (A) (A) (A) (A) (A) (A) (A) (A) (A)
                 (A) (A) (A) (A) (A) (A) (A) (A) (A) (A) (A) (A)
                 (A) (A) (A) (A) (A) (A) (A) (A) (A) (A) (A) (A)
                 (A) (A) (A) (A) (A) (A) (A) (A) (A) (A) (A) (A)
                 (A) (A) (A) (A) (A) (A) (A) (A) (A) (A) (A) (A)
                 (A) (A) (A) (A) (A) (A) (A) (A) (A) (A) (A) (A)
                 (A) (A) (A) (A) (A) (A) (A) (A) (A) (A) (A) (A)
                 (A) (A) (A) (A) (A) (A) (A) (A) (A) (A) (A) (A)
                 (A) (A) (A) (A) (A) (A) (A) (A) (A) (A) (A) (A)
                 (A) (A)
 Beta  Orbitals:
       Occupied  (A) (A) (A) (A) (A) (A) (A) (A) (A) (A) (A) (A)
                 (A) (A) (A) (A) (A) (A) (A) (A) (A) (A) (A) (A)
       Virtual   (A) (A) (A) (A) (A) (A) (A) (A) (A) (A) (A) (A)
                 (A) (A) (A) (A) (A) (A) (A) (A) (A) (A) (A) (A)
                 (A) (A) (A) (A) (A) (A) (A) (A) (A) (A) (A) (A)
                 (A) (A) (A) (A) (A) (A) (A) (A) (A) (A) (A) (A)
                 (A) (A) (A) (A) (A) (A) (A) (A) (A) (A) (A) (A)
                 (A) (A) (A) (A) (A) (A) (A) (A) (A) (A) (A) (A)
                 (A) (A) (A) (A) (A) (A) (A) (A) (A) (A) (A) (A)
                 (A) (A) (A) (A) (A) (A) (A) (A) (A) (A) (A) (A)
                 (A) (A) (A) (A) (A) (A) (A) (A) (A) (A) (A) (A)
                 (A) (A) (A) (A) (A) (A) (A) (A) (A) (A) (A) (A)
                 (A) (A) (A) (A) (A) (A) (A) (A) (A) (A) (A) (A)
                 (A) (A) (A) (A) (A) (A) (A) (A) (A) (A) (A) (A)
                 (A) (A) (A) (A) (A) (A) (A) (A) (A) (A) (A) (A)
                 (A) (A) (A) (A) (A) (A) (A) (A) (A) (A) (A) (A)
                 (A) (A) (A) (A) (A) (A) (A) (A) (A) (A) (A) (A)
                 (A) (A) (A) (A) (A) (A) (A) (A) (A) (A) (A) (A)
                 (A) (A) (A) (A) (A) (A) (A) (A) (A) (A) (A) (A)
                 (A) (A) (A) (A) (A) (A) (A) (A) (A) (A) (A) (A)
                 (A) (A) (A) (A) (A) (A) (A) (A) (A) (A) (A) (A)
                 (A) (A) (A) (A) (A) (A) (A) (A) (A) (A) (A) (A)
                 (A) (A) (A) (A) (A) (A) (A) (A) (A) (A) (A) (A)
                 (A) (A) (A) (A) (A) (A) (A) (A) (A) (A) (A) (A)
                 (A) (A) (A) (A) (A) (A) (A) (A) (A) (A) (A) (A)
                 (A) (A) (A)
 The electronic state of the initial guess is 2-A.
 Initial guess <Sx>= 0.0000 <Sy>= 0.0000 <Sz>= 0.5000 <S**2>= 0.7500 S= 0.5000
 Requested convergence on RMS density matrix=1.00D-08 within 128 cycles.
 Requested convergence on MAX density matrix=1.00D-06.
 Requested convergence on             energy=1.00D-06.
 No special actions if energy rises.
 SCF Done:  E(UM062X) =  -272.266215969     A.U. after   13 cycles
             Convg  =    0.8798D-08             -V/T =  2.0054
 <Sx>= 0.0000 <Sy>= 0.0000 <Sz>= 0.5000 <S**2>= 0.7541 S= 0.5020
 <L.S>= 0.000000000000E+00
 Annihilation of the first spin contaminant:
 S**2 before annihilation     0.7541,   after     0.7500

 **********************************************************************

            Population analysis using the SCF density.

 **********************************************************************

 Orbital symmetries:
 Alpha Orbitals:
       Occupied  (A) (A) (A) (A) (A) (A) (A) (A) (A) (A) (A) (A)
                 (A) (A) (A) (A) (A) (A) (A) (A) (A) (A) (A) (A)
                 (A)
       Virtual   (A) (A) (A) (A) (A) (A) (A) (A) (A) (A) (A) (A)
                 (A) (A) (A) (A) (A) (A) (A) (A) (A) (A) (A) (A)
                 (A) (A) (A) (A) (A) (A) (A) (A) (A) (A) (A) (A)
                 (A) (A) (A) (A) (A) (A) (A) (A) (A) (A) (A) (A)
                 (A) (A) (A) (A) (A) (A) (A) (A) (A) (A) (A) (A)
                 (A) (A) (A) (A) (A) (A) (A) (A) (A) (A) (A) (A)
                 (A) (A) (A) (A) (A) (A) (A) (A) (A) (A) (A) (A)
                 (A) (A) (A) (A) (A) (A) (A) (A) (A) (A) (A) (A)
                 (A) (A) (A) (A) (A) (A) (A) (A) (A) (A) (A) (A)
                 (A) (A) (A) (A) (A) (A) (A) (A) (A) (A) (A) (A)
                 (A) (A) (A) (A) (A) (A) (A) (A) (A) (A) (A) (A)
                 (A) (A) (A) (A) (A) (A) (A) (A) (A) (A) (A) (A)
                 (A) (A) (A) (A) (A) (A) (A) (A) (A) (A) (A) (A)
                 (A) (A) (A) (A) (A) (A) (A) (A) (A) (A) (A) (A)
                 (A) (A) (A) (A) (A) (A) (A) (A) (A) (A) (A) (A)
                 (A) (A) (A) (A) (A) (A) (A) (A) (A) (A) (A) (A)
                 (A) (A) (A) (A) (A) (A) (A) (A) (A) (A) (A) (A)
                 (A) (A) (A) (A) (A) (A) (A) (A) (A) (A) (A) (A)
                 (A) (A) (A) (A) (A) (A) (A) (A) (A) (A) (A) (A)
                 (A) (A) (A) (A) (A) (A) (A) (A) (A) (A) (A) (A)
                 (A) (A) (A) (A) (A) (A) (A) (A) (A) (A) (A) (A)
                 (A) (A) (A) (A) (A) (A) (A) (A) (A) (A) (A) (A)
                 (A) (A) (A) (A) (A) (A) (A) (A) (A) (A) (A) (A)
                 (A) (A)
 Beta  Orbitals:
       Occupied  (A) (A) (A) (A) (A) (A) (A) (A) (A) (A) (A) (A)
                 (A) (A) (A) (A) (A) (A) (A) (A) (A) (A) (A) (A)
       Virtual   (A) (A) (A) (A) (A) (A) (A) (A) (A) (A) (A) (A)
                 (A) (A) (A) (A) (A) (A) (A) (A) (A) (A) (A) (A)
                 (A) (A) (A) (A) (A) (A) (A) (A) (A) (A) (A) (A)
                 (A) (A) (A) (A) (A) (A) (A) (A) (A) (A) (A) (A)
                 (A) (A) (A) (A) (A) (A) (A) (A) (A) (A) (A) (A)
                 (A) (A) (A) (A) (A) (A) (A) (A) (A) (A) (A) (A)
                 (A) (A) (A) (A) (A) (A) (A) (A) (A) (A) (A) (A)
                 (A) (A) (A) (A) (A) (A) (A) (A) (A) (A) (A) (A)
                 (A) (A) (A) (A) (A) (A) (A) (A) (A) (A) (A) (A)
                 (A) (A) (A) (A) (A) (A) (A) (A) (A) (A) (A) (A)
                 (A) (A) (A) (A) (A) (A) (A) (A) (A) (A) (A) (A)
                 (A) (A) (A) (A) (A) (A) (A) (A) (A) (A) (A) (A)
                 (A) (A) (A) (A) (A) (A) (A) (A) (A) (A) (A) (A)
                 (A) (A) (A) (A) (A) (A) (A) (A) (A) (A) (A) (A)
                 (A) (A) (A) (A) (A) (A) (A) (A) (A) (A) (A) (A)
                 (A) (A) (A) (A) (A) (A) (A) (A) (A) (A) (A) (A)
                 (A) (A) (A) (A) (A) (A) (A) (A) (A) (A) (A) (A)
                 (A) (A) (A) (A) (A) (A) (A) (A) (A) (A) (A) (A)
                 (A) (A) (A) (A) (A) (A) (A) (A) (A) (A) (A) (A)
                 (A) (A) (A) (A) (A) (A) (A) (A) (A) (A) (A) (A)
                 (A) (A) (A) (A) (A) (A) (A) (A) (A) (A) (A) (A)
                 (A) (A) (A) (A) (A) (A) (A) (A) (A) (A) (A) (A)
                 (A) (A) (A) (A) (A) (A) (A) (A) (A) (A) (A) (A)
                 (A) (A) (A)
 The electronic state is 2-A.
 Alpha  occ. eigenvalues --  -19.67207 -10.59626 -10.55360 -10.53581 -10.53016
 Alpha  occ. eigenvalues --  -10.53015  -1.15081  -0.91896  -0.77813  -0.77437
 Alpha  occ. eigenvalues --   -0.75967  -0.62074  -0.57324  -0.54164  -0.53162
 Alpha  occ. eigenvalues --   -0.50255  -0.48962  -0.44959  -0.44641  -0.43756
 Alpha  occ. eigenvalues --   -0.42745  -0.41028  -0.38641  -0.38246  -0.35435
 Alpha virt. eigenvalues --    0.01183   0.03032   0.03128   0.03387   0.05654
 Alpha virt. eigenvalues --    0.05898   0.06408   0.06808   0.07081   0.07823
 Alpha virt. eigenvalues --    0.10094   0.10325   0.10389   0.10602   0.11266
 Alpha virt. eigenvalues --    0.11602   0.16122   0.16417   0.17009   0.19167
 Alpha virt. eigenvalues --    0.19682   0.19914   0.22709   0.22781   0.23362
 Alpha virt. eigenvalues --    0.24558   0.25830   0.26138   0.26330   0.26436
 Alpha virt. eigenvalues --    0.27849   0.28673   0.28828   0.29793   0.30379
 Alpha virt. eigenvalues --    0.31143   0.31890   0.32734   0.37877   0.39000
 Alpha virt. eigenvalues --    0.42951   0.45173   0.45449   0.46490   0.46984
 Alpha virt. eigenvalues --    0.47837   0.49402   0.50481   0.52176   0.52859
 Alpha virt. eigenvalues --    0.55329   0.56250   0.57004   0.57813   0.58216
 Alpha virt. eigenvalues --    0.59306   0.60709   0.61079   0.62027   0.63264
 Alpha virt. eigenvalues --    0.64040   0.64761   0.67714   0.68752   0.70175
 Alpha virt. eigenvalues --    0.70869   0.70979   0.72333   0.75876   0.76927
 Alpha virt. eigenvalues --    0.80446   0.81905   0.87476   0.89002   0.90732
 Alpha virt. eigenvalues --    0.94438   0.95403   0.98071   1.00064   1.01226
 Alpha virt. eigenvalues --    1.01732   1.01832   1.02062   1.03732   1.06578
 Alpha virt. eigenvalues --    1.08213   1.09022   1.11309   1.15056   1.16138
 Alpha virt. eigenvalues --    1.16261   1.17709   1.17915   1.18909   1.23935
 Alpha virt. eigenvalues --    1.25347   1.26555   1.26818   1.27378   1.29271
 Alpha virt. eigenvalues --    1.29717   1.31205   1.32431   1.34920   1.35057
 Alpha virt. eigenvalues --    1.36149   1.37520   1.37598   1.40161   1.41782
 Alpha virt. eigenvalues --    1.42091   1.42272   1.42781   1.42851   1.45328
 Alpha virt. eigenvalues --    1.47103   1.47203   1.50535   1.53919   1.56178
 Alpha virt. eigenvalues --    1.58715   1.59417   1.60545   1.61919   1.62022
 Alpha virt. eigenvalues --    1.63174   1.63986   1.64806   1.64864   1.72638
 Alpha virt. eigenvalues --    1.77334   1.77773   1.81776   1.86640   1.89228
 Alpha virt. eigenvalues --    2.10459   2.14165   2.35258   2.39560   2.45526
 Alpha virt. eigenvalues --    2.52836   2.53642   2.56106   2.57835   2.58886
 Alpha virt. eigenvalues --    2.62510   2.69315   2.72515   2.74058   2.81878
 Alpha virt. eigenvalues --    2.83062   2.83340   2.89481   2.90215   2.91140
 Alpha virt. eigenvalues --    2.95401   2.95894   2.96974   2.98823   3.00215
 Alpha virt. eigenvalues --    3.00536   3.05990   3.08760   3.09034   3.10185
 Alpha virt. eigenvalues --    3.11891   3.12928   3.15163   3.26907   3.27354
 Alpha virt. eigenvalues --    3.27887   3.31771   3.32610   3.33359   3.34466
 Alpha virt. eigenvalues --    3.34632   3.35827   3.36164   3.37851   3.39109
 Alpha virt. eigenvalues --    3.41949   3.44175   3.50249   3.53893   3.55173
 Alpha virt. eigenvalues --    3.55713   3.57372   3.60325   3.64295   3.64618
 Alpha virt. eigenvalues --    3.64741   3.67292   3.70099   3.70179   3.71510
 Alpha virt. eigenvalues --    3.73505   3.73884   3.74417   3.75734   3.78143
 Alpha virt. eigenvalues --    3.80139   3.82241   3.89649   3.91468   3.95441
 Alpha virt. eigenvalues --    3.96079   3.99211   4.02729   4.04085   4.04185
 Alpha virt. eigenvalues --    4.04209   4.04407   4.06738   4.08283   4.12002
 Alpha virt. eigenvalues --    4.17526   4.18669   4.18941   4.19280   4.21093
 Alpha virt. eigenvalues --    4.21621   4.21842   4.23382   4.27687   4.31351
 Alpha virt. eigenvalues --    4.33209   4.33754   4.34536   4.41811   4.42827
 Alpha virt. eigenvalues --    4.43437   4.44248   4.53309   4.55404   4.57118
 Alpha virt. eigenvalues --    4.58143   4.58260   4.62073   4.62857   4.63736
 Alpha virt. eigenvalues --    4.65181   4.66958   4.68100   4.93959   4.94463
 Alpha virt. eigenvalues --    4.95819   5.07042   5.07543   5.11142   5.18785
 Alpha virt. eigenvalues --    5.24682   5.27380   5.27390   5.35920   5.36223
 Alpha virt. eigenvalues --    5.40697   5.43047   5.49625   5.57502   5.57866
 Alpha virt. eigenvalues --    5.57991   5.59126   5.59429   5.59497   5.83659
 Alpha virt. eigenvalues --    5.87011   6.56354   6.79700   6.80627   7.18934
 Alpha virt. eigenvalues --    7.23475   7.53969  24.12793  24.33607  24.33949
 Alpha virt. eigenvalues --   24.39350  24.45796  50.09151
  Beta  occ. eigenvalues --  -19.65678 -10.59675 -10.55365 -10.53582 -10.53015
  Beta  occ. eigenvalues --  -10.53014  -1.08790  -0.91499  -0.77728  -0.77402
  Beta  occ. eigenvalues --   -0.74509  -0.61659  -0.53752  -0.53625  -0.51627
  Beta  occ. eigenvalues --   -0.48286  -0.48251  -0.44652  -0.43833  -0.42685
  Beta  occ. eigenvalues --   -0.42523  -0.38556  -0.38527  -0.33570
  Beta virt. eigenvalues --   -0.08205   0.01151   0.03008   0.03099   0.03386
  Beta virt. eigenvalues --    0.05645   0.05923   0.06422   0.06785   0.07115
  Beta virt. eigenvalues --    0.07818   0.10093   0.10332   0.10381   0.10609
  Beta virt. eigenvalues --    0.11277   0.12047   0.16145   0.16348   0.17032
  Beta virt. eigenvalues --    0.19241   0.19980   0.20021   0.22676   0.22881
  Beta virt. eigenvalues --    0.23356   0.24551   0.25770   0.26104   0.26317
  Beta virt. eigenvalues --    0.26467   0.28357   0.28684   0.29141   0.29662
  Beta virt. eigenvalues --    0.30221   0.31229   0.32133   0.32840   0.37762
  Beta virt. eigenvalues --    0.39091   0.42973   0.45276   0.45510   0.46390
  Beta virt. eigenvalues --    0.46949   0.47936   0.49450   0.50459   0.52123
  Beta virt. eigenvalues --    0.52980   0.55297   0.56516   0.57098   0.57700
  Beta virt. eigenvalues --    0.58304   0.59299   0.60742   0.61054   0.62077
  Beta virt. eigenvalues --    0.63261   0.63747   0.64553   0.67584   0.68884
  Beta virt. eigenvalues --    0.70188   0.70882   0.71004   0.72380   0.75937
  Beta virt. eigenvalues --    0.76801   0.80793   0.81951   0.87637   0.89159
  Beta virt. eigenvalues --    0.90723   0.94449   0.95490   0.98162   1.00078
  Beta virt. eigenvalues --    1.01218   1.01784   1.01847   1.02279   1.03715
  Beta virt. eigenvalues --    1.07009   1.08786   1.09105   1.11384   1.15225
  Beta virt. eigenvalues --    1.16484   1.17072   1.18155   1.18730   1.19235
  Beta virt. eigenvalues --    1.23993   1.25526   1.26674   1.27181   1.27418
  Beta virt. eigenvalues --    1.29431   1.30709   1.31347   1.32580   1.34976
  Beta virt. eigenvalues --    1.35136   1.36090   1.37608   1.37620   1.40320
  Beta virt. eigenvalues --    1.41851   1.42184   1.42276   1.42637   1.43054
  Beta virt. eigenvalues --    1.45477   1.47218   1.47258   1.50448   1.54538
  Beta virt. eigenvalues --    1.56440   1.58897   1.59564   1.60573   1.62151
  Beta virt. eigenvalues --    1.62220   1.63244   1.64172   1.64903   1.64927
  Beta virt. eigenvalues --    1.73552   1.77702   1.78030   1.83278   1.87472
  Beta virt. eigenvalues --    1.91050   2.11011   2.15800   2.36373   2.39734
  Beta virt. eigenvalues --    2.45560   2.52878   2.53649   2.56307   2.57992
  Beta virt. eigenvalues --    2.58871   2.62676   2.69359   2.72510   2.74065
  Beta virt. eigenvalues --    2.81895   2.83012   2.83339   2.89408   2.90182
  Beta virt. eigenvalues --    2.91210   2.95351   2.95867   2.96981   2.98832
  Beta virt. eigenvalues --    3.00230   3.00452   3.05869   3.08671   3.08875
  Beta virt. eigenvalues --    3.10172   3.11704   3.12868   3.15150   3.26840
  Beta virt. eigenvalues --    3.27266   3.27531   3.31764   3.32532   3.33311
  Beta virt. eigenvalues --    3.34453   3.34644   3.35783   3.36232   3.37859
  Beta virt. eigenvalues --    3.38860   3.41806   3.44207   3.50178   3.53167
  Beta virt. eigenvalues --    3.54910   3.55637   3.57399   3.60193   3.64045
  Beta virt. eigenvalues --    3.64564   3.64757   3.66978   3.70158   3.70180
  Beta virt. eigenvalues --    3.71489   3.73465   3.73804   3.74418   3.75688
  Beta virt. eigenvalues --    3.78075   3.80103   3.82188   3.89584   3.91530
  Beta virt. eigenvalues --    3.95433   3.96019   3.99072   4.02732   4.04005
  Beta virt. eigenvalues --    4.04106   4.04162   4.04376   4.06765   4.08214
  Beta virt. eigenvalues --    4.11965   4.17368   4.18704   4.18765   4.19267
  Beta virt. eigenvalues --    4.20973   4.21503   4.21717   4.23364   4.27609
  Beta virt. eigenvalues --    4.31039   4.32807   4.33543   4.34526   4.41784
  Beta virt. eigenvalues --    4.42763   4.43454   4.44254   4.53305   4.55073
  Beta virt. eigenvalues --    4.57094   4.58162   4.58288   4.62073   4.62887
  Beta virt. eigenvalues --    4.63769   4.65261   4.66898   4.68136   4.94231
  Beta virt. eigenvalues --    4.95233   4.96031   5.09292   5.12126   5.19324
  Beta virt. eigenvalues --    5.19384   5.25533   5.29252   5.30618   5.35912
  Beta virt. eigenvalues --    5.36353   5.41002   5.44178   5.50722   5.57510
  Beta virt. eigenvalues --    5.57896   5.57981   5.59134   5.59465   5.59519
  Beta virt. eigenvalues --    5.87028   5.87481   6.58008   6.92995   6.93142
  Beta virt. eigenvalues --    7.26635   7.32459   7.58870  24.12777  24.33604
  Beta virt. eigenvalues --   24.33950  24.39245  24.45696  50.08794
          Condensed to atoms (all electrons):
              1          2          3          4          5          6
     1  C    5.304036   0.194339   0.171643   0.171720   0.154036   0.029884
     2  C    0.194339   5.534056  -0.191323  -0.191298  -0.061665   0.045022
     3  C    0.171643  -0.191323   5.635596  -0.155552  -0.101973  -0.035291
     4  C    0.171720  -0.191298  -0.155552   5.635483  -0.101928  -0.035294
     5  C    0.154036  -0.061665  -0.101973  -0.101928   5.393475   0.157690
     6  O    0.029884   0.045022  -0.035291  -0.035294   0.157690   8.072955
     7  H    0.003385   0.380156  -0.019066   0.031053  -0.019998   0.000028
     8  H    0.003373   0.380156   0.031057  -0.019063  -0.019993   0.000028
     9  H   -0.028500   0.428366  -0.022860  -0.022859   0.025411  -0.000681
    10  H    0.022110  -0.019991   0.375853   0.026850  -0.023548  -0.002191
    11  H   -0.050191   0.018688   0.420419   0.001923  -0.011241  -0.002533
    12  H   -0.019313  -0.009039   0.407749  -0.027380   0.027720   0.000008
    13  H   -0.050194   0.018692   0.001923   0.420418  -0.011242  -0.002531
    14  H   -0.019300  -0.009042  -0.027394   0.407745   0.027724   0.000008
    15  H    0.022114  -0.019993   0.026854   0.375867  -0.023551  -0.002191
    16  H   -0.016377  -0.004275   0.012425  -0.013507   0.404075  -0.030091
    17  H   -0.016371  -0.004283  -0.013495   0.012422   0.404056  -0.030082
              7          8          9         10         11         12
     1  C    0.003385   0.003373  -0.028500   0.022110  -0.050191  -0.019313
     2  C    0.380156   0.380156   0.428366  -0.019991   0.018688  -0.009039
     3  C   -0.019066   0.031057  -0.022860   0.375853   0.420419   0.407749
     4  C    0.031053  -0.019063  -0.022859   0.026850   0.001923  -0.027380
     5  C   -0.019998  -0.019993   0.025411  -0.023548  -0.011241   0.027720
     6  O    0.000028   0.000028  -0.000681  -0.002191  -0.002533   0.000008
     7  H    0.519612  -0.025554  -0.023954   0.000516   0.000142   0.000228
     8  H   -0.025554   0.519602  -0.023946   0.000063  -0.000389   0.000053
     9  H   -0.023954  -0.023946   0.508180   0.000348   0.000138   0.000581
    10  H    0.000516   0.000063   0.000348   0.516727  -0.024146  -0.025361
    11  H    0.000142  -0.000389   0.000138  -0.024146   0.497234  -0.024418
    12  H    0.000228   0.000053   0.000581  -0.025361  -0.024418   0.514615
    13  H   -0.000389   0.000142   0.000138   0.000065   0.001766   0.000147
    14  H    0.000053   0.000228   0.000580   0.000119   0.000147   0.000974
    15  H    0.000063   0.000515   0.000349  -0.000500   0.000065   0.000119
    16  H   -0.000238   0.000941  -0.000289   0.000197  -0.000062  -0.000317
    17  H    0.000941  -0.000238  -0.000289   0.000164   0.000292  -0.000027
             13         14         15         16         17
     1  C   -0.050194  -0.019300   0.022114  -0.016377  -0.016371
     2  C    0.018692  -0.009042  -0.019993  -0.004275  -0.004283
     3  C    0.001923  -0.027394   0.026854   0.012425  -0.013495
     4  C    0.420418   0.407745   0.375867  -0.013507   0.012422
     5  C   -0.011242   0.027724  -0.023551   0.404075   0.404056
     6  O   -0.002531   0.000008  -0.002191  -0.030091  -0.030082
     7  H   -0.000389   0.000053   0.000063  -0.000238   0.000941
     8  H    0.000142   0.000228   0.000515   0.000941  -0.000238
     9  H    0.000138   0.000580   0.000349  -0.000289  -0.000289
    10  H    0.000065   0.000119  -0.000500   0.000197   0.000164
    11  H    0.001766   0.000147   0.000065  -0.000062   0.000292
    12  H    0.000147   0.000974   0.000119  -0.000317  -0.000027
    13  H    0.497239  -0.024422  -0.024142   0.000292  -0.000062
    14  H   -0.024422   0.514637  -0.025363  -0.000027  -0.000317
    15  H   -0.024142  -0.025363   0.516693   0.000164   0.000197
    16  H    0.000292  -0.000027   0.000164   0.487167  -0.019813
    17  H   -0.000062  -0.000317   0.000197  -0.019813   0.487158
 Mulliken atomic charges:
              1
     1  C    0.123607
     2  C   -0.488568
     3  C   -0.516565
     4  C   -0.516600
     5  C   -0.219047
     6  O   -0.164738
     7  H    0.153021
     8  H    0.153024
     9  H    0.159285
    10  H    0.152724
    11  H    0.172167
    12  H    0.153659
    13  H    0.172159
    14  H    0.153648
    15  H    0.152742
    16  H    0.179736
    17  H    0.179746
 Sum of Mulliken atomic charges =   0.00000
 Mulliken charges with hydrogens summed into heavy atoms:
              1
     1  C    0.123607
     2  C   -0.023237
     3  C   -0.038016
     4  C   -0.038051
     5  C    0.140435
     6  O   -0.164738
 Sum of Mulliken charges with hydrogens summed into heavy atoms =   0.00000
          Atomic-Atomic Spin Densities.
              1          2          3          4          5          6
     1  C    0.001986  -0.033207  -0.002291  -0.002268   0.052890  -0.067665
     2  C   -0.033207   0.020608   0.005061   0.005077   0.001927   0.000634
     3  C   -0.002291   0.005061   0.122622  -0.111813  -0.009261   0.021269
     4  C   -0.002268   0.005077  -0.111813   0.122591  -0.009272   0.021280
     5  C    0.052890   0.001927  -0.009261  -0.009272  -0.112705  -0.000179
     6  O   -0.067665   0.000634   0.021269   0.021280  -0.000179   0.982584
     7  H   -0.001289  -0.000374   0.002612  -0.001579   0.000541   0.000076
     8  H   -0.001289  -0.000374  -0.001580   0.002611   0.000540   0.000076
     9  H   -0.000969   0.000881   0.000026   0.000022   0.000002   0.000023
    10  H    0.000546   0.000018  -0.001361   0.000183   0.000327  -0.000233
    11  H    0.007030   0.001111  -0.009369   0.002480  -0.000713  -0.002213
    12  H   -0.000326  -0.000721  -0.003230   0.003304   0.000151   0.000064
    13  H    0.007030   0.001111   0.002480  -0.009368  -0.000713  -0.002216
    14  H   -0.000326  -0.000722   0.003306  -0.003232   0.000151   0.000064
    15  H    0.000545   0.000018   0.000184  -0.001361   0.000327  -0.000233
    16  H    0.020161  -0.002075   0.013343  -0.024323   0.012440  -0.016482
    17  H    0.020165  -0.002073  -0.024334   0.013345   0.012448  -0.016491
              7          8          9         10         11         12
     1  C   -0.001289  -0.001289  -0.000969   0.000546   0.007030  -0.000326
     2  C   -0.000374  -0.000374   0.000881   0.000018   0.001111  -0.000721
     3  C    0.002612  -0.001580   0.000026  -0.001361  -0.009369  -0.003230
     4  C   -0.001579   0.002611   0.000022   0.000183   0.002480   0.003304
     5  C    0.000541   0.000540   0.000002   0.000327  -0.000713   0.000151
     6  O    0.000076   0.000076   0.000023  -0.000233  -0.002213   0.000064
     7  H   -0.000735   0.000102   0.000081   0.000097  -0.000013  -0.000033
     8  H    0.000102  -0.000735   0.000081  -0.000001   0.000004   0.000008
     9  H    0.000081   0.000081  -0.000563  -0.000011  -0.000003  -0.000015
    10  H    0.000097  -0.000001  -0.000011  -0.000306   0.000261   0.000009
    11  H   -0.000013   0.000004  -0.000003   0.000261   0.001146   0.000170
    12  H   -0.000033   0.000008  -0.000015   0.000009   0.000170   0.000585
    13  H    0.000004  -0.000013  -0.000003  -0.000028  -0.000257  -0.000043
    14  H    0.000008  -0.000033  -0.000015   0.000000  -0.000043  -0.000054
    15  H   -0.000001   0.000097  -0.000011  -0.000004  -0.000028   0.000000
    16  H    0.000187  -0.000353   0.000023  -0.000071  -0.000178  -0.000029
    17  H   -0.000353   0.000187   0.000023   0.000201   0.000536   0.000086
             13         14         15         16         17
     1  C    0.007030  -0.000326   0.000545   0.020161   0.020165
     2  C    0.001111  -0.000722   0.000018  -0.002075  -0.002073
     3  C    0.002480   0.003306   0.000184   0.013343  -0.024334
     4  C   -0.009368  -0.003232  -0.001361  -0.024323   0.013345
     5  C   -0.000713   0.000151   0.000327   0.012440   0.012448
     6  O   -0.002216   0.000064  -0.000233  -0.016482  -0.016491
     7  H    0.000004   0.000008  -0.000001   0.000187  -0.000353
     8  H   -0.000013  -0.000033   0.000097  -0.000353   0.000187
     9  H   -0.000003  -0.000015  -0.000011   0.000023   0.000023
    10  H   -0.000028   0.000000  -0.000004  -0.000071   0.000201
    11  H   -0.000257  -0.000043  -0.000028  -0.000178   0.000536
    12  H   -0.000043  -0.000054   0.000000  -0.000029   0.000086
    13  H    0.001144   0.000170   0.000261   0.000535  -0.000178
    14  H    0.000170   0.000584   0.000009   0.000086  -0.000029
    15  H    0.000261   0.000009  -0.000306   0.000201  -0.000071
    16  H    0.000535   0.000086   0.000201   0.074859  -0.018036
    17  H   -0.000178  -0.000029  -0.000071  -0.018036   0.074890
 Mulliken atomic spin densities:
              1
     1  C    0.000724
     2  C   -0.003100
     3  C    0.007663
     4  C    0.007677
     5  C   -0.051098
     6  O    0.920357
     7  H   -0.000670
     8  H   -0.000670
     9  H   -0.000429
    10  H   -0.000374
    11  H   -0.000079
    12  H   -0.000075
    13  H   -0.000082
    14  H   -0.000076
    15  H   -0.000374
    16  H    0.060289
    17  H    0.060316
 Sum of Mulliken atomic spin densities =   1.00000
 Electronic spatial extent (au):  <R**2>=            632.6217
 Charge=              0.0000 electrons
 Dipole moment (field-independent basis, Debye):
    X=              1.6142    Y=              0.9720    Z=             -0.0008  Tot=              1.8843
 Quadrupole moment (field-independent basis, Debye-Ang):
   XX=            -45.1825   YY=            -38.7631   ZZ=            -39.0226
   XY=             -1.5009   XZ=              0.0013   YZ=             -0.0001
 Traceless Quadrupole moment (field-independent basis, Debye-Ang):
   XX=             -4.1931   YY=              2.2263   ZZ=              1.9668
   XY=             -1.5009   XZ=              0.0013   YZ=             -0.0001
 Octapole moment (field-independent basis, Debye-Ang**2):
  XXX=              7.1038  YYY=              1.4114  ZZZ=             -0.0082  XYY=             -4.5016
  XXY=             -1.2865  XXZ=              0.0004  XZZ=             -5.1042  YZZ=              3.5034
  YYZ=              0.0044  XYZ=              0.0001
 Hexadecapole moment (field-independent basis, Debye-Ang**3):
 XXXX=           -424.0284 YYYY=           -236.5393 ZZZZ=           -236.2213 XXXY=             -5.5310
 XXXZ=              0.0051 YYYX=             -2.3964 YYYZ=              0.0073 ZZZX=              0.0013
 ZZZY=             -0.0058 XXYY=           -102.3323 XXZZ=           -103.3345 YYZZ=            -76.2918
 XXYZ=             -0.0011 YYXZ=              0.0016 ZZXY=             -0.2189
 N-N= 2.551912157715D+02 E-N=-1.707260194532D+03  KE= 4.048348713694D+02
                          Isotropic Fermi Contact Couplings
        Atom                 a.u.       MegaHertz       Gauss      10(-4) cm-1
     1  C(13)             -0.00387      -4.34830      -1.55158      -1.45044
     2  C(13)             -0.00121      -1.36033      -0.48540      -0.45376
     3  C(13)             -0.00085      -0.95333      -0.34017      -0.31800
     4  C(13)             -0.00085      -0.95284      -0.34000      -0.31783
     5  C(13)             -0.03075     -34.56694     -12.33434     -11.53029
     6  O(17)              0.13450     -81.53445     -29.09352     -27.19696
     7  H(1)               0.00007       0.33479       0.11946       0.11167
     8  H(1)               0.00007       0.33507       0.11956       0.11177
     9  H(1)              -0.00015      -0.67289      -0.24011      -0.22445
    10  H(1)              -0.00002      -0.10467      -0.03735      -0.03491
    11  H(1)               0.00047       2.08251       0.74309       0.69465
    12  H(1)              -0.00007      -0.31725      -0.11320      -0.10582
    13  H(1)               0.00047       2.08413       0.74367       0.69519
    14  H(1)              -0.00007      -0.31819      -0.11354      -0.10614
    15  H(1)              -0.00002      -0.10468      -0.03735      -0.03492
    16  H(1)               0.03048     136.22719      48.60925      45.44050
    17  H(1)               0.03049     136.29756      48.63436      45.46397
 --------------------------------------------------------
       Center         ----  Spin Dipole Couplings  ----
                      3XX-RR        3YY-RR        3ZZ-RR
 --------------------------------------------------------
     1   Atom        0.015041     -0.007155     -0.007886
     2   Atom        0.003941     -0.003027     -0.000913
     3   Atom        0.006628     -0.002162     -0.004466
     4   Atom        0.006629     -0.002168     -0.004461
     5   Atom        0.005633     -0.015567      0.009934
     6   Atom       -1.800932     -1.794626      3.595558
     7   Atom        0.003974     -0.001840     -0.002135
     8   Atom        0.003974     -0.001838     -0.002136
     9   Atom        0.003000     -0.001581     -0.001419
    10   Atom        0.002625     -0.003417      0.000792
    11   Atom        0.001799      0.001553     -0.003351
    12   Atom        0.002771     -0.000995     -0.001776
    13   Atom        0.001800      0.001534     -0.003333
    14   Atom        0.002771     -0.000998     -0.001774
    15   Atom        0.002624     -0.003421      0.000796
    16   Atom       -0.002992      0.008152     -0.005159
    17   Atom       -0.002992      0.008101     -0.005109
 --------------------------------------------------------
                        XY            XZ            YZ
 --------------------------------------------------------
     1   Atom       -0.000245     -0.000001      0.000000
     2   Atom        0.000451     -0.000001      0.000001
     3   Atom       -0.002166     -0.004494      0.002223
     4   Atom       -0.002155      0.004497     -0.002228
     5   Atom        0.034775     -0.000021      0.000012
     6   Atom       -0.009048      0.000598      0.003446
     7   Atom        0.002041     -0.001309     -0.000529
     8   Atom        0.002043      0.001306      0.000529
     9   Atom        0.000053      0.000000      0.000000
    10   Atom       -0.001317     -0.005901      0.001146
    11   Atom       -0.008461     -0.005970      0.005858
    12   Atom       -0.002406     -0.001749      0.000823
    13   Atom       -0.008451      0.005984     -0.005866
    14   Atom       -0.002403      0.001753     -0.000824
    15   Atom       -0.001307      0.005903     -0.001138
    16   Atom        0.012220      0.006484      0.014902
    17   Atom        0.012212     -0.006504     -0.014924
 --------------------------------------------------------


 ---------------------------------------------------------------------------------
              Anisotropic Spin Dipole Couplings in Principal Axis System
 ---------------------------------------------------------------------------------

       Atom             a.u.   MegaHertz   Gauss  10(-4) cm-1        Axes

              Baa    -0.0079    -1.058    -0.378    -0.353  0.0000  0.0004  1.0000
     1 C(13)  Bbb    -0.0072    -0.961    -0.343    -0.320  0.0110  0.9999 -0.0004
              Bcc     0.0150     2.019     0.720     0.673  0.9999 -0.0110  0.0000
 
              Baa    -0.0031    -0.410    -0.146    -0.137 -0.0643  0.9979 -0.0006
     2 C(13)  Bbb    -0.0009    -0.123    -0.044    -0.041  0.0002  0.0006  1.0000
              Bcc     0.0040     0.533     0.190     0.178  0.9979  0.0643 -0.0002
 
              Baa    -0.0065    -0.878    -0.313    -0.293  0.2546 -0.3343  0.9074
     3 C(13)  Bbb    -0.0024    -0.319    -0.114    -0.107  0.3385  0.9098  0.2402
              Bcc     0.0089     1.198     0.427     0.400  0.9058 -0.2460 -0.3448
 
              Baa    -0.0065    -0.879    -0.314    -0.293 -0.2546  0.3359  0.9068
     4 C(13)  Bbb    -0.0024    -0.319    -0.114    -0.106  0.3384  0.9094 -0.2419
              Bcc     0.0089     1.198     0.427     0.400  0.9059 -0.2453  0.3452
 
              Baa    -0.0413    -5.545    -1.979    -1.850 -0.5952  0.8036 -0.0004
     5 C(13)  Bbb     0.0099     1.333     0.476     0.445  0.0001  0.0006  1.0000
              Bcc     0.0314     4.212     1.503     1.405  0.8036  0.5952 -0.0004
 
              Baa    -1.8074   130.779    46.665    43.623  0.8152  0.5792 -0.0005
     6 O(17)  Bbb    -1.7882   129.393    46.171    43.161 -0.5792  0.8152 -0.0005
              Bcc     3.5956  -260.172   -92.836   -86.784  0.0001  0.0006  1.0000
 
              Baa    -0.0026    -1.368    -0.488    -0.456 -0.1349  0.8038  0.5793
     7 H(1)   Bbb    -0.0023    -1.247    -0.445    -0.416  0.3305 -0.5147  0.7911
              Bcc     0.0049     2.615     0.933     0.872  0.9341  0.2982 -0.1962
 
              Baa    -0.0026    -1.368    -0.488    -0.456 -0.1350  0.8030 -0.5806
     8 H(1)   Bbb    -0.0023    -1.247    -0.445    -0.416 -0.3306  0.5158  0.7903
              Bcc     0.0049     2.615     0.933     0.872  0.9341  0.2986  0.1958
 
              Baa    -0.0016    -0.844    -0.301    -0.281 -0.0116  0.9999 -0.0001
     9 H(1)   Bbb    -0.0014    -0.757    -0.270    -0.252  0.0000  0.0001  1.0000
              Bcc     0.0030     1.601     0.571     0.534  0.9999  0.0116  0.0000
 
              Baa    -0.0043    -2.275    -0.812    -0.759  0.6480 -0.0221  0.7613
    10 H(1)   Bbb    -0.0037    -1.966    -0.702    -0.656  0.1298  0.9882 -0.0818
              Bcc     0.0079     4.241     1.513     1.415  0.7505 -0.1518 -0.6432
 
              Baa    -0.0074    -3.922    -1.400    -1.308  0.3280 -0.2816  0.9018
    11 H(1)   Bbb    -0.0068    -3.621    -1.292    -1.208  0.6923  0.7211 -0.0266
              Bcc     0.0141     7.543     2.692     2.516  0.6428 -0.6330 -0.4314
 
              Baa    -0.0024    -1.265    -0.451    -0.422  0.3155 -0.0157  0.9488
    12 H(1)   Bbb    -0.0022    -1.155    -0.412    -0.385  0.4009  0.9084 -0.1183
              Bcc     0.0045     2.420     0.863     0.807  0.8601 -0.4177 -0.2929
 
              Baa    -0.0074    -3.923    -1.400    -1.309 -0.3278  0.2832  0.9013
    13 H(1)   Bbb    -0.0068    -3.620    -1.292    -1.208  0.6923  0.7211  0.0252
              Bcc     0.0141     7.544     2.692     2.516  0.6428 -0.6323  0.4325
 
              Baa    -0.0024    -1.265    -0.451    -0.422 -0.3151  0.0180  0.9489
    14 H(1)   Bbb    -0.0022    -1.155    -0.412    -0.385  0.4012  0.9086  0.1160
              Bcc     0.0045     2.420     0.863     0.807  0.8601 -0.4173  0.2935
 
              Baa    -0.0043    -2.275    -0.812    -0.759 -0.6480  0.0232  0.7613
    15 H(1)   Bbb    -0.0037    -1.966    -0.702    -0.656  0.1297  0.9883  0.0803
              Bcc     0.0079     4.241     1.513     1.415  0.7505 -0.1507  0.6435
 
              Baa    -0.0151    -8.034    -2.867    -2.680  0.1884 -0.5989  0.7783
    16 H(1)   Bbb    -0.0096    -5.138    -1.833    -1.714  0.8749 -0.2577 -0.4100
              Bcc     0.0247    13.172     4.700     4.394  0.4461  0.7582  0.4755
 
              Baa    -0.0151    -8.034    -2.867    -2.680 -0.1887  0.6003  0.7772
    17 H(1)   Bbb    -0.0096    -5.138    -1.833    -1.714  0.8748 -0.2568  0.4107
              Bcc     0.0247    13.172     4.700     4.394  0.4462  0.7574 -0.4767
 

 ---------------------------------------------------------------------------------

 Calling FoFJK, ICntrl=      2127 FMM=F ISym2X=0 I1Cent= 0 IOpClX= 1 NMat=1 NMatS=1 NMatT=0.
 ***** Axes restored to original set *****
 -------------------------------------------------------------------
 Center     Atomic                   Forces (Hartrees/Bohr)
 Number     Number              X              Y              Z
 -------------------------------------------------------------------
      1        6           0.006214388   -0.007672982   -0.002079867
      2        6           0.005016885    0.002128396   -0.000523187
      3        6          -0.004791627    0.000669860   -0.003420391
      4        6          -0.003472803   -0.000548232    0.004726286
      5        6          -0.014568652   -0.015402953    0.000120513
      6        8           0.017808072    0.005511006   -0.002086572
      7        1          -0.002524370   -0.006825039    0.009713827
      8        1          -0.005712428   -0.003971081   -0.009939674
      9        1          -0.002418974    0.013121664    0.002304637
     10        1          -0.003211843   -0.007115183    0.009169150
     11        1           0.012888456   -0.000759280   -0.002072931
     12        1          -0.001715589    0.012815734    0.002713890
     13        1           0.012850876   -0.000721606   -0.002312214
     14        1          -0.001894708    0.012989189    0.001623445
     15        1          -0.006197736   -0.004414126   -0.009300677
     16        1          -0.005243345    0.001086689   -0.006148902
     17        1          -0.003026602   -0.000892055    0.007512666
 -------------------------------------------------------------------
 Cartesian Forces:  Max     0.017808072 RMS     0.007132637

 GradGradGradGradGradGradGradGradGradGradGradGradGradGradGradGradGradGrad
 Berny optimization.
 Internal  Forces:  Max     0.016552701 RMS     0.005526846
 Search for a local minimum.
 Step number   1 out of a maximum of   92
 All quantities printed in internal units (Hartrees-Bohrs-Radians)
 Swaping is turned off.
 Second derivative matrix not updated -- first step.
 ITU=  0
     Eigenvalues ---    0.00230   0.00230   0.00230   0.00230   0.04578
     Eigenvalues ---    0.04787   0.04839   0.05442   0.05473   0.05473
     Eigenvalues ---    0.05488   0.05494   0.05502   0.05502   0.05844
     Eigenvalues ---    0.14346   0.14420   0.16000   0.16000   0.16000
     Eigenvalues ---    0.16000   0.16000   0.16000   0.16000   0.16000
     Eigenvalues ---    0.16000   0.16000   0.16000   0.22323   0.27942
     Eigenvalues ---    0.28341   0.28347   0.28419   0.32429   0.32431
     Eigenvalues ---    0.32433   0.32434   0.32435   0.32445   0.32448
     Eigenvalues ---    0.32449   0.32450   0.32478   0.32478   0.46040
 Quadratic step=3.742D-01 exceeds max=3.000D-01 adjusted using Lamda=-9.081D-04.
 Angle between NR and scaled steps=   8.83 degrees.
 Angle between quadratic step and forces=  54.12 degrees.
 Linear search not attempted -- option 19 set.
 Iteration  1 RMS(Cart)=  0.03443067 RMS(Int)=  0.00088509
 Iteration  2 RMS(Cart)=  0.00102272 RMS(Int)=  0.00020591
 Iteration  3 RMS(Cart)=  0.00000070 RMS(Int)=  0.00020591
 Variable       Old X    -DE/DX   Delta X   Delta X   Delta X     New X
                                 (Linear)    (Quad)   (Total)
    R1        2.91232  -0.00642   0.00000  -0.02253  -0.02253   2.88979
    R2        2.91387  -0.00844   0.00000  -0.02967  -0.02967   2.88420
    R3        2.91400  -0.00846   0.00000  -0.02976  -0.02976   2.88424
    R4        2.92266  -0.00876   0.00000  -0.03125  -0.03125   2.89141
    R5        2.10058  -0.01208   0.00000  -0.03714  -0.03714   2.06344
    R6        2.10056  -0.01208   0.00000  -0.03712  -0.03712   2.06343
    R7        2.10065  -0.01354   0.00000  -0.04165  -0.04165   2.05901
    R8        2.10038  -0.01200   0.00000  -0.03689  -0.03689   2.06348
    R9        2.09978  -0.01306   0.00000  -0.04009  -0.04009   2.05969
   R10        2.10056  -0.01320   0.00000  -0.04057  -0.04057   2.05999
   R11        2.09978  -0.01306   0.00000  -0.04009  -0.04009   2.05969
   R12        2.10062  -0.01321   0.00000  -0.04062  -0.04062   2.05999
   R13        2.10028  -0.01198   0.00000  -0.03681  -0.03681   2.06347
   R14        2.64086  -0.01655   0.00000  -0.03588  -0.03588   2.60498
   R15        2.10032  -0.00731   0.00000  -0.02248  -0.02248   2.07784
   R16        2.10030  -0.00731   0.00000  -0.02246  -0.02246   2.07785
    A1        1.90360   0.00084   0.00000   0.01812   0.01782   1.92141
    A2        1.90353   0.00084   0.00000   0.01816   0.01785   1.92139
    A3        1.90240  -0.00036   0.00000  -0.00839  -0.00817   1.89422
    A4        1.91168   0.00059   0.00000   0.00995   0.00939   1.92108
    A5        1.92125  -0.00094   0.00000  -0.01866  -0.01858   1.90267
    A6        1.92115  -0.00093   0.00000  -0.01858  -0.01850   1.90265
    A7        1.93133   0.00146   0.00000   0.01001   0.00997   1.94130
    A8        1.93137   0.00146   0.00000   0.00994   0.00990   1.94127
    A9        1.93253  -0.00052   0.00000  -0.00504  -0.00502   1.92752
   A10        1.88954  -0.00115   0.00000  -0.00373  -0.00383   1.88572
   A11        1.88877  -0.00068   0.00000  -0.00588  -0.00586   1.88291
   A12        1.88886  -0.00068   0.00000  -0.00595  -0.00593   1.88293
   A13        1.93050   0.00135   0.00000   0.00817   0.00817   1.93867
   A14        1.93526  -0.00044   0.00000  -0.00191  -0.00191   1.93335
   A15        1.93051  -0.00087   0.00000  -0.00599  -0.00598   1.92453
   A16        1.89061  -0.00036   0.00000  -0.00114  -0.00114   1.88947
   A17        1.88989  -0.00042   0.00000  -0.00413  -0.00411   1.88578
   A18        1.88558   0.00073   0.00000   0.00495   0.00494   1.89053
   A19        1.93523  -0.00043   0.00000  -0.00188  -0.00188   1.93334
   A20        1.93045  -0.00087   0.00000  -0.00595  -0.00595   1.92450
   A21        1.93058   0.00134   0.00000   0.00809   0.00810   1.93868
   A22        1.88554   0.00073   0.00000   0.00498   0.00498   1.89052
   A23        1.89068  -0.00036   0.00000  -0.00118  -0.00118   1.88950
   A24        1.88988  -0.00041   0.00000  -0.00411  -0.00409   1.88579
   A25        1.93990   0.01508   0.00000   0.07014   0.06924   2.00914
   A26        1.92467   0.00164   0.00000   0.01272   0.01229   1.93696
   A27        1.92462   0.00165   0.00000   0.01277   0.01234   1.93696
   A28        1.89572  -0.00784   0.00000  -0.03377  -0.03458   1.86114
   A29        1.89569  -0.00784   0.00000  -0.03378  -0.03459   1.86110
   A30        1.88190  -0.00351   0.00000  -0.03247  -0.03237   1.84953
    D1        1.05077  -0.00109   0.00000  -0.02096  -0.02107   1.02970
    D2       -3.13793  -0.00062   0.00000  -0.01260  -0.01266   3.13260
    D3       -1.04351  -0.00086   0.00000  -0.01684  -0.01693  -1.06044
    D4        3.13792   0.00062   0.00000   0.01265   0.01271  -3.13255
    D5       -1.05077   0.00109   0.00000   0.02101   0.02112  -1.02965
    D6        1.04365   0.00085   0.00000   0.01677   0.01685   1.06050
    D7       -1.04732  -0.00023   0.00000  -0.00409  -0.00412  -1.05144
    D8        1.04717   0.00024   0.00000   0.00426   0.00429   1.05146
    D9        3.14158   0.00000   0.00000   0.00002   0.00002  -3.14158
   D10       -1.07073   0.00108   0.00000   0.07250   0.07256  -0.99817
   D11        3.11462   0.00093   0.00000   0.06979   0.06985  -3.09871
   D12        1.02309   0.00087   0.00000   0.06875   0.06881   1.09191
   D13        3.13036  -0.00079   0.00000   0.03360   0.03355  -3.11928
   D14        1.03252  -0.00094   0.00000   0.03089   0.03084   1.06336
   D15       -1.05900  -0.00100   0.00000   0.02985   0.02979  -1.02921
   D16        1.01572   0.00059   0.00000   0.06211   0.06211   1.07782
   D17       -1.08212   0.00044   0.00000   0.05940   0.05940  -1.02272
   D18        3.10954   0.00038   0.00000   0.05837   0.05835  -3.11529
   D19       -3.11460  -0.00093   0.00000  -0.06978  -0.06984   3.09874
   D20       -1.02319  -0.00087   0.00000  -0.06866  -0.06872  -1.09191
   D21        1.07063  -0.00108   0.00000  -0.07241  -0.07248   0.99815
   D22       -1.03247   0.00094   0.00000  -0.03090  -0.03085  -1.06331
   D23        1.05895   0.00100   0.00000  -0.02979  -0.02973   1.02922
   D24       -3.13042   0.00079   0.00000  -0.03353  -0.03348   3.11929
   D25        1.08223  -0.00044   0.00000  -0.05946  -0.05946   1.02278
   D26       -3.10954  -0.00038   0.00000  -0.05835  -0.05833   3.11531
   D27       -1.01572  -0.00059   0.00000  -0.06209  -0.06209  -1.07781
   D28       -3.14157   0.00000   0.00000   0.00008   0.00008  -3.14150
   D29       -1.03814   0.00114   0.00000   0.01216   0.01239  -1.02575
   D30        1.03826  -0.00114   0.00000  -0.01203  -0.01225   1.02600
   D31        1.05443  -0.00024   0.00000  -0.00567  -0.00562   1.04881
   D32       -3.12532   0.00090   0.00000   0.00641   0.00669  -3.11863
   D33       -1.04892  -0.00138   0.00000  -0.01778  -0.01795  -1.06687
   D34       -1.05453   0.00024   0.00000   0.00592   0.00587  -1.04866
   D35        1.04890   0.00138   0.00000   0.01800   0.01818   1.06708
   D36        3.12530  -0.00090   0.00000  -0.00618  -0.00647   3.11883
         Item               Value     Threshold  Converged?
 Maximum Force            0.016553     0.000002     NO 
 RMS     Force            0.005527     0.000001     NO 
 Maximum Displacement     0.086669     0.000006     NO 
 RMS     Displacement     0.034510     0.000004     NO 
 Predicted change in Energy=-4.455190D-03
 GradGradGradGradGradGradGradGradGradGradGradGradGradGradGradGradGradGrad

                          Input orientation:                          
 ---------------------------------------------------------------------
 Center     Atomic      Atomic             Coordinates (Angstroms)
 Number     Number       Type             X           Y           Z
 ---------------------------------------------------------------------
      1          6           0        0.011057   -0.022449   -0.005075
      2          6           0        1.504180   -0.212872   -0.274897
      3          6           0       -0.801737   -0.467117   -1.217959
      4          6           0       -0.405311   -0.822375    1.226295
      5          6           0       -0.250881    1.462726    0.253283
      6          8           0       -1.564756    1.788449    0.513827
      7          1           0        1.824322    0.359469   -1.147957
      8          1           0        2.104335    0.108466    0.578829
      9          1           0        1.725872   -1.262859   -0.463481
     10          1           0       -0.501065    0.079637   -2.114064
     11          1           0       -1.865607   -0.295788   -1.054269
     12          1           0       -0.650659   -1.530452   -1.404533
     13          1           0       -1.458738   -0.660449    1.454418
     14          1           0       -0.251882   -1.887794    1.054066
     15          1           0        0.182376   -0.532830    2.099863
     16          1           0        0.338422    1.823450    1.108620
     17          1           0        0.059971    2.072789   -0.607067
 ---------------------------------------------------------------------
                    Distance matrix (angstroms):
                    1          2          3          4          5
     1  C    0.000000
     2  C    1.529209   0.000000
     3  C    1.526254   2.504248   0.000000
     4  C    1.526274   2.504241   2.501547   0.000000
     5  C    1.530067   2.483313   2.488432   2.488430   0.000000
     6  O    2.455972   3.747765   2.944293   2.944202   1.378494
     7  H    2.177147   1.091924   2.753966   3.464835   2.736260
     8  H    2.177130   1.091921   3.464822   2.753906   2.736247
     9  H    2.165490   1.089580   2.755222   2.755233   3.442401
    10  H    2.172677   2.736623   1.091947   3.461328   2.753155
    11  H    2.167347   3.459735   1.089940   2.758755   2.722023
    12  H    2.161117   2.766845   1.090099   2.735475   3.444895
    13  H    2.167363   3.459731   2.758736   1.089940   2.722043
    14  H    2.161118   2.766814   2.735463   1.090102   3.444886
    15  H    2.172694   2.736608   3.461320   1.091940   2.753146
    16  H    2.180556   2.723916   3.458270   2.750886   1.099546
    17  H    2.180553   2.724028   2.750792   3.458276   1.099549
                    6          7          8          9         10
     6  O    0.000000
     7  H    4.036008   0.000000
     8  H    4.035939   1.767257   0.000000
     9  H    4.592804   1.763561   1.763569   0.000000
    10  H    3.310180   2.533593   3.747080   3.079930   0.000000
    11  H    2.625545   3.748829   4.311713   3.766030   1.768074
    12  H    3.940912   3.124607   3.769585   2.570036   1.765842
    13  H    2.625463   4.311736   3.748783   3.766030   3.768147
    14  H    3.940846   3.769578   3.124526   2.570020   3.737636
    15  H    3.310033   3.747068   2.533522   3.079945   4.312701
    16  H    1.994265   3.072992   2.517995   3.731196   3.759164
    17  H    1.994239   2.518127   3.073165   3.731273   2.560949
                   11         12         13         14         15
    11  H    0.000000
    12  H    1.767252   0.000000
    13  H    2.567495   3.095723   0.000000
    14  H    3.095750   2.516233   1.767247   0.000000
    15  H    3.768152   3.737645   1.768089   1.765843   0.000000
    16  H    3.745265   4.306145   3.085306   3.758293   2.561048
    17  H    3.085126   3.758231   3.745235   4.306139   3.759216
                   16         17
    16  H    0.000000
    17  H    1.755929   0.000000
 Stoichiometry    C5H11O(2)
 Framework group  C1[X(C5H11O)]
 Deg. of freedom    45
 Full point group                 C1      NOp   1
 Largest Abelian subgroup         C1      NOp   1
 Largest concise Abelian subgroup C1      NOp   1
                         Standard orientation:                         
 ---------------------------------------------------------------------
 Center     Atomic      Atomic             Coordinates (Angstroms)
 Number     Number       Type             X           Y           Z
 ---------------------------------------------------------------------
      1          6           0        0.363104   -0.010898   -0.000004
      2          6           0        1.532672    0.974289   -0.000666
      3          6           0        0.413310   -0.885056   -1.250116
      4          6           0        0.413207   -0.883203    1.251430
      5          6           0       -0.943445    0.785365   -0.000634
      6          8           0       -2.092619    0.024021   -0.000011
      7          1           0        1.509638    1.614725   -0.884753
      8          1           0        1.509552    1.615980    0.882503
      9          1           0        2.481441    0.438544   -0.000250
     10          1           0        0.401078   -0.275710   -2.156149
     11          1           0       -0.439928   -1.562476   -1.282634
     12          1           0        1.325312   -1.482150   -1.256986
     13          1           0       -0.440010   -1.560605    1.284861
     14          1           0        1.325224   -1.480267    1.259246
     15          1           0        0.400897   -0.272516    2.156551
     16          1           0       -1.002651    1.445392    0.876782
     17          1           0       -1.002685    1.443934   -0.879146
 ---------------------------------------------------------------------
 Rotational constants (GHZ):      4.4617215      2.6907821      2.6885980
 Standard basis: 6-311+G(2df,2p) (5D, 7F)
 There are   303 symmetry adapted basis functions of A   symmetry.
 Integral buffers will be    131072 words long.
 Raffenetti 2 integral format.
 Two-electron integral symmetry is turned on.
   303 basis functions,   433 primitive gaussians,   333 cartesian basis functions
    25 alpha electrons       24 beta electrons
       nuclear repulsion energy       257.5152408187 Hartrees.
 NAtoms=   17 NActive=   17 NUniq=   17 SFac= 1.00D+00 NAtFMM=   50 NAOKFM=F Big=F
 One-electron integrals computed using PRISM.
 NBasis=   303 RedAO= T  NBF=   303
 NBsUse=   303 1.00D-06 NBFU=   303
 Initial guess read from the read-write file.
 B after Tr=     0.000000    0.000000    0.000000
         Rot=    1.000000    0.000000    0.000000    0.000000 Ang=   0.00 deg.
 Initial guess orbital symmetries:
 Alpha Orbitals:
       Occupied  (A) (A) (A) (A) (A) (A) (A) (A) (A) (A) (A) (A)
                 (A) (A) (A) (A) (A) (A) (A) (A) (A) (A) (A) (A)
                 (A)
       Virtual   (A) (A) (A) (A) (A) (A) (A) (A) (A) (A) (A) (A)
                 (A) (A) (A) (A) (A) (A) (A) (A) (A) (A) (A) (A)
                 (A) (A) (A) (A) (A) (A) (A) (A) (A) (A) (A) (A)
                 (A) (A) (A) (A) (A) (A) (A) (A) (A) (A) (A) (A)
                 (A) (A) (A) (A) (A) (A) (A) (A) (A) (A) (A) (A)
                 (A) (A) (A) (A) (A) (A) (A) (A) (A) (A) (A) (A)
                 (A) (A) (A) (A) (A) (A) (A) (A) (A) (A) (A) (A)
                 (A) (A) (A) (A) (A) (A) (A) (A) (A) (A) (A) (A)
                 (A) (A) (A) (A) (A) (A) (A) (A) (A) (A) (A) (A)
                 (A) (A) (A) (A) (A) (A) (A) (A) (A) (A) (A) (A)
                 (A) (A) (A) (A) (A) (A) (A) (A) (A) (A) (A) (A)
                 (A) (A) (A) (A) (A) (A) (A) (A) (A) (A) (A) (A)
                 (A) (A) (A) (A) (A) (A) (A) (A) (A) (A) (A) (A)
                 (A) (A) (A) (A) (A) (A) (A) (A) (A) (A) (A) (A)
                 (A) (A) (A) (A) (A) (A) (A) (A) (A) (A) (A) (A)
                 (A) (A) (A) (A) (A) (A) (A) (A) (A) (A) (A) (A)
                 (A) (A) (A) (A) (A) (A) (A) (A) (A) (A) (A) (A)
                 (A) (A) (A) (A) (A) (A) (A) (A) (A) (A) (A) (A)
                 (A) (A) (A) (A) (A) (A) (A) (A) (A) (A) (A) (A)
                 (A) (A) (A) (A) (A) (A) (A) (A) (A) (A) (A) (A)
                 (A) (A) (A) (A) (A) (A) (A) (A) (A) (A) (A) (A)
                 (A) (A) (A) (A) (A) (A) (A) (A) (A) (A) (A) (A)
                 (A) (A) (A) (A) (A) (A) (A) (A) (A) (A) (A) (A)
                 (A) (A)
 Beta  Orbitals:
       Occupied  (A) (A) (A) (A) (A) (A) (A) (A) (A) (A) (A) (A)
                 (A) (A) (A) (A) (A) (A) (A) (A) (A) (A) (A) (A)
       Virtual   (A) (A) (A) (A) (A) (A) (A) (A) (A) (A) (A) (A)
                 (A) (A) (A) (A) (A) (A) (A) (A) (A) (A) (A) (A)
                 (A) (A) (A) (A) (A) (A) (A) (A) (A) (A) (A) (A)
                 (A) (A) (A) (A) (A) (A) (A) (A) (A) (A) (A) (A)
                 (A) (A) (A) (A) (A) (A) (A) (A) (A) (A) (A) (A)
                 (A) (A) (A) (A) (A) (A) (A) (A) (A) (A) (A) (A)
                 (A) (A) (A) (A) (A) (A) (A) (A) (A) (A) (A) (A)
                 (A) (A) (A) (A) (A) (A) (A) (A) (A) (A) (A) (A)
                 (A) (A) (A) (A) (A) (A) (A) (A) (A) (A) (A) (A)
                 (A) (A) (A) (A) (A) (A) (A) (A) (A) (A) (A) (A)
                 (A) (A) (A) (A) (A) (A) (A) (A) (A) (A) (A) (A)
                 (A) (A) (A) (A) (A) (A) (A) (A) (A) (A) (A) (A)
                 (A) (A) (A) (A) (A) (A) (A) (A) (A) (A) (A) (A)
                 (A) (A) (A) (A) (A) (A) (A) (A) (A) (A) (A) (A)
                 (A) (A) (A) (A) (A) (A) (A) (A) (A) (A) (A) (A)
                 (A) (A) (A) (A) (A) (A) (A) (A) (A) (A) (A) (A)
                 (A) (A) (A) (A) (A) (A) (A) (A) (A) (A) (A) (A)
                 (A) (A) (A) (A) (A) (A) (A) (A) (A) (A) (A) (A)
                 (A) (A) (A) (A) (A) (A) (A) (A) (A) (A) (A) (A)
                 (A) (A) (A) (A) (A) (A) (A) (A) (A) (A) (A) (A)
                 (A) (A) (A) (A) (A) (A) (A) (A) (A) (A) (A) (A)
                 (A) (A) (A) (A) (A) (A) (A) (A) (A) (A) (A) (A)
                 (A) (A) (A) (A) (A) (A) (A) (A) (A) (A) (A) (A)
                 (A) (A) (A)
 Initial guess <Sx>= 0.0000 <Sy>= 0.0000 <Sz>= 0.5000 <S**2>= 0.7540 S= 0.5020
 Harris functional with IExCor= 1009 diagonalized for initial guess.
 ExpMin= 4.38D-02 ExpMax= 8.59D+03 ExpMxC= 1.30D+03 IAcc=2 IRadAn=         0 AccDes= 0.00D+00
 HarFok:  IExCor= 1009 AccDes= 0.00D+00 IRadAn=         0 IDoV= 1
 ScaDFX=  1.000000  1.000000  1.000000  1.000000
 FoFCou: FMM=F IPFlag=           0 FMFlag=      100000 FMFlg1=           0
         NFxFlg=           0 DoJE=T BraDBF=F KetDBF=T FulRan=T
         Omega=  0.000000  0.000000  1.000000  0.000000  0.000000 ICntrl=     500 IOpCl=  0
         NMat0=    1 NMatS0=    1 NMatT0=    0 NMatD0=    1 NMtDS0=    0 NMtDT0=    0
         I1Cent=           4 NGrid=           0.
 Petite list used in FoFCou.
 Requested convergence on RMS density matrix=1.00D-08 within 128 cycles.
 Requested convergence on MAX density matrix=1.00D-06.
 Requested convergence on             energy=1.00D-06.
 No special actions if energy rises.
 SCF Done:  E(UM062X) =  -272.270739492     A.U. after   11 cycles
             Convg  =    0.7934D-08             -V/T =  2.0040
 <Sx>= 0.0000 <Sy>= 0.0000 <Sz>= 0.5000 <S**2>= 0.7542 S= 0.5021
 <L.S>= 0.000000000000E+00
 Annihilation of the first spin contaminant:
 S**2 before annihilation     0.7542,   after     0.7500
 Calling FoFJK, ICntrl=      2127 FMM=F ISym2X=0 I1Cent= 0 IOpClX= 1 NMat=1 NMatS=1 NMatT=0.
 ***** Axes restored to original set *****
 -------------------------------------------------------------------
 Center     Atomic                   Forces (Hartrees/Bohr)
 Number     Number              X              Y              Z
 -------------------------------------------------------------------
      1        6           0.001232142    0.000421494   -0.000129872
      2        6          -0.000813050    0.001637881    0.000366525
      3        6          -0.000217628   -0.000334792   -0.000509592
      4        6          -0.000063507   -0.000472120    0.000425910
      5        6          -0.009538312   -0.001926159    0.001268647
      6        8           0.006033916   -0.001304017   -0.001169709
      7        1          -0.000026371   -0.000042614   -0.000128227
      8        1           0.000013727   -0.000078655    0.000113979
      9        1           0.000066744   -0.000658449   -0.000105329
     10        1           0.000068131    0.000030568   -0.000026614
     11        1          -0.000164356    0.000128581    0.000318382
     12        1          -0.000161126   -0.000469514   -0.000472989
     13        1          -0.000248121    0.000204935   -0.000201843
     14        1          -0.000026827   -0.000587247    0.000348960
     15        1           0.000074510    0.000025467    0.000015890
     16        1           0.002005094    0.001605360    0.000682955
     17        1           0.001765035    0.001819281   -0.000797072
 -------------------------------------------------------------------
 Cartesian Forces:  Max     0.009538312 RMS     0.001758148

 GradGradGradGradGradGradGradGradGradGradGradGradGradGradGradGradGradGrad
 Berny optimization.
 Using GDIIS optimizer.
[...]
         Item               Value     Threshold  Converged?
 Maximum Force            0.000000     0.000002     YES
 RMS     Force            0.000000     0.000001     YES
 Maximum Displacement     0.000018     0.000006     NO 
 RMS     Displacement     0.000003     0.000004     YES
 Predicted change in Energy=-4.521730D-12
 GradGradGradGradGradGradGradGradGradGradGradGradGradGradGradGradGradGrad


 Test job not archived.
 1\1\GINC-COMPUTE-3-046\Freq\UM062X\6-311+G(2df,2p)\C5H11O1(2)\ROOT\18-
 Aug-2017\0\\#N Geom=AllCheck Guess=TCheck SCRF=Check Test GenChk UM062
 X/6-311+G(2df,2p) Freq\\InChI=1S/C5H11O/c1-5(2,3)4-6/h4H2,1-3H3/u6\\0,
 2\C,0.0100431768,-0.0264811895,-0.0054845314\C,1.5025575616,-0.2062372
 177,-0.273685073\C,-0.8043220216,-0.4721913472,-1.2190523269\C,-0.4076
 437535,-0.8276684912,1.226680908\C,-0.255838773,1.4585871297,0.2534878
 837\O,-1.5531474819,1.7930444452,0.5125069774\H,1.8197691297,0.3682950
 222,-1.1465447473\H,2.100016733,0.1171523993,0.5813331829\H,1.73207307
 48,-1.255537529,-0.4634236678\H,-0.5065800226,0.0780091438,-2.11413346
 2\H,-1.8675578549,-0.300105922,-1.0495538566\H,-0.6551548792,-1.535491
 2451,-1.4112892289\H,-1.4622202618,-0.6633442665,1.4495696865\H,-0.254
 2954107,-1.8947140853,1.0602159296\H,0.1771096862,-0.5346687926,2.1011
 839976\H,0.3506372218,1.8269247991,1.100469309\H,0.0744538756,2.074427
 1467,-0.6023809808\\Version=EM64L-G09RevB.01\State=2-A\HF=-272.2709209
 \S2=0.75436\S2-1=0.\S2A=0.750015\RMSD=2.051e-09\RMSF=5.233e-06\ZeroPoi
 nt=0.1506393\Thermal=0.1583742\Dipole=0.7083438,-0.2468133,-0.1507595\
 DipoleDeriv=0.108371,-0.0237538,0.0097673,0.0541227,-0.0622082,-0.0454
 151,0.021083,-0.0327802,0.1816913,-0.0106387,0.0115421,0.0101376,0.010
 2105,0.026043,-0.0039068,0.0099444,-0.0041226,0.0393109,-0.0249685,0.0
 042328,-0.0179506,-0.0010115,0.0293692,-0.0063011,-0.0289439,-0.010803
 2,0.0134636,-0.0070022,0.0017025,0.0265484,-0.0075101,0.0230308,0.0130
 149,0.03544,0.0151714,0.0018338,0.0314146,-0.1073041,-0.0230158,-0.235
 2315,0.5016845,0.1131451,-0.0416025,0.0923888,0.0058323,-0.2333085,0.1
 595125,0.035666,0.0825097,-0.3837703,-0.0464351,0.0244743,-0.0589194,-
 0.1688755,0.0219885,-0.0100795,0.0287498,-0.0459211,0.0069747,0.097846
 4,0.0705027,0.0854543,-0.0686322,-0.0208767,-0.0197195,-0.0571479,-0.0
 445648,0.0488221,-0.0536542,-0.1077219,-0.051105,-0.0676139,0.0369028,
 0.0065598,0.005509,0.0684647,-0.1135861,-0.0370596,0.0145065,-0.027019
 4,0.0587084,0.0414845,-0.0430301,0.0558475,-0.0353209,0.0044922,0.1047
 599,0.0119864,0.0608384,-0.0931599,-0.0965884,0.0075099,-0.0202058,0.0
 267181,0.0704513,-0.0057658,0.0367325,-0.0073323,0.048098,0.0617637,0.
 0450943,-0.000138,0.0144036,-0.1289148,-0.059358,-0.0107971,-0.0145135
 ,0.0453996,-0.0855889,-0.0020505,0.0662861,0.030734,0.066587,0.0022615
 ,0.0169049,0.0122604,0.0409611,0.0665977,0.0379866,0.0074552,0.0210055
 ,-0.1323432,0.0012491,0.0111856,-0.051327,0.0439947,0.0028852,-0.03153
 59,-0.1058397,-0.0502999,0.038613,-0.0559689,-0.0635855,-0.0138404,-0.
 0886809,0.0278612,-0.0188745,-0.1042161,0.0571319,0.0225195,-0.0608019
 ,-0.0655462,-0.0850065,0.0096083,0.0797026,-0.0177926,0.082547,0.05455
 92,-0.0177647,0.0423895,0.0654366,0.0906564,-0.0019395\Polar=67.026976
 4,-0.9930386,63.8580201,-0.6251344,0.1313892,64.182974\PG=C01 [X(C5H11
 O1)]\NImag=0\\0.51660708,0.00730076,0.50463729,-0.00227996,0.00006996,
 0.49638680,-0.18194223,0.01220129,0.01906807,0.47763812,0.01471974,-0.
 08064391,-0.00316236,0.01090584,0.57674495,0.01943414,-0.00275397,-0.0
 7886389,0.01812579,-0.00218666,0.57636157,-0.10748996,-0.01528831,-0.0
 4599162,-0.02752957,-0.01142226,-0.02977031,0.54957397,-0.01771402,-0.
 08607974,-0.02804342,0.00138556,0.00132667,0.00380076,-0.01816276,0.57
 487553,-0.04678020,-0.02468219,-0.14519185,-0.00204838,0.00127786,0.00
 276499,-0.04872644,-0.02427944,0.51252916,-0.08445078,-0.01429066,0.02
 437397,-0.01570631,-0.01991623,0.03111502,0.00509119,0.00946085,-0.015
 77376,0.57386099,-0.01567459,-0.10730320,0.04876884,-0.00135612,0.0019
 0052,-0.00233917,0.00317855,0.00528882,-0.00540463,-0.01756639,0.55430
 273,0.02460888,0.04478974,-0.14700749,0.00795227,0.00527132,-0.0096321
 3,0.00463386,0.01504123,-0.03331018,0.02584324,0.04676218,0.50881495,-
 0.06874078,0.00009162,0.00426660,-0.01462594,0.03359131,0.00669672,0.0
 0393826,-0.01812771,-0.00334516,0.00166546,-0.00930183,-0.00333495,0.4
 4891640,0.00078732,-0.17481588,-0.01935584,0.00925863,-0.00404449,-0.0
 0158970,-0.00392548,-0.01931703,-0.01092401,0.00084174,-0.02967334,0.0
 0590262,-0.00237469,0.49121189,0.00436780,-0.01924345,-0.04602175,0.00
 315990,-0.00553633,-0.00475652,0.00441648,-0.02683130,-0.01163869,-0.0
 0755787,0.02575858,0.00098992,-0.00662683,0.01215958,0.41302599,-0.025
 18558,0.01607046,0.00423818,0.00200563,0.00585953,0.00082479,-0.000599
 45,-0.00221747,-0.00183016,0.00043126,-0.00192294,0.00152822,-0.221375
 04,0.07654300,0.04802988,0.32392885,0.04289910,-0.00525485,-0.00576590
 ,-0.00024203,-0.00901562,-0.00153852,0.00060645,0.00174569,0.00076072,
 -0.00005911,0.00125062,-0.00065828,0.04263533,-0.08035207,-0.01949030,
 -0.07618351,0.07799050,0.00813747,-0.00141467,-0.01498193,-0.00006196,
 -0.00252808,0.00148255,-0.00126491,-0.00202031,0.00114004,0.00164425,0
 .00288303,0.00060465,0.04310209,-0.02498904,-0.00445162,-0.06116208,0.
 02149793,0.02813728,-0.00853487,-0.01773027,0.02545165,-0.06813878,-0.
 03852185,0.05798313,0.00190980,-0.00043436,0.00143663,-0.00678944,0.00
 195246,0.00012622,0.00116404,-0.00146395,0.00048612,-0.00006113,0.0000
 7952,-0.00045587,0.07485985,0.00060324,0.00111631,-0.00391540,-0.03828
 495,-0.12158939,0.11154247,0.00004470,-0.00009338,0.00008475,0.0003229
 1,0.00032471,-0.00055691,0.00071183,0.00042614,-0.00056792,-0.00048245
 ,0.00018557,-0.00012374,0.04196791,0.12852889,0.00118172,0.00222164,-0
 .00611616,0.05851960,0.11196034,-0.21666809,-0.00074614,-0.00039725,0.
 00074213,0.00188060,-0.00097646,0.00070982,-0.00064866,0.00088629,0.00
 046508,0.00016505,-0.00041291,-0.00001244,-0.06609017,-0.12343489,0.23
 377989,-0.01682582,-0.00996702,-0.02578139,-0.12316005,-0.04214483,-0.
 11078027,-0.00652739,0.00173331,0.00288922,0.00157836,0.00012622,-0.00
 175080,0.00110671,-0.00143804,-0.00113682,0.00001983,0.00007671,0.0004
 9459,0.00501973,0.00387409,0.00748773,0.13612003,0.00187100,-0.0003185
 2,0.00400401,-0.04165105,-0.07114017,-0.06197874,0.00060827,0.00005493
 ,0.00017442,-0.00019316,-0.00011640,-0.00035676,0.00067614,0.00048087,
 0.00034986,-0.00035163,0.00000586,0.00027843,0.01054104,0.00542228,0.0
 1367089,0.04563989,0.07275137,0.00287388,0.00276054,0.00360965,-0.1112
 1051,-0.06227810,-0.21209664,0.00073447,0.00014720,0.00071756,0.000455
 20,0.00015114,0.00109661,0.00062140,-0.00040861,0.00046768,-0.00027023
 ,0.00040702,0.00008629,-0.01346153,-0.00866088,-0.01900662,0.12231594,
 0.06884063,0.22829781,-0.00789061,0.03320054,0.00592463,-0.05508203,0.
 04932304,0.00860275,0.00181521,0.00100629,0.00069635,0.00154832,0.0009
 5385,-0.00090626,-0.00518794,-0.00306432,0.00026835,-0.00196372,0.0030
 1491,0.00089285,0.00114145,-0.00890807,-0.00236909,0.00340102,-0.01744
 051,-0.00200504,0.06233272,0.00035574,-0.00444832,-0.00054230,0.050243
 48,-0.29381842,-0.04413364,-0.00058179,0.00054980,0.00020505,-0.000586
 51,0.00081536,0.00013741,0.00127215,0.00135156,0.00010466,-0.00000309,
 -0.00011036,-0.00013760,0.00307800,-0.01531527,-0.00353133,0.00154951,
 -0.00811383,-0.00079694,-0.05585086,0.31776809,0.00115076,-0.00586942,
 -0.00215403,0.00873654,-0.04398438,-0.05405190,-0.00031095,0.00079739,
 0.00019760,-0.00035368,-0.00096234,0.00019891,0.00089854,0.00080793,-0
 .00081622,0.00045424,-0.00062706,0.00067488,-0.00595236,0.02580075,0.0
 0536358,0.00608053,-0.02510494,-0.00409744,-0.01084274,0.04862740,0.05
 435796,0.00375825,0.00985873,-0.01362250,0.00132712,0.00077297,-0.0007
 8848,-0.06915022,-0.03813706,0.06159884,-0.00180923,-0.00112992,-0.002
 78376,0.00017664,0.00040218,0.00011518,0.00008190,0.00026785,0.0002463
 0,-0.00027218,-0.00039014,0.00007164,0.00020892,0.00000644,0.00023593,
 -0.00008146,0.00010852,0.00002450,0.07128443,0.00321418,0.00378657,-0.
 00817054,0.00028204,0.00007941,-0.00007464,-0.03775871,-0.11685208,0.1
 0929984,-0.00064781,-0.00013756,-0.00153593,0.00070265,0.00115611,-0.0
 0040741,-0.00010100,-0.00003622,0.00000771,0.00019128,0.00014857,0.000
 13841,0.00018513,0.00000697,-0.00013709,-0.00006128,-0.00012132,0.0001
 8294,0.04286848,0.12314716,0.00814201,0.01366457,-0.02157392,0.0014259
 4,0.00038229,0.00068326,0.06068831,0.10878207,-0.22104971,-0.00405080,
 -0.00297033,-0.00339723,0.00013389,0.00183695,0.00073883,0.00057483,-0
 .00056808,-0.00021524,-0.00081222,-0.00020528,0.00048385,0.00006006,-0
 .00030747,0.00033022,-0.00009282,-0.00005663,-0.00006300,-0.06470605,-
 0.11933983,0.24311632,-0.01763668,0.00146449,0.00362935,-0.00063557,-0
 .00148532,-0.00394214,-0.29957173,0.04173409,0.04300889,0.00055770,-0.
 00007774,0.00090424,-0.00100267,0.00186339,-0.00204354,0.00106898,0.00
 025931,0.00216918,0.00029348,0.00001043,0.00007155,-0.00116186,0.00015
 757,0.00010009,0.00029080,0.00001708,0.00005128,-0.00687236,0.00120825
 ,0.00084317,0.32684387,-0.01018075,0.00034906,0.00252043,-0.00089000,-
 0.00069408,-0.00177068,0.04244677,-0.05456304,-0.00598671,0.00049105,-
 0.00009604,0.00024412,-0.00040745,0.00065663,-0.00035401,-0.00010898,-
 0.00044544,0.00031034,0.00034469,0.00005303,-0.00020015,-0.00070984,0.
 00058420,-0.00018086,-0.00029284,0.00028518,-0.00001055,-0.01738986,0.
 00242088,0.00188764,-0.04491308,0.05505484,-0.02627120,0.00534383,0.00
 403679,-0.00214780,-0.00190617,-0.00443836,0.04463436,-0.00584331,-0.0
 5468547,-0.00071281,0.00006012,0.00164373,0.00045158,0.00041365,0.0018
 7730,0.00014922,0.00010980,-0.00065983,-0.00008666,-0.00023854,0.00012
 151,-0.00181950,-0.00005269,0.00038853,0.00018067,0.00002692,-0.000139
 75,0.02525183,-0.00562871,-0.00392191,-0.04495745,0.00800102,0.0582400
 6,0.00125695,-0.01839932,-0.00334443,0.00131456,-0.00102467,0.00031232
 ,-0.05220209,0.03878561,0.00706563,0.00018866,-0.00007899,0.00089490,-
 0.00239312,-0.00001469,-0.00320877,0.00037030,0.00032979,0.00075521,-0
 .00009073,-0.00002754,0.00004930,0.00019520,0.00023783,0.00015325,-0.0
 0032888,0.00045658,-0.00016538,0.00053529,-0.00957320,-0.00219354,-0.0
 0267807,0.03134731,0.00462211,0.05362201,0.00147132,-0.01050052,-0.001
 37831,0.00048445,0.00037971,0.00055293,0.03844963,-0.30126648,-0.04292
 327,0.00033089,0.00054560,0.00088131,-0.00136947,0.00105784,-0.0014948
 0,-0.00027862,0.00021682,0.00000468,0.00000510,-0.00008615,-0.00010668
 ,-0.00006728,0.00033160,0.00000630,-0.00070721,0.00027443,-0.00003423,
 0.00255188,-0.01466743,-0.00302807,0.00026867,-0.00364223,-0.00031630,
 -0.04124728,0.32677871,0.00421696,-0.02616776,-0.00614234,0.00132609,0
 .00011469,0.00071764,0.00685614,-0.04187666,-0.05401245,0.00045654,-0.
 00128716,0.00142573,-0.00343649,-0.00028788,-0.00378290,0.00001110,0.0
 0029141,-0.00000314,-0.00010769,0.00013958,-0.00003592,0.00021043,0.00
 020775,-0.00006318,-0.00041947,0.00038976,0.00029266,-0.00478111,0.025
 96558,0.00541011,0.00044587,-0.00506710,-0.00193882,-0.00463623,0.0485
 7074,0.05851612,-0.00934395,-0.00000553,0.00063988,0.00074059,-0.00149
 604,0.00198446,0.00061765,0.00004203,-0.00059420,-0.29760368,0.0400369
 4,0.05031995,-0.00019332,0.00084956,0.00311595,0.00021869,0.00086010,-
 0.00231732,-0.00052423,0.00014949,0.00026087,0.00030224,0.00010306,-0.
 00009491,0.00016925,0.00005460,-0.00014159,0.00019167,-0.00014830,-0.0
 0002741,0.00041163,0.00015652,0.00032687,-0.00007302,-0.00010706,0.000
 06941,0.32291543,-0.01801998,0.00203174,0.00268530,-0.00049864,-0.0021
 4028,0.00293470,0.00005353,0.00014056,-0.00077931,0.04118054,-0.053488
 29,-0.00946957,-0.00028553,0.00080623,0.00024517,-0.00009741,-0.000311
 42,-0.00029549,-0.00113240,0.00045806,0.00059273,0.00035125,-0.0000429
 0,0.00003788,-0.00017974,0.00024780,0.00018807,-0.00003674,-0.00012986
 ,-0.00011843,0.00024964,0.00031629,-0.00002621,0.00018876,-0.00007624,
 0.00000330,-0.04318289,0.05510903,0.02622953,-0.00494862,-0.00593865,0
 .00042163,0.00332852,-0.00436829,0.00110721,-0.00050118,0.00134717,0.0
 4896428,-0.00931190,-0.05772811,0.00012589,-0.00107497,0.00091841,-0.0
 0049017,-0.00030991,0.00005657,0.00186807,0.00011596,-0.00012295,0.000
 14795,0.00017073,0.00020867,-0.00035009,0.00006232,0.00001917,-0.00027
 093,0.00003135,0.00029760,-0.00056436,0.00019835,-0.00047073,-0.000036
 16,-0.00003422,-0.00001945,-0.05675384,0.00753224,0.06211396,-0.000072
 86,-0.00981957,-0.00150245,0.00074109,-0.00088539,-0.00063171,-0.00007
 305,0.00046085,-0.00032719,-0.05249135,0.03850289,0.00597714,-0.000599
 06,-0.00047865,0.00219466,0.00010679,0.00043781,-0.00069269,0.00006803
 ,0.00022053,-0.00013774,-0.00006971,-0.00005793,-0.00005238,-0.0001116
 8,0.00023335,0.00038331,-0.00014206,-0.00010300,-0.00005330,-0.0000737
 5,0.00015518,0.00010530,0.00022860,0.00014577,-0.00024686,-0.00267316,
 0.03118125,0.00495404,0.05249140,0.00267275,-0.01819780,-0.00296908,0.
 00063269,0.00058257,-0.00085560,0.00004039,0.00053235,-0.00126067,0.03
 846333,-0.30079257,-0.04346259,-0.00140016,0.00006040,0.00338580,-0.00
 023316,0.00029083,0.00012681,0.00002131,0.00036984,0.00011065,0.000004
 45,-0.00007523,0.00009662,-0.00076425,0.00035117,0.00032241,-0.0001743
 3,0.00038730,0.00002334,-0.00007293,-0.00007616,0.00004543,0.00026390,
 0.00057509,0.00062919,0.00028700,-0.00351378,-0.00047337,-0.04128615,0
 .32775568,-0.00436009,0.02706933,0.00288471,-0.00120549,0.00007363,0.0
 0108825,0.00010962,0.00090607,0.00170071,0.00613205,-0.04457009,-0.054
 19708,0.00209169,0.00180970,-0.00457932,-0.00013462,-0.00036743,0.0001
 8625,-0.00026823,-0.00017260,0.00002575,0.00011842,-0.00013423,-0.0000
 6786,0.00032326,-0.00045214,-0.00000127,0.00010353,-0.00023175,0.00028
 906,-0.00007641,-0.00007706,-0.00001881,0.00006040,-0.00037447,-0.0004
 9612,0.00012280,-0.00577405,-0.00207216,-0.00810952,0.04519808,0.05866
 965,0.00342299,0.00330339,0.00712681,0.00111616,0.00036429,0.00079090,
 0.00003897,-0.00063618,0.00161897,-0.12606966,-0.03941608,-0.11411330,
 0.00018660,-0.00016055,0.00003906,-0.00017343,0.00049019,-0.00012233,0
 .00014747,0.00013812,-0.00013522,0.00001144,-0.00030907,-0.00001511,-0
 .00005941,0.00012234,0.00000148,0.00066047,-0.00004457,0.00031939,0.00
 028224,-0.00009222,0.00025848,-0.00012337,-0.00015509,-0.00000354,-0.0
 1488573,-0.00968684,-0.02531578,0.00240364,0.00122550,0.00510582,0.132
 92761,0.01006309,0.00379272,0.01361027,0.00067388,0.00026391,-0.000239
 67,-0.00099361,-0.00175436,0.00259825,-0.03948507,-0.06844944,-0.05837
 128,0.00081296,0.00155354,0.00039596,0.00006762,-0.00018155,-0.0000330
 4,0.00019905,-0.00007415,-0.00005820,-0.00013204,0.00013789,-0.0002102
 0,-0.00013883,-0.00008192,-0.00015275,0.00035890,0.00072031,0.00096127
 ,-0.00017249,-0.00013120,-0.00009179,-0.00005475,0.00031180,0.00026501
 ,0.00278056,0.00054413,0.00510572,-0.01806247,-0.00737164,-0.02491269,
 0.04445485,0.07080108,-0.01462090,-0.00820617,-0.02124483,-0.00144988,
 -0.00072600,0.00070972,0.00290413,0.00405287,-0.00362864,-0.11315782,-
 0.05780332,-0.21253314,0.00020541,-0.00164177,0.00033149,-0.00056582,0
 .00041436,0.00018538,0.00007547,0.00015105,0.00047279,0.00097898,0.000
 25648,0.00021091,0.00005615,0.00001692,-0.00012444,-0.00102047,-0.0003
 2565,-0.00153860,-0.00001291,0.00002688,0.00020837,0.00017825,0.000037
 76,0.00034587,0.00360811,0.00262798,0.00596819,-0.00204753,-0.00101399
 ,-0.00375400,0.12457200,0.06141087,0.23381943,0.00320189,-0.00032402,0
 .00940993,0.00101333,0.00068732,0.00012791,0.00077437,0.00244020,0.000
 35384,-0.00069387,-0.00101379,-0.00048129,-0.10032570,-0.03727997,-0.1
 2834147,-0.04253721,-0.00576960,-0.00603948,-0.00004084,-0.00009698,0.
 00019546,-0.00011597,0.00014099,-0.00012703,0.00002140,-0.00020988,-0.
 00013502,-0.00010545,0.00010128,-0.00010679,-0.00070458,-0.00014550,0.
 00013737,0.00024327,0.00022635,0.00032655,0.00052825,0.00010389,-0.000
 07454,0.00003007,-0.00010414,0.00028864,0.00017984,-0.00039115,0.00003
 502,0.12600515,-0.01636092,-0.01048086,-0.02513241,-0.00166415,0.00094
 378,-0.00009795,0.00202843,-0.00628582,0.00021981,0.00003926,0.0017885
 1,-0.00162869,-0.02574185,-0.07161161,-0.06195779,-0.00646807,0.006114
 55,0.00654065,0.00008905,0.00001211,0.00011843,0.00087098,0.00003794,0
 .00030224,-0.00002802,0.00013102,0.00032966,0.00018731,0.00017480,-0.0
 0000305,-0.00001028,0.00008119,0.00017203,-0.00114063,-0.00058814,-0.0
 0176255,-0.00039234,-0.00012591,0.00022567,0.00000634,0.00032094,0.000
 22360,0.00021227,-0.00029530,0.00082161,0.04259890,0.07599289,-0.00409
 663,0.00067169,-0.01110237,-0.00015011,0.00010345,0.00044969,0.0007223
 6,-0.00268922,0.00101879,0.00075912,0.00157941,0.00134596,-0.09185089,
 -0.06763767,-0.16624527,-0.00387111,0.00539104,-0.00211788,-0.00005398
 ,-0.00011913,-0.00024911,0.00045804,-0.00021348,0.00008613,0.00026382,
 0.00007268,0.00020576,0.00016464,0.00005060,0.00035772,0.00035068,0.00
 023281,-0.00007370,-0.00051015,-0.00046845,-0.00028386,-0.00039178,-0.
 00026135,-0.00013578,0.00000694,0.00000098,0.00000904,-0.00015528,-0.0
 0016575,0.00029281,0.11691048,0.06894236,0.19867500,-0.00013305,0.0023
 3343,-0.01160672,0.00092389,0.00067255,-0.00008500,-0.00061596,-0.0016
 1921,0.00075714,0.00069240,0.00278747,0.00058143,-0.04271054,-0.040345
 49,0.08272192,-0.03633668,-0.00970282,0.01467470,-0.00015164,0.0001468
 9,0.00024351,-0.00010268,0.00002112,-0.00025343,-0.00001442,-0.0002592
 2,0.00012055,0.00020826,-0.00031540,-0.00014468,0.00058858,0.00018899,
 -0.00012236,-0.00006557,-0.00000205,-0.00028769,-0.00079833,-0.0001886
 8,0.00003725,0.00023707,0.00042379,-0.00030189,-0.00006583,0.00001948,
 0.00026182,0.01252604,0.00577372,-0.01855613,0.06581844,-0.00800799,-0
 .01767009,0.02677676,-0.00148092,0.00086484,0.00072808,0.00067620,0.00
 169759,0.00161952,0.00161437,-0.00616004,-0.00298992,-0.02148530,-0.11
 894679,0.09348368,-0.01009227,0.00790707,-0.00010761,0.00081344,0.0001
 1283,-0.00058151,0.00004752,-0.00000687,-0.00007691,-0.00006272,0.0002
 3505,-0.00031087,-0.00012521,-0.00008360,-0.00094094,-0.00050109,-0.00
 015312,-0.00006909,-0.00004870,0.00035560,-0.00012790,0.00001231,0.000
 17485,-0.00011670,-0.00065082,-0.00119899,0.00178609,0.00018965,0.0002
 1418,-0.00009988,-0.00096389,0.00378991,-0.00548996,0.04006542,0.12886
 759,-0.00193419,-0.00330504,-0.00057875,-0.00046170,-0.00020401,0.0006
 1816,0.00000343,-0.00104552,0.00135884,-0.00001752,-0.00033791,0.00097
 508,0.05064918,0.10409275,-0.17652242,0.01234866,0.00086613,-0.0101118
 1,-0.00013860,0.00016071,0.00004688,0.00002689,0.00019511,-0.00016832,
 -0.00022331,0.00000745,0.00013751,0.00016093,0.00017512,0.00005263,0.0
 0002253,0.00022552,-0.00016889,0.00000328,0.00010508,0.00007005,-0.000
 12723,-0.00012295,-0.00007361,0.00017998,0.00009600,0.00033320,0.00002
 764,-0.00011197,0.00027869,0.00752042,0.01268638,-0.02223292,-0.068040
 41,-0.11348285,0.20598567\\0.00000015,-0.00000006,0.00000015,0.0000012
 6,0.00000839,0.00000097,0.00000363,-0.00000328,-0.00000102,0.00000352,
 -0.00000330,-0.00000106,-0.00000820,-0.00000142,0.00000063,-0.00001003
 ,-0.00000892,0.00000057,-0.00000108,0.00001092,0.00000176,-0.00000105,
 0.00001089,0.00000177,0.00000715,0.00000981,0.00000026,0.00000126,-0.0
 0000087,-0.00000035,0.00000238,-0.00000922,-0.00000171,0.00000941,-0.0
 0000231,-0.00000189,0.00000248,-0.00000921,-0.00000175,0.00000945,-0.0
 0000233,-0.00000185,0.00000127,-0.00000088,-0.00000032,-0.00001093,0.0
 0000092,0.00000196,-0.00001066,0.00000087,0.00000190\\\@


 ERWIN WITH HIS PSI CAN DO
 CALCULATIONS QUITE A FEW.
 BUT ONE THING HAS NOT BEEN SEEN
 JUST WHAT DOES PSI REALLY MEAN.
 -- WALTER HUCKEL, TRANS. BY FELIX BLOCH
 Job cpu time:  0 days  4 hours 53 minutes  9.4 seconds.
 File lengths (MBytes):  RWF=   2592 Int=      0 D2E=      0 Chk=     32 Scr=     32
 Normal termination of Gaussian 09 at Fri Aug 18 10:48:34 2017.
