 Entering Gaussian System, Link 0=/shared/apps/gaussian/G09_LINUX_LINDA/g09/g09
 Input=/gss_gpfs_scratch/harms.n/QMscratch/AESCIILLFQQVSC-UHFFFAOYSA-u2.gjf
 Output=/gss_gpfs_scratch/harms.n/QMscratch/AESCIILLFQQVSC-UHFFFAOYSA-u2.log
 Initial command:
 /shared/apps/gaussian/G09_LINUX_LINDA/g09/l1.exe /gss_gpfs_scratch/harms.n/comparerTST/Gau-12877.inp -scrdir=/gss_gpfs_scratch/harms.n/comparerTST/
 Entering Link 1 = /shared/apps/gaussian/G09_LINUX_LINDA/g09/l1.exe PID=     12878.
  
 Copyright (c) 1988,1990,1992,1993,1995,1998,2003,2009,2010,
            Gaussian, Inc.  All Rights Reserved.
  
 This is part of the Gaussian(R) 09 program.  It is based on
 the Gaussian(R) 03 system (copyright 2003, Gaussian, Inc.),
 the Gaussian(R) 98 system (copyright 1998, Gaussian, Inc.),
 the Gaussian(R) 94 system (copyright 1995, Gaussian, Inc.),
 the Gaussian 92(TM) system (copyright 1992, Gaussian, Inc.),
 the Gaussian 90(TM) system (copyright 1990, Gaussian, Inc.),
 the Gaussian 88(TM) system (copyright 1988, Gaussian, Inc.),
 the Gaussian 86(TM) system (copyright 1986, Carnegie Mellon
 University), and the Gaussian 82(TM) system (copyright 1983,
 Carnegie Mellon University). Gaussian is a federally registered
 trademark of Gaussian, Inc.
  
 This software contains proprietary and confidential information,
 including trade secrets, belonging to Gaussian, Inc.
  
 This software is provided under written license and may be
 used, copied, transmitted, or stored only in accord with that
 written license.
  
 The following legend is applicable only to US Government
 contracts under FAR:
  
                    RESTRICTED RIGHTS LEGEND
  
 Use, reproduction and disclosure by the US Government is
 subject to restrictions as set forth in subparagraphs (a)
 and (c) of the Commercial Computer Software - Restricted
 Rights clause in FAR 52.227-19.
  
 Gaussian, Inc.
 340 Quinnipiac St., Bldg. 40, Wallingford CT 06492
  
  
 ---------------------------------------------------------------
 Warning -- This program may not be used in any manner that
 competes with the business of Gaussian, Inc. or will provide
 assistance to any competitor of Gaussian, Inc.  The licensee
 of this program is prohibited from giving any competitor of
 Gaussian, Inc. access to this program.  By using this program,
 the user acknowledges that Gaussian, Inc. is engaged in the
 business of creating and licensing software in the field of
 computational chemistry and represents and warrants to the
 licensee that it is not a competitor of Gaussian, Inc. and that
 it will not use this program in any manner prohibited above.
 ---------------------------------------------------------------
  

 Cite this work as:
 Gaussian 09, Revision B.01,
 M. J. Frisch, G. W. Trucks, H. B. Schlegel, G. E. Scuseria, 
 M. A. Robb, J. R. Cheeseman, G. Scalmani, V. Barone, B. Mennucci, 
 G. A. Petersson, H. Nakatsuji, M. Caricato, X. Li, H. P. Hratchian, 
 A. F. Izmaylov, J. Bloino, G. Zheng, J. L. Sonnenberg, M. Hada, 
 M. Ehara, K. Toyota, R. Fukuda, J. Hasegawa, M. Ishida, T. Nakajima, 
 Y. Honda, O. Kitao, H. Nakai, T. Vreven, J. A. Montgomery, Jr., 
 J. E. Peralta, F. Ogliaro, M. Bearpark, J. J. Heyd, E. Brothers, 
 K. N. Kudin, V. N. Staroverov, T. Keith, R. Kobayashi, J. Normand, 
 K. Raghavachari, A. Rendell, J. C. Burant, S. S. Iyengar, J. Tomasi, 
 M. Cossi, N. Rega, J. M. Millam, M. Klene, J. E. Knox, J. B. Cross, 
 V. Bakken, C. Adamo, J. Jaramillo, R. Gomperts, R. E. Stratmann, 
 O. Yazyev, A. J. Austin, R. Cammi, C. Pomelli, J. W. Ochterski, 
 R. L. Martin, K. Morokuma, V. G. Zakrzewski, G. A. Voth, 
 P. Salvador, J. J. Dannenberg, S. Dapprich, A. D. Daniels, 
 O. Farkas, J. B. Foresman, J. V. Ortiz, J. Cioslowski, 
 and D. J. Fox, Gaussian, Inc., Wallingford CT, 2010.
 
 ******************************************
 Gaussian 09:  EM64L-G09RevB.01 12-Aug-2010
                10-Oct-2017 
 ******************************************
 %nprocshared=20
 Will use up to   20 processors via shared memory.
 %mem=5GB
 --------------------------------------------------------------
 # m062x/6-311+g(2df,2p) opt=(verytight,gdiis) freq IOP(2/16=3)
 --------------------------------------------------------------

 Warning!  Use of Opt=GDIIS is deprecated since it is seldom a good choice.

 1/7=1,14=-1,18=20,19=11,26=3,38=1/1,3;
 2/9=110,12=2,16=3,17=6,18=5,40=1/2;
 3/5=4,6=6,7=214,11=2,16=1,25=1,30=1,71=1,74=-55/1,2,3;
 4//1;
 5/5=2,38=5/2;
 6/7=2,8=2,9=2,10=2,28=1/1;
 7//1,2,3,16;
 1/7=1,14=-1,18=20,19=11/3(2);
 2/9=110,16=3/2;
 99//99;
 2/9=110,16=3/2;
 3/5=4,6=6,7=214,11=2,16=1,25=1,30=1,71=1,74=-55/1,2,3;
 4/5=5,16=3/1;
 5/5=2,38=5/2;
 7//1,2,3,16;
 1/7=1,14=-1,18=20,19=11/3(-5);
 2/9=110,16=3/2;
 6/7=2,8=2,9=2,10=2,19=2,28=1/1;
 99/9=1/99;
 --------------------------------------------
 InChI=1S/C8H7O/c9-7-6-8-4-2-1-3-5-8/h1-7H/u2
 --------------------------------------------
 Symbolic Z-matrix:
 Charge =  0 Multiplicity = 2
 C                     0.3995    0.2416    0.3623 
 C                    -0.2281   -0.8033    1.055 
 C                    -0.3187    0.9625   -0.6057 
 C                     1.8368    0.5562    0.6394 
 C                    -1.5653   -1.1174    0.7908 
 C                    -2.2788   -0.3929   -0.1689 
 C                    -1.6556    0.6457   -0.8673 
 C                     2.7221   -0.0746   -0.3847 
 H                     2.0063    1.6537    0.67 
 H                     0.3174   -1.3729    1.7975 
 H                    -2.0478   -1.9232    1.3287 
 H                    -3.3132   -0.6375   -0.3727 
 H                    -2.2078    1.2038   -1.6123 
 H                     0.1567    1.7656   -1.1552 
 O                     3.5101   -0.9449   -0.0545 
 H                     2.6664    0.2375   -1.4227 
 

 GradGradGradGradGradGradGradGradGradGradGradGradGradGradGradGradGradGrad
 Berny optimization.
 Initialization pass.
                           ----------------------------
                           !    Initial Parameters    !
                           ! (Angstroms and Degrees)  !
 --------------------------                            --------------------------
 ! Name  Definition              Value          Derivative Info.                !
 --------------------------------------------------------------------------------
 ! R1    R(1,2)                  1.402          estimate D2E/DX2                !
 ! R2    R(1,3)                  1.4045         estimate D2E/DX2                !
 ! R3    R(1,4)                  1.4972         estimate D2E/DX2                !
 ! R4    R(2,5)                  1.3988         estimate D2E/DX2                !
 ! R5    R(2,10)                 1.0832         estimate D2E/DX2                !
 ! R6    R(3,7)                  1.3986         estimate D2E/DX2                !
 ! R7    R(3,14)                 1.083          estimate D2E/DX2                !
 ! R8    R(4,8)                  1.4935         estimate D2E/DX2                !
 ! R9    R(4,9)                  1.1109         estimate D2E/DX2                !
 ! R10   R(5,6)                  1.3982         estimate D2E/DX2                !
 ! R11   R(5,11)                 1.0823         estimate D2E/DX2                !
 ! R12   R(6,7)                  1.3982         estimate D2E/DX2                !
 ! R13   R(6,12)                 1.0823         estimate D2E/DX2                !
 ! R14   R(7,13)                 1.0823         estimate D2E/DX2                !
 ! R15   R(8,15)                 1.2196         estimate D2E/DX2                !
 ! R16   R(8,16)                 1.0853         estimate D2E/DX2                !
 ! A1    A(2,1,3)              119.6159         estimate D2E/DX2                !
 ! A2    A(2,1,4)              119.6638         estimate D2E/DX2                !
 ! A3    A(3,1,4)              120.705          estimate D2E/DX2                !
 ! A4    A(1,2,5)              120.1316         estimate D2E/DX2                !
 ! A5    A(1,2,10)             120.3422         estimate D2E/DX2                !
 ! A6    A(5,2,10)             119.5263         estimate D2E/DX2                !
 ! A7    A(1,3,7)              120.0964         estimate D2E/DX2                !
 ! A8    A(1,3,14)             120.3882         estimate D2E/DX2                !
 ! A9    A(7,3,14)             119.5154         estimate D2E/DX2                !
 ! A10   A(1,4,8)              110.6956         estimate D2E/DX2                !
 ! A11   A(1,4,9)              111.0483         estimate D2E/DX2                !
 ! A12   A(8,4,9)              110.2251         estimate D2E/DX2                !
 ! A13   A(2,5,6)              120.074          estimate D2E/DX2                !
 ! A14   A(2,5,11)             119.9657         estimate D2E/DX2                !
 ! A15   A(6,5,11)             119.9602         estimate D2E/DX2                !
 ! A16   A(5,6,7)              120.0206         estimate D2E/DX2                !
 ! A17   A(5,6,12)             119.9905         estimate D2E/DX2                !
 ! A18   A(7,6,12)             119.9888         estimate D2E/DX2                !
 ! A19   A(3,7,6)              120.0593         estimate D2E/DX2                !
 ! A20   A(3,7,13)             119.976          estimate D2E/DX2                !
 ! A21   A(6,7,13)             119.9647         estimate D2E/DX2                !
 ! A22   A(4,8,15)             119.9178         estimate D2E/DX2                !
 ! A23   A(4,8,16)             120.2606         estimate D2E/DX2                !
 ! A24   A(15,8,16)            119.8216         estimate D2E/DX2                !
 ! D1    D(3,1,2,5)             -0.5503         estimate D2E/DX2                !
 ! D2    D(3,1,2,10)           179.4406         estimate D2E/DX2                !
 ! D3    D(4,1,2,5)           -179.1331         estimate D2E/DX2                !
 ! D4    D(4,1,2,10)             0.8578         estimate D2E/DX2                !
 ! D5    D(2,1,3,7)              0.5499         estimate D2E/DX2                !
 ! D6    D(2,1,3,14)          -179.391          estimate D2E/DX2                !
 ! D7    D(4,1,3,7)            179.1176         estimate D2E/DX2                !
 ! D8    D(4,1,3,14)            -0.8232         estimate D2E/DX2                !
 ! D9    D(2,1,4,8)             98.0953         estimate D2E/DX2                !
 ! D10   D(2,1,4,9)           -139.1285         estimate D2E/DX2                !
 ! D11   D(3,1,4,8)            -80.4718         estimate D2E/DX2                !
 ! D12   D(3,1,4,9)             42.3044         estimate D2E/DX2                !
 ! D13   D(1,2,5,6)              0.2322         estimate D2E/DX2                !
 ! D14   D(1,2,5,11)          -179.8662         estimate D2E/DX2                !
 ! D15   D(10,2,5,6)          -179.7588         estimate D2E/DX2                !
 ! D16   D(10,2,5,11)            0.1429         estimate D2E/DX2                !
 ! D17   D(1,3,7,6)             -0.2312         estimate D2E/DX2                !
 ! D18   D(1,3,7,13)           179.8795         estimate D2E/DX2                !
 ! D19   D(14,3,7,6)           179.7102         estimate D2E/DX2                !
 ! D20   D(14,3,7,13)           -0.1792         estimate D2E/DX2                !
 ! D21   D(1,4,8,15)          -115.1177         estimate D2E/DX2                !
 ! D22   D(1,4,8,16)            64.807          estimate D2E/DX2                !
 ! D23   D(9,4,8,15)           121.629          estimate D2E/DX2                !
 ! D24   D(9,4,8,16)           -58.4463         estimate D2E/DX2                !
 ! D25   D(2,5,6,7)              0.0898         estimate D2E/DX2                !
 ! D26   D(2,5,6,12)           179.9604         estimate D2E/DX2                !
 ! D27   D(11,5,6,7)          -179.8118         estimate D2E/DX2                !
 ! D28   D(11,5,6,12)            0.0588         estimate D2E/DX2                !
 ! D29   D(5,6,7,3)             -0.09           estimate D2E/DX2                !
 ! D30   D(5,6,7,13)           179.7994         estimate D2E/DX2                !
 ! D31   D(12,6,7,3)          -179.9606         estimate D2E/DX2                !
 ! D32   D(12,6,7,13)           -0.0712         estimate D2E/DX2                !
 --------------------------------------------------------------------------------
 Trust Radius=3.00D-01 FncErr=1.00D-07 GrdErr=1.00D-06
 Number of steps in this run=     82 maximum allowed number of steps=    100.
 GradGradGradGradGradGradGradGradGradGradGradGradGradGradGradGradGradGrad

                          Input orientation:                          
 ---------------------------------------------------------------------
 Center     Atomic      Atomic             Coordinates (Angstroms)
 Number     Number       Type             X           Y           Z
 ---------------------------------------------------------------------
      1          6           0        0.399500    0.241600    0.362300
      2          6           0       -0.228100   -0.803300    1.055000
      3          6           0       -0.318700    0.962500   -0.605700
      4          6           0        1.836800    0.556200    0.639400
      5          6           0       -1.565300   -1.117400    0.790800
      6          6           0       -2.278800   -0.392900   -0.168900
      7          6           0       -1.655600    0.645700   -0.867300
      8          6           0        2.722100   -0.074600   -0.384700
      9          1           0        2.006300    1.653700    0.670000
     10          1           0        0.317400   -1.372900    1.797500
     11          1           0       -2.047800   -1.923200    1.328700
     12          1           0       -3.313200   -0.637500   -0.372700
     13          1           0       -2.207800    1.203800   -1.612300
     14          1           0        0.156700    1.765600   -1.155200
     15          8           0        3.510100   -0.944900   -0.054500
     16          1           0        2.666400    0.237500   -1.422700
 ---------------------------------------------------------------------
                    Distance matrix (angstroms):
                    1          2          3          4          5
     1  C    0.000000
     2  C    1.401974   0.000000
     3  C    1.404469   2.425733   0.000000
     4  C    1.497194   2.506945   2.522208   0.000000
     5  C    2.427124   1.398772   2.798251   3.794489   0.000000
     6  C    2.803222   2.423165   2.422787   4.300268   1.398216
     7  C    2.428713   2.798677   1.398606   3.804604   2.421977
     8  C    2.460175   3.362651   3.220385   1.493468   4.566293
     9  H    2.161137   3.343294   2.740583   1.110933   4.522158
    10  H    2.161747   1.083199   3.410878   2.714995   2.150182
    11  H    3.407281   2.154158   3.880587   4.659686   1.082338
    12  H    3.885509   3.403477   3.403134   5.382543   2.153878
    13  H    3.409236   3.880999   2.154105   4.674219   3.402303
    14  H    2.164332   3.410616   1.083017   2.739703   3.881223
    15  O    3.355196   3.901946   4.312969   2.352601   5.148201
    16  H    2.885321   3.949733   3.178669   2.245454   4.964133
                    6          7          8          9         10
     6  C    0.000000
     7  C    1.398153   0.000000
     8  C    5.015664   4.462734   0.000000
     9  H    4.822282   4.097422   2.147506   0.000000
    10  H    3.401086   3.881834   3.497165   3.644715   0.000000
    11  H    2.153598   3.402276   5.394906   5.446451   2.473211
    12  H    1.082288   2.153803   6.061505   5.885057   4.293232
    13  H    2.153577   1.082324   5.238819   4.813517   4.964147
    14  H    3.400525   2.149766   3.249813   2.600942   4.312128
    15  O    5.816284   5.465813   1.219589   3.088533   3.715699
    16  H    5.140469   4.376617   1.085335   2.611656   4.298939
                   11         12         13         14         15
    11  H    0.000000
    12  H    2.479722   0.000000
    13  H    4.295720   2.479698   0.000000
    14  H    4.963550   4.292715   2.472938   0.000000
    15  O    5.810384   6.837629   6.303811   4.450128   0.000000
    16  H    5.870478   6.133819   4.972676   2.950464   1.995463
                   16
    16  H    0.000000
 Stoichiometry    C8H7O(2)
 Framework group  C1[X(C8H7O)]
 Deg. of freedom    42
 Full point group                 C1      NOp   1
 Largest Abelian subgroup         C1      NOp   1
 Largest concise Abelian subgroup C1      NOp   1
                         Standard orientation:                         
 ---------------------------------------------------------------------
 Center     Atomic      Atomic             Coordinates (Angstroms)
 Number     Number       Type             X           Y           Z
 ---------------------------------------------------------------------
      1          6           0       -0.093736   -0.082297    0.452450
      2          6           0        0.508835    1.178640    0.340741
      3          6           0        0.647157   -1.235253    0.145365
      4          6           0       -1.528855   -0.183626    0.866883
      5          6           0        1.843733    1.285643   -0.063192
      6          6           0        2.579889    0.134961   -0.361540
      7          6           0        1.981681   -1.124524   -0.258222
      8          6           0       -2.412381   -0.347594   -0.325988
      9          1           0       -1.680907   -1.025160    1.576019
     10          1           0       -0.054341    2.076112    0.565899
     11          1           0        2.306889    2.260329   -0.146440
     12          1           0        3.612476    0.219362   -0.674572
     13          1           0        2.551399   -2.014441   -0.492519
     14          1           0        0.191189   -2.214928    0.217857
     15          8           0       -3.218122    0.522637   -0.610378
     16          1           0       -2.339668   -1.238067   -0.942205
 ---------------------------------------------------------------------
 Rotational constants (GHZ):      4.0488383      1.0103835      0.8857332
 Standard basis: 6-311+G(2df,2p) (5D, 7F)
 There are   369 symmetry adapted basis functions of A   symmetry.
 Integral buffers will be    131072 words long.
 Raffenetti 2 integral format.
 Two-electron integral symmetry is turned on.
   369 basis functions,   545 primitive gaussians,   414 cartesian basis functions
    32 alpha electrons       31 beta electrons
       nuclear repulsion energy       381.9494054209 Hartrees.
 NAtoms=   16 NActive=   16 NUniq=   16 SFac= 1.00D+00 NAtFMM=   50 NAOKFM=F Big=F
 One-electron integrals computed using PRISM.
 NBasis=   369 RedAO= T  NBF=   369
 NBsUse=   369 1.00D-06 NBFU=   369
 Harris functional with IExCor= 1009 diagonalized for initial guess.
 ExpMin= 4.38D-02 ExpMax= 8.59D+03 ExpMxC= 1.30D+03 IAcc=2 IRadAn=         0 AccDes= 0.00D+00
 HarFok:  IExCor= 1009 AccDes= 0.00D+00 IRadAn=         0 IDoV= 1
 ScaDFX=  1.000000  1.000000  1.000000  1.000000
 FoFCou: FMM=F IPFlag=           0 FMFlag=      100000 FMFlg1=           0
         NFxFlg=           0 DoJE=T BraDBF=F KetDBF=T FulRan=T
         Omega=  0.000000  0.000000  1.000000  0.000000  0.000000 ICntrl=     500 IOpCl=  0
         NMat0=    1 NMatS0=    1 NMatT0=    0 NMatD0=    1 NMtDS0=    0 NMtDT0=    0
         I1Cent=           4 NGrid=           0.
 Petite list used in FoFCou.
 Initial guess orbital symmetries:
 Alpha Orbitals:
       Occupied  (A) (A) (A) (A) (A) (A) (A) (A) (A) (A) (A) (A)
                 (A) (A) (A) (A) (A) (A) (A) (A) (A) (A) (A) (A)
                 (A) (A) (A) (A) (A) (A) (A) (A)
       Virtual   (A) (A) (A) (A) (A) (A) (A) (A) (A) (A) (A) (A)
                 (A) (A) (A) (A) (A) (A) (A) (A) (A) (A) (A) (A)
                 (A) (A) (A) (A) (A) (A) (A) (A) (A) (A) (A) (A)
                 (A) (A) (A) (A) (A) (A) (A) (A) (A) (A) (A) (A)
                 (A) (A) (A) (A) (A) (A) (A) (A) (A) (A) (A) (A)
                 (A) (A) (A) (A) (A) (A) (A) (A) (A) (A) (A) (A)
                 (A) (A) (A) (A) (A) (A) (A) (A) (A) (A) (A) (A)
                 (A) (A) (A) (A) (A) (A) (A) (A) (A) (A) (A) (A)
                 (A) (A) (A) (A) (A) (A) (A) (A) (A) (A) (A) (A)
                 (A) (A) (A) (A) (A) (A) (A) (A) (A) (A) (A) (A)
                 (A) (A) (A) (A) (A) (A) (A) (A) (A) (A) (A) (A)
                 (A) (A) (A) (A) (A) (A) (A) (A) (A) (A) (A) (A)
                 (A) (A) (A) (A) (A) (A) (A) (A) (A) (A) (A) (A)
                 (A) (A) (A) (A) (A) (A) (A) (A) (A) (A) (A) (A)
                 (A) (A) (A) (A) (A) (A) (A) (A) (A) (A) (A) (A)
                 (A) (A) (A) (A) (A) (A) (A) (A) (A) (A) (A) (A)
                 (A) (A) (A) (A) (A) (A) (A) (A) (A) (A) (A) (A)
                 (A) (A) (A) (A) (A) (A) (A) (A) (A) (A) (A) (A)
                 (A) (A) (A) (A) (A) (A) (A) (A) (A) (A) (A) (A)
                 (A) (A) (A) (A) (A) (A) (A) (A) (A) (A) (A) (A)
                 (A) (A) (A) (A) (A) (A) (A) (A) (A) (A) (A) (A)
                 (A) (A) (A) (A) (A) (A) (A) (A) (A) (A) (A) (A)
                 (A) (A) (A) (A) (A) (A) (A) (A) (A) (A) (A) (A)
                 (A) (A) (A) (A) (A) (A) (A) (A) (A) (A) (A) (A)
                 (A) (A) (A) (A) (A) (A) (A) (A) (A) (A) (A) (A)
                 (A) (A) (A) (A) (A) (A) (A) (A) (A) (A) (A) (A)
                 (A) (A) (A) (A) (A) (A) (A) (A) (A) (A) (A) (A)
                 (A) (A) (A) (A) (A) (A) (A) (A) (A) (A) (A) (A)
                 (A)
 Beta  Orbitals:
       Occupied  (A) (A) (A) (A) (A) (A) (A) (A) (A) (A) (A) (A)
                 (A) (A) (A) (A) (A) (A) (A) (A) (A) (A) (A) (A)
                 (A) (A) (A) (A) (A) (A) (A)
       Virtual   (A) (A) (A) (A) (A) (A) (A) (A) (A) (A) (A) (A)
                 (A) (A) (A) (A) (A) (A) (A) (A) (A) (A) (A) (A)
                 (A) (A) (A) (A) (A) (A) (A) (A) (A) (A) (A) (A)
                 (A) (A) (A) (A) (A) (A) (A) (A) (A) (A) (A) (A)
                 (A) (A) (A) (A) (A) (A) (A) (A) (A) (A) (A) (A)
                 (A) (A) (A) (A) (A) (A) (A) (A) (A) (A) (A) (A)
                 (A) (A) (A) (A) (A) (A) (A) (A) (A) (A) (A) (A)
                 (A) (A) (A) (A) (A) (A) (A) (A) (A) (A) (A) (A)
                 (A) (A) (A) (A) (A) (A) (A) (A) (A) (A) (A) (A)
                 (A) (A) (A) (A) (A) (A) (A) (A) (A) (A) (A) (A)
                 (A) (A) (A) (A) (A) (A) (A) (A) (A) (A) (A) (A)
                 (A) (A) (A) (A) (A) (A) (A) (A) (A) (A) (A) (A)
                 (A) (A) (A) (A) (A) (A) (A) (A) (A) (A) (A) (A)
                 (A) (A) (A) (A) (A) (A) (A) (A) (A) (A) (A) (A)
                 (A) (A) (A) (A) (A) (A) (A) (A) (A) (A) (A) (A)
                 (A) (A) (A) (A) (A) (A) (A) (A) (A) (A) (A) (A)
                 (A) (A) (A) (A) (A) (A) (A) (A) (A) (A) (A) (A)
                 (A) (A) (A) (A) (A) (A) (A) (A) (A) (A) (A) (A)
                 (A) (A) (A) (A) (A) (A) (A) (A) (A) (A) (A) (A)
                 (A) (A) (A) (A) (A) (A) (A) (A) (A) (A) (A) (A)
                 (A) (A) (A) (A) (A) (A) (A) (A) (A) (A) (A) (A)
                 (A) (A) (A) (A) (A) (A) (A) (A) (A) (A) (A) (A)
                 (A) (A) (A) (A) (A) (A) (A) (A) (A) (A) (A) (A)
                 (A) (A) (A) (A) (A) (A) (A) (A) (A) (A) (A) (A)
                 (A) (A) (A) (A) (A) (A) (A) (A) (A) (A) (A) (A)
                 (A) (A) (A) (A) (A) (A) (A) (A) (A) (A) (A) (A)
                 (A) (A) (A) (A) (A) (A) (A) (A) (A) (A) (A) (A)
                 (A) (A) (A) (A) (A) (A) (A) (A) (A) (A) (A) (A)
                 (A) (A)
 The electronic state of the initial guess is 2-A.
 Initial guess <Sx>= 0.0000 <Sy>= 0.0000 <Sz>= 0.5000 <S**2>= 0.7500 S= 0.5000
 Requested convergence on RMS density matrix=1.00D-08 within 128 cycles.
 Requested convergence on MAX density matrix=1.00D-06.
 Requested convergence on             energy=1.00D-06.
 No special actions if energy rises.
 SCF Done:  E(UM062X) =  -384.154670469     A.U. after   18 cycles
             Convg  =    0.5247D-08             -V/T =  2.0044
 <Sx>= 0.0000 <Sy>= 0.0000 <Sz>= 0.5000 <S**2>= 0.7545 S= 0.5022
 <L.S>= 0.000000000000E+00
 Annihilation of the first spin contaminant:
 S**2 before annihilation     0.7545,   after     0.7500

 **********************************************************************

            Population analysis using the SCF density.

 **********************************************************************

 Orbital symmetries:
 Alpha Orbitals:
       Occupied  (A) (A) (A) (A) (A) (A) (A) (A) (A) (A) (A) (A)
                 (A) (A) (A) (A) (A) (A) (A) (A) (A) (A) (A) (A)
                 (A) (A) (A) (A) (A) (A) (A) (A)
       Virtual   (A) (A) (A) (A) (A) (A) (A) (A) (A) (A) (A) (A)
                 (A) (A) (A) (A) (A) (A) (A) (A) (A) (A) (A) (A)
                 (A) (A) (A) (A) (A) (A) (A) (A) (A) (A) (A) (A)
                 (A) (A) (A) (A) (A) (A) (A) (A) (A) (A) (A) (A)
                 (A) (A) (A) (A) (A) (A) (A) (A) (A) (A) (A) (A)
                 (A) (A) (A) (A) (A) (A) (A) (A) (A) (A) (A) (A)
                 (A) (A) (A) (A) (A) (A) (A) (A) (A) (A) (A) (A)
                 (A) (A) (A) (A) (A) (A) (A) (A) (A) (A) (A) (A)
                 (A) (A) (A) (A) (A) (A) (A) (A) (A) (A) (A) (A)
                 (A) (A) (A) (A) (A) (A) (A) (A) (A) (A) (A) (A)
                 (A) (A) (A) (A) (A) (A) (A) (A) (A) (A) (A) (A)
                 (A) (A) (A) (A) (A) (A) (A) (A) (A) (A) (A) (A)
                 (A) (A) (A) (A) (A) (A) (A) (A) (A) (A) (A) (A)
                 (A) (A) (A) (A) (A) (A) (A) (A) (A) (A) (A) (A)
                 (A) (A) (A) (A) (A) (A) (A) (A) (A) (A) (A) (A)
                 (A) (A) (A) (A) (A) (A) (A) (A) (A) (A) (A) (A)
                 (A) (A) (A) (A) (A) (A) (A) (A) (A) (A) (A) (A)
                 (A) (A) (A) (A) (A) (A) (A) (A) (A) (A) (A) (A)
                 (A) (A) (A) (A) (A) (A) (A) (A) (A) (A) (A) (A)
                 (A) (A) (A) (A) (A) (A) (A) (A) (A) (A) (A) (A)
                 (A) (A) (A) (A) (A) (A) (A) (A) (A) (A) (A) (A)
                 (A) (A) (A) (A) (A) (A) (A) (A) (A) (A) (A) (A)
                 (A) (A) (A) (A) (A) (A) (A) (A) (A) (A) (A) (A)
                 (A) (A) (A) (A) (A) (A) (A) (A) (A) (A) (A) (A)
                 (A) (A) (A) (A) (A) (A) (A) (A) (A) (A) (A) (A)
                 (A) (A) (A) (A) (A) (A) (A) (A) (A) (A) (A) (A)
                 (A) (A) (A) (A) (A) (A) (A) (A) (A) (A) (A) (A)
                 (A) (A) (A) (A) (A) (A) (A) (A) (A) (A) (A) (A)
                 (A)
 Beta  Orbitals:
       Occupied  (A) (A) (A) (A) (A) (A) (A) (A) (A) (A) (A) (A)
                 (A) (A) (A) (A) (A) (A) (A) (A) (A) (A) (A) (A)
                 (A) (A) (A) (A) (A) (A) (A)
       Virtual   (A) (A) (A) (A) (A) (A) (A) (A) (A) (A) (A) (A)
                 (A) (A) (A) (A) (A) (A) (A) (A) (A) (A) (A) (A)
                 (A) (A) (A) (A) (A) (A) (A) (A) (A) (A) (A) (A)
                 (A) (A) (A) (A) (A) (A) (A) (A) (A) (A) (A) (A)
                 (A) (A) (A) (A) (A) (A) (A) (A) (A) (A) (A) (A)
                 (A) (A) (A) (A) (A) (A) (A) (A) (A) (A) (A) (A)
                 (A) (A) (A) (A) (A) (A) (A) (A) (A) (A) (A) (A)
                 (A) (A) (A) (A) (A) (A) (A) (A) (A) (A) (A) (A)
                 (A) (A) (A) (A) (A) (A) (A) (A) (A) (A) (A) (A)
                 (A) (A) (A) (A) (A) (A) (A) (A) (A) (A) (A) (A)
                 (A) (A) (A) (A) (A) (A) (A) (A) (A) (A) (A) (A)
                 (A) (A) (A) (A) (A) (A) (A) (A) (A) (A) (A) (A)
                 (A) (A) (A) (A) (A) (A) (A) (A) (A) (A) (A) (A)
                 (A) (A) (A) (A) (A) (A) (A) (A) (A) (A) (A) (A)
                 (A) (A) (A) (A) (A) (A) (A) (A) (A) (A) (A) (A)
                 (A) (A) (A) (A) (A) (A) (A) (A) (A) (A) (A) (A)
                 (A) (A) (A) (A) (A) (A) (A) (A) (A) (A) (A) (A)
                 (A) (A) (A) (A) (A) (A) (A) (A) (A) (A) (A) (A)
                 (A) (A) (A) (A) (A) (A) (A) (A) (A) (A) (A) (A)
                 (A) (A) (A) (A) (A) (A) (A) (A) (A) (A) (A) (A)
                 (A) (A) (A) (A) (A) (A) (A) (A) (A) (A) (A) (A)
                 (A) (A) (A) (A) (A) (A) (A) (A) (A) (A) (A) (A)
                 (A) (A) (A) (A) (A) (A) (A) (A) (A) (A) (A) (A)
                 (A) (A) (A) (A) (A) (A) (A) (A) (A) (A) (A) (A)
                 (A) (A) (A) (A) (A) (A) (A) (A) (A) (A) (A) (A)
                 (A) (A) (A) (A) (A) (A) (A) (A) (A) (A) (A) (A)
                 (A) (A) (A) (A) (A) (A) (A) (A) (A) (A) (A) (A)
                 (A) (A) (A) (A) (A) (A) (A) (A) (A) (A) (A) (A)
                 (A) (A)
 The electronic state is 2-A.
 Alpha  occ. eigenvalues --  -19.63247 -10.63979 -10.58725 -10.57405 -10.56168
 Alpha  occ. eigenvalues --  -10.55858 -10.55702 -10.55623 -10.55522  -1.17513
 Alpha  occ. eigenvalues --   -0.97938  -0.90026  -0.85675  -0.81421  -0.70678
 Alpha  occ. eigenvalues --   -0.69942  -0.66071  -0.60476  -0.57349  -0.55022
 Alpha  occ. eigenvalues --   -0.53136  -0.52570  -0.50555  -0.50198  -0.45177
 Alpha  occ. eigenvalues --   -0.44765  -0.42308  -0.41487  -0.35202  -0.33488
 Alpha  occ. eigenvalues --   -0.32237  -0.30371
 Alpha virt. eigenvalues --   -0.01228   0.00086   0.00558   0.01287   0.02005
 Alpha virt. eigenvalues --    0.02614   0.03545   0.04030   0.04693   0.06252
 Alpha virt. eigenvalues --    0.06783   0.07008   0.07653   0.07847   0.09740
 Alpha virt. eigenvalues --    0.10596   0.10921   0.11657   0.12874   0.13598
 Alpha virt. eigenvalues --    0.13829   0.14832   0.15756   0.16279   0.16600
 Alpha virt. eigenvalues --    0.16954   0.17150   0.17628   0.19610   0.20174
 Alpha virt. eigenvalues --    0.20571   0.21033   0.21583   0.21998   0.22955
 Alpha virt. eigenvalues --    0.23071   0.23497   0.24332   0.24897   0.25572
 Alpha virt. eigenvalues --    0.26470   0.26833   0.27587   0.28478   0.29645
 Alpha virt. eigenvalues --    0.30762   0.32132   0.33687   0.34093   0.35541
 Alpha virt. eigenvalues --    0.36433   0.37349   0.39218   0.43301   0.45015
 Alpha virt. eigenvalues --    0.47256   0.49451   0.51552   0.52135   0.52403
 Alpha virt. eigenvalues --    0.54115   0.54427   0.54700   0.55420   0.55735
 Alpha virt. eigenvalues --    0.56720   0.58357   0.59257   0.60367   0.60833
 Alpha virt. eigenvalues --    0.62255   0.63392   0.64223   0.65477   0.65726
 Alpha virt. eigenvalues --    0.66145   0.66674   0.66695   0.67801   0.68811
 Alpha virt. eigenvalues --    0.69237   0.70715   0.71073   0.71825   0.72301
 Alpha virt. eigenvalues --    0.72836   0.74382   0.75190   0.75718   0.77160
 Alpha virt. eigenvalues --    0.78758   0.79984   0.81455   0.82391   0.83150
 Alpha virt. eigenvalues --    0.84728   0.85998   0.88339   0.89975   0.91980
 Alpha virt. eigenvalues --    0.96636   0.97889   0.99818   1.01055   1.04037
 Alpha virt. eigenvalues --    1.04345   1.06361   1.07239   1.08638   1.09641
 Alpha virt. eigenvalues --    1.10875   1.10890   1.11824   1.15079   1.15473
 Alpha virt. eigenvalues --    1.16221   1.17073   1.19187   1.20207   1.21470
 Alpha virt. eigenvalues --    1.23936   1.24262   1.25798   1.28481   1.29904
 Alpha virt. eigenvalues --    1.30862   1.31431   1.32735   1.33986   1.35278
 Alpha virt. eigenvalues --    1.36178   1.37223   1.39092   1.39571   1.40542
 Alpha virt. eigenvalues --    1.41951   1.43274   1.46456   1.46824   1.48180
 Alpha virt. eigenvalues --    1.48681   1.50517   1.54333   1.55781   1.59336
 Alpha virt. eigenvalues --    1.62884   1.64045   1.67630   1.69220   1.70056
 Alpha virt. eigenvalues --    1.71764   1.74152   1.77271   1.80318   1.82386
 Alpha virt. eigenvalues --    1.84449   1.93083   2.00002   2.01154   2.01446
 Alpha virt. eigenvalues --    2.03388   2.08151   2.19055   2.29382   2.47430
 Alpha virt. eigenvalues --    2.51543   2.52719   2.53590   2.56955   2.57526
 Alpha virt. eigenvalues --    2.59578   2.62027   2.66073   2.66640   2.72195
 Alpha virt. eigenvalues --    2.73794   2.74567   2.74948   2.75648   2.76583
 Alpha virt. eigenvalues --    2.76874   2.78637   2.80041   2.80247   2.81137
 Alpha virt. eigenvalues --    2.83199   2.84320   2.84939   2.86104   2.87139
 Alpha virt. eigenvalues --    2.87823   2.88462   2.89628   2.90507   2.91915
 Alpha virt. eigenvalues --    2.93112   2.96091   2.96945   2.99387   3.02699
 Alpha virt. eigenvalues --    3.03998   3.07029   3.08610   3.09776   3.10568
 Alpha virt. eigenvalues --    3.12119   3.13273   3.14446   3.16125   3.16900
 Alpha virt. eigenvalues --    3.17308   3.18749   3.19133   3.20282   3.22545
 Alpha virt. eigenvalues --    3.24419   3.26371   3.27252   3.29162   3.30263
 Alpha virt. eigenvalues --    3.30937   3.31561   3.32960   3.35190   3.36308
 Alpha virt. eigenvalues --    3.38338   3.40415   3.41401   3.42539   3.43323
 Alpha virt. eigenvalues --    3.44399   3.45661   3.47544   3.50943   3.52647
 Alpha virt. eigenvalues --    3.53558   3.55138   3.56247   3.57179   3.58422
 Alpha virt. eigenvalues --    3.61247   3.62755   3.67776   3.68444   3.70305
 Alpha virt. eigenvalues --    3.73107   3.75256   3.75303   3.77801   3.78357
 Alpha virt. eigenvalues --    3.79367   3.80833   3.83708   3.84803   3.85743
 Alpha virt. eigenvalues --    3.88910   3.90123   3.91446   3.93012   3.96438
 Alpha virt. eigenvalues --    4.00021   4.03114   4.04700   4.07108   4.07625
 Alpha virt. eigenvalues --    4.09927   4.11210   4.14465   4.15106   4.16720
 Alpha virt. eigenvalues --    4.19454   4.23458   4.24253   4.28754   4.31004
 Alpha virt. eigenvalues --    4.33648   4.34816   4.37128   4.39376   4.41256
 Alpha virt. eigenvalues --    4.41654   4.43302   4.43710   4.45814   4.46891
 Alpha virt. eigenvalues --    4.48915   4.51553   4.60211   4.62374   4.64458
 Alpha virt. eigenvalues --    4.65402   4.70033   4.70679   4.74590   4.77207
 Alpha virt. eigenvalues --    4.91514   4.91583   4.99032   5.04056   5.04948
 Alpha virt. eigenvalues --    5.07389   5.09914   5.10683   5.14876   5.19188
 Alpha virt. eigenvalues --    5.26085   5.32265   5.35550   5.38009   5.42136
 Alpha virt. eigenvalues --    5.47011   5.49509   5.59230   5.67394   5.72157
 Alpha virt. eigenvalues --    5.73389   5.75092   5.78584   6.13386   6.22762
 Alpha virt. eigenvalues --    6.44793   6.54143   6.84915   6.89169   7.01870
 Alpha virt. eigenvalues --    7.21855   7.38225   7.60840  23.89129  24.33148
 Alpha virt. eigenvalues --   24.45876  24.46317  24.66059  24.68219  24.69325
 Alpha virt. eigenvalues --   25.14461  50.22620
  Beta  occ. eigenvalues --  -19.63204 -10.64019 -10.57809 -10.57440 -10.56111
  Beta  occ. eigenvalues --  -10.55851 -10.55678 -10.55607 -10.55516  -1.17274
  Beta  occ. eigenvalues --   -0.97613  -0.88717  -0.85557  -0.80164  -0.70313
  Beta  occ. eigenvalues --   -0.69724  -0.64870  -0.60083  -0.56403  -0.54638
  Beta  occ. eigenvalues --   -0.52619  -0.51944  -0.50190  -0.50084  -0.45050
  Beta  occ. eigenvalues --   -0.44657  -0.41902  -0.41096  -0.34726  -0.32145
  Beta  occ. eigenvalues --   -0.31003
  Beta virt. eigenvalues --   -0.07120  -0.01192   0.00163   0.00622   0.01314
  Beta virt. eigenvalues --    0.01935   0.02805   0.03505   0.04065   0.05115
  Beta virt. eigenvalues --    0.06210   0.06473   0.06946   0.07663   0.07899
  Beta virt. eigenvalues --    0.09665   0.10582   0.10761   0.11422   0.12672
  Beta virt. eigenvalues --    0.13335   0.13829   0.14745   0.15795   0.16104
  Beta virt. eigenvalues --    0.16454   0.16719   0.17138   0.17437   0.19216
  Beta virt. eigenvalues --    0.19951   0.20575   0.20954   0.21439   0.21859
  Beta virt. eigenvalues --    0.22427   0.23091   0.23338   0.24147   0.24532
  Beta virt. eigenvalues --    0.25561   0.26303   0.26831   0.27648   0.28905
  Beta virt. eigenvalues --    0.30157   0.31088   0.32064   0.33776   0.33875
  Beta virt. eigenvalues --    0.35352   0.36963   0.37739   0.39819   0.43517
  Beta virt. eigenvalues --    0.45004   0.47365   0.49457   0.51316   0.52096
  Beta virt. eigenvalues --    0.52588   0.54089   0.54401   0.54663   0.55446
  Beta virt. eigenvalues --    0.55789   0.56892   0.58049   0.59402   0.60477
  Beta virt. eigenvalues --    0.61022   0.62363   0.62683   0.63772   0.65325
  Beta virt. eigenvalues --    0.65768   0.66079   0.66433   0.66864   0.67864
  Beta virt. eigenvalues --    0.68641   0.69460   0.70726   0.71168   0.71787
  Beta virt. eigenvalues --    0.72243   0.72676   0.73816   0.74861   0.75692
  Beta virt. eigenvalues --    0.77216   0.78239   0.79362   0.81555   0.82176
  Beta virt. eigenvalues --    0.83240   0.84675   0.85938   0.87862   0.90531
  Beta virt. eigenvalues --    0.91850   0.96617   0.98079   0.99958   1.01005
  Beta virt. eigenvalues --    1.04036   1.04511   1.06311   1.07270   1.08528
  Beta virt. eigenvalues --    1.09718   1.10540   1.10839   1.11777   1.14767
  Beta virt. eigenvalues --    1.15400   1.16449   1.16879   1.19351   1.20247
  Beta virt. eigenvalues --    1.21416   1.23825   1.24624   1.26029   1.28664
  Beta virt. eigenvalues --    1.29974   1.30896   1.31451   1.32701   1.34019
  Beta virt. eigenvalues --    1.35242   1.36293   1.37192   1.39245   1.39509
  Beta virt. eigenvalues --    1.40598   1.42087   1.43221   1.46385   1.46919
  Beta virt. eigenvalues --    1.48206   1.48693   1.50998   1.54667   1.55670
  Beta virt. eigenvalues --    1.58957   1.62749   1.64085   1.67682   1.69325
  Beta virt. eigenvalues --    1.70059   1.71783   1.74159   1.77386   1.80369
  Beta virt. eigenvalues --    1.82699   1.84914   1.93614   2.00033   2.01207
  Beta virt. eigenvalues --    2.01476   2.03448   2.08263   2.19346   2.29684
  Beta virt. eigenvalues --    2.47647   2.51724   2.52732   2.54194   2.57425
  Beta virt. eigenvalues --    2.58282   2.60338   2.62407   2.66606   2.68036
  Beta virt. eigenvalues --    2.72556   2.74168   2.75010   2.75410   2.76485
  Beta virt. eigenvalues --    2.77134   2.77339   2.79128   2.80370   2.80826
  Beta virt. eigenvalues --    2.81596   2.83581   2.85006   2.85581   2.86293
  Beta virt. eigenvalues --    2.87749   2.88223   2.89311   2.90064   2.90963
  Beta virt. eigenvalues --    2.92971   2.93775   2.96335   2.97476   3.00570
  Beta virt. eigenvalues --    3.03543   3.04744   3.08181   3.09113   3.10110
  Beta virt. eigenvalues --    3.11037   3.12927   3.14140   3.15440   3.16592
  Beta virt. eigenvalues --    3.17104   3.17826   3.19489   3.19692   3.21610
  Beta virt. eigenvalues --    3.23115   3.25051   3.27783   3.28768   3.29550
  Beta virt. eigenvalues --    3.30773   3.31309   3.32022   3.33502   3.35293
  Beta virt. eigenvalues --    3.36673   3.38761   3.41114   3.41846   3.42809
  Beta virt. eigenvalues --    3.44106   3.45287   3.46457   3.48976   3.51115
  Beta virt. eigenvalues --    3.52943   3.54416   3.56136   3.57390   3.58481
  Beta virt. eigenvalues --    3.59257   3.63254   3.65216   3.68303   3.69987
  Beta virt. eigenvalues --    3.70571   3.74386   3.75711   3.76272   3.78122
  Beta virt. eigenvalues --    3.79072   3.79766   3.81288   3.84640   3.85700
  Beta virt. eigenvalues --    3.86285   3.89610   3.90714   3.92233   3.94894
  Beta virt. eigenvalues --    3.97267   4.01598   4.03394   4.05153   4.07505
  Beta virt. eigenvalues --    4.07697   4.11153   4.11829   4.15691   4.15950
  Beta virt. eigenvalues --    4.17814   4.20454   4.24536   4.24674   4.29431
  Beta virt. eigenvalues --    4.31420   4.34328   4.35031   4.37357   4.40186
  Beta virt. eigenvalues --    4.41922   4.42284   4.43847   4.44077   4.46169
  Beta virt. eigenvalues --    4.47708   4.49332   4.52463   4.60820   4.62990
  Beta virt. eigenvalues --    4.65041   4.66715   4.71306   4.71530   4.75086
  Beta virt. eigenvalues --    4.79245   4.91726   4.93582   4.99220   5.04196
  Beta virt. eigenvalues --    5.05192   5.07558   5.10283   5.10867   5.15330
  Beta virt. eigenvalues --    5.19285   5.27481   5.32602   5.35831   5.38868
  Beta virt. eigenvalues --    5.44251   5.47124   5.51197   5.62376   5.67472
  Beta virt. eigenvalues --    5.72263   5.73478   5.75273   5.79175   6.13731
  Beta virt. eigenvalues --    6.22825   6.44882   6.54680   6.84969   6.89263
  Beta virt. eigenvalues --    7.02028   7.21912   7.38346   7.60991  23.89149
  Beta virt. eigenvalues --   24.34689  24.45896  24.46326  24.66431  24.68249
  Beta virt. eigenvalues --   24.69341  25.14472  50.22588
          Condensed to atoms (all electrons):
              1          2          3          4          5          6
     1  C    7.446028  -0.967387  -0.487560  -0.922481   0.633714  -0.566740
     2  C   -0.967387   8.482174  -1.272191   0.421619  -0.550902   0.326302
     3  C   -0.487560  -1.272191   7.541444   0.094200  -0.268044   0.141098
     4  C   -0.922481   0.421619   0.094200   6.552046  -0.330299   0.084374
     5  C    0.633714  -0.550902  -0.268044  -0.330299   5.788207   0.264398
     6  C   -0.566740   0.326302   0.141098   0.084374   0.264398   5.197689
     7  C    0.413108  -0.483238  -0.000817  -0.309377   0.337610   0.296354
     8  C   -0.051189  -0.099546   0.235365   0.107748   0.020702   0.011984
     9  H    0.001558   0.048159  -0.082960   0.434279   0.008676  -0.000809
    10  H    0.077585   0.275528   0.003555   0.014658   0.022406  -0.014258
    11  H   -0.009489   0.038857  -0.006146   0.007674   0.310926   0.045183
    12  H    0.011871  -0.011875  -0.011402   0.002564   0.024518   0.347663
    13  H   -0.010582  -0.006838   0.044517   0.006799  -0.009558   0.050012
    14  H    0.062011  -0.003190   0.280880   0.036814  -0.000123  -0.016483
    15  O   -0.001539  -0.006155   0.003300  -0.054144  -0.006664  -0.000020
    16  H    0.013421   0.008906   0.022127  -0.061769  -0.005175   0.001848
              7          8          9         10         11         12
     1  C    0.413108  -0.051189   0.001558   0.077585  -0.009489   0.011871
     2  C   -0.483238  -0.099546   0.048159   0.275528   0.038857  -0.011875
     3  C   -0.000817   0.235365  -0.082960   0.003555  -0.006146  -0.011402
     4  C   -0.309377   0.107748   0.434279   0.014658   0.007674   0.002564
     5  C    0.337610   0.020702   0.008676   0.022406   0.310926   0.024518
     6  C    0.296354   0.011984  -0.000809  -0.014258   0.045183   0.347663
     7  C    5.623752   0.017996  -0.002880  -0.000008  -0.008496   0.017198
     8  C    0.017996   5.041069  -0.063655   0.001574  -0.000137  -0.000006
     9  H   -0.002880  -0.063655   0.481280   0.000029   0.000005  -0.000001
    10  H   -0.000008   0.001574   0.000029   0.461502  -0.006352  -0.000066
    11  H   -0.008496  -0.000137   0.000005  -0.006352   0.481804  -0.006379
    12  H    0.017198  -0.000006  -0.000001  -0.000066  -0.006379   0.481240
    13  H    0.303621   0.000123   0.000002   0.000040  -0.000050  -0.006385
    14  H    0.022657  -0.004380  -0.002769  -0.000091   0.000042  -0.000092
    15  O   -0.001745   0.396221   0.002757  -0.000516   0.000006   0.000001
    16  H   -0.000695   0.384667  -0.000714  -0.000064   0.000000   0.000001
             13         14         15         16
     1  C   -0.010582   0.062011  -0.001539   0.013421
     2  C   -0.006838  -0.003190  -0.006155   0.008906
     3  C    0.044517   0.280880   0.003300   0.022127
     4  C    0.006799   0.036814  -0.054144  -0.061769
     5  C   -0.009558  -0.000123  -0.006664  -0.005175
     6  C    0.050012  -0.016483  -0.000020   0.001848
     7  C    0.303621   0.022657  -0.001745  -0.000695
     8  C    0.000123  -0.004380   0.396221   0.384667
     9  H    0.000002  -0.002769   0.002757  -0.000714
    10  H    0.000040  -0.000091  -0.000516  -0.000064
    11  H   -0.000050   0.000042   0.000006   0.000000
    12  H   -0.006385  -0.000092   0.000001   0.000001
    13  H    0.483093  -0.006305   0.000002   0.000022
    14  H   -0.006305   0.472249  -0.000149  -0.001428
    15  O    0.000002  -0.000149   8.022482  -0.043068
    16  H    0.000022  -0.001428  -0.043068   0.531031
 Mulliken atomic charges:
              1
     1  C    0.357671
     2  C   -0.200222
     3  C   -0.237368
     4  C   -0.084704
     5  C   -0.240390
     6  C   -0.168595
     7  C   -0.225040
     8  C    0.001464
     9  H    0.177042
    10  H    0.164479
    11  H    0.152552
    12  H    0.151148
    13  H    0.151488
    14  H    0.160355
    15  O   -0.310768
    16  H    0.150889
 Sum of Mulliken atomic charges =   0.00000
 Mulliken charges with hydrogens summed into heavy atoms:
              1
     1  C    0.357671
     2  C   -0.035744
     3  C   -0.077013
     4  C    0.092337
     5  C   -0.087838
     6  C   -0.017447
     7  C   -0.073552
     8  C    0.152353
    15  O   -0.310768
 Sum of Mulliken charges with hydrogens summed into heavy atoms =   0.00000
          Atomic-Atomic Spin Densities.
              1          2          3          4          5          6
     1  C    0.448277  -0.251548  -0.093957  -0.296110   0.113395  -0.072718
     2  C   -0.251548   0.513497  -0.178506   0.095153  -0.148343   0.036707
     3  C   -0.093957  -0.178506   0.385110   0.004354  -0.077032   0.011326
     4  C   -0.296110   0.095153   0.004354   1.389770  -0.065998   0.024802
     5  C    0.113395  -0.148343  -0.077032  -0.065998   0.172318  -0.012441
     6  C   -0.072718   0.036707   0.011326   0.024802  -0.012441   0.041971
     7  C    0.005533  -0.045460   0.004311  -0.009948   0.025868  -0.014264
     8  C    0.035920   0.025074  -0.021405  -0.040495  -0.003764  -0.001377
     9  H    0.003676   0.003271  -0.003318   0.004790   0.000390  -0.000113
    10  H   -0.016514   0.034129  -0.012286   0.001327  -0.007019  -0.000363
    11  H   -0.001776  -0.000007   0.000073   0.000112  -0.000008   0.001322
    12  H   -0.001190   0.000393   0.001129   0.000170   0.000330   0.000786
    13  H    0.001853  -0.002518   0.001818  -0.001278   0.001093  -0.002084
    14  H    0.005511  -0.002419   0.002808  -0.002139   0.000785  -0.001892
    15  O   -0.002187   0.007323  -0.005288  -0.025589   0.003444   0.000047
    16  H    0.029091  -0.003495  -0.006483  -0.063148   0.004747  -0.001232
              7          8          9         10         11         12
     1  C    0.005533   0.035920   0.003676  -0.016514  -0.001776  -0.001190
     2  C   -0.045460   0.025074   0.003271   0.034129  -0.000007   0.000393
     3  C    0.004311  -0.021405  -0.003318  -0.012286   0.000073   0.001129
     4  C   -0.009948  -0.040495   0.004790   0.001327   0.000112   0.000170
     5  C    0.025868  -0.003764   0.000390  -0.007019  -0.000008   0.000330
     6  C   -0.014264  -0.001377  -0.000113  -0.000363   0.001322   0.000786
     7  C    0.037629  -0.006782  -0.001812   0.000230   0.000278  -0.001535
     8  C   -0.006782  -0.050157  -0.005201   0.001647  -0.000003  -0.000034
     9  H   -0.001812  -0.005201  -0.040792  -0.000038   0.000000   0.000000
    10  H    0.000230   0.001647  -0.000038  -0.010983   0.000332   0.000008
    11  H    0.000278  -0.000003   0.000000   0.000332   0.000171  -0.000005
    12  H   -0.001535  -0.000034   0.000000   0.000008  -0.000005  -0.000971
    13  H    0.000748   0.000143   0.000001  -0.000001  -0.000005   0.000001
    14  H   -0.003065  -0.000228  -0.000059   0.000019  -0.000002   0.000001
    15  O   -0.000093   0.025788   0.000173   0.000240   0.000000   0.000000
    16  H    0.000080   0.034170   0.000110   0.000051   0.000000   0.000000
             13         14         15         16
     1  C    0.001853   0.005511  -0.002187   0.029091
     2  C   -0.002518  -0.002419   0.007323  -0.003495
     3  C    0.001818   0.002808  -0.005288  -0.006483
     4  C   -0.001278  -0.002139  -0.025589  -0.063148
     5  C    0.001093   0.000785   0.003444   0.004747
     6  C   -0.002084  -0.001892   0.000047  -0.001232
     7  C    0.000748  -0.003065  -0.000093   0.000080
     8  C    0.000143  -0.000228   0.025788   0.034170
     9  H    0.000001  -0.000059   0.000173   0.000110
    10  H   -0.000001   0.000019   0.000240   0.000051
    11  H   -0.000005  -0.000002   0.000000   0.000000
    12  H    0.000001   0.000001   0.000000   0.000000
    13  H    0.001458   0.000156   0.000000   0.000010
    14  H    0.000156  -0.005386   0.000005   0.000349
    15  O    0.000000   0.000005   0.008669  -0.001132
    16  H    0.000010   0.000349  -0.001132   0.026035
 Mulliken atomic spin densities:
              1
     1  C   -0.092744
     2  C    0.083251
     3  C    0.012652
     4  C    1.015773
     5  C    0.007766
     6  C    0.010476
     7  C   -0.008283
     8  C   -0.006702
     9  H   -0.038922
    10  H   -0.009220
    11  H    0.000483
    12  H   -0.000917
    13  H    0.001396
    14  H   -0.005558
    15  O    0.011400
    16  H    0.019150
 Sum of Mulliken atomic spin densities =   1.00000
 Electronic spatial extent (au):  <R**2>=           1292.4958
 Charge=              0.0000 electrons
 Dipole moment (field-independent basis, Debye):
    X=              2.5763    Y=             -2.0439    Z=              0.5456  Tot=              3.3336
 Quadrupole moment (field-independent basis, Debye-Ang):
   XX=            -59.1452   YY=            -47.4102   ZZ=            -55.7583
   XY=              6.5323   XZ=             -4.6449   YZ=              0.8135
 Traceless Quadrupole moment (field-independent basis, Debye-Ang):
   XX=             -5.0406   YY=              6.6943   ZZ=             -1.6537
   XY=              6.5323   XZ=             -4.6449   YZ=              0.8135
 Octapole moment (field-independent basis, Debye-Ang**2):
  XXX=             45.2702  YYY=              0.7310  ZZZ=             -2.2147  XYY=              1.6689
  XXY=            -17.0499  XXZ=              1.9694  XZZ=             -7.3445  YZZ=             -2.1986
  YYZ=             -0.6451  XYZ=             -1.1561
 Hexadecapole moment (field-independent basis, Debye-Ang**3):
 XXXX=          -1359.7158 YYYY=           -310.8562 ZZZZ=           -142.9379 XXXY=             51.0027
 XXXZ=            -52.8200 YYYX=              2.4063 YYYZ=              2.1202 ZZZX=              6.3743
 ZZZY=             -3.5342 XXYY=           -252.5499 XXZZ=           -247.9540 YYZZ=            -83.0292
 XXYZ=              7.8631 YYXZ=             -2.4514 ZZXY=              3.7115
 N-N= 3.819494054209D+02 E-N=-2.478375294010D+03  KE= 5.729806598549D+02
                          Isotropic Fermi Contact Couplings
        Atom                 a.u.       MegaHertz       Gauss      10(-4) cm-1
     1  C(13)             -0.01626     -18.27772      -6.52195      -6.09679
     2  C(13)              0.02807      31.55054      11.25802      10.52413
     3  C(13)              0.03987      44.82336      15.99409      14.95146
     4  C(13)              0.41359     464.95032     165.90583     155.09073
     5  C(13)              0.00045       0.50998       0.18197       0.17011
     6  C(13)              0.00148       1.66289       0.59336       0.55468
     7  C(13)              0.00571       6.41662       2.28961       2.14035
     8  C(13)             -0.02419     -27.19172      -9.70268      -9.07018
     9  H(1)              -0.00594     -26.54968      -9.47358      -8.85602
    10  H(1)              -0.00047      -2.12315      -0.75759      -0.70821
    11  H(1)               0.00015       0.67764       0.24180       0.22604
    12  H(1)              -0.00018      -0.80377      -0.28681      -0.26811
    13  H(1)               0.00063       2.80420       1.00061       0.93538
    14  H(1)              -0.00033      -1.48217      -0.52888      -0.49440
    15  O(17)              0.02157     -13.07290      -4.66474      -4.36065
    16  H(1)               0.00965      43.13198      15.39056      14.38728
 --------------------------------------------------------
       Center         ----  Spin Dipole Couplings  ----
                      3XX-RR        3YY-RR        3ZZ-RR
 --------------------------------------------------------
     1   Atom        0.025578      0.001359     -0.026936
     2   Atom        0.002746     -0.008157      0.005411
     3   Atom        0.021766     -0.004453     -0.017314
     4   Atom       -0.398315      0.617202     -0.218888
     5   Atom        0.007481      0.000744     -0.008225
     6   Atom       -0.000875     -0.007588      0.008463
     7   Atom        0.013373     -0.002976     -0.010397
     8   Atom       -0.004628     -0.009600      0.014229
     9   Atom       -0.053671      0.041786      0.011885
    10   Atom        0.001254      0.007402     -0.008656
    11   Atom        0.001823     -0.000485     -0.001338
    12   Atom        0.002390     -0.001625     -0.000766
    13   Atom        0.001915     -0.000397     -0.001518
    14   Atom       -0.000570      0.007070     -0.006500
    15   Atom        0.013192     -0.030833      0.017641
    16   Atom       -0.004669     -0.001802      0.006471
 --------------------------------------------------------
                        XY            XZ            YZ
 --------------------------------------------------------
     1   Atom       -0.013434     -0.019558      0.006214
     2   Atom        0.014961     -0.015376     -0.015128
     3   Atom       -0.031597      0.007414     -0.004084
     4   Atom       -0.360737     -0.183483      0.566108
     5   Atom        0.003055     -0.005268     -0.000161
     6   Atom        0.000198      0.003629     -0.000783
     7   Atom       -0.001475     -0.005953      0.000872
     8   Atom        0.001449      0.023100      0.011838
     9   Atom        0.002743     -0.020422     -0.043920
    10   Atom        0.008679     -0.002764     -0.003451
    11   Atom        0.001560     -0.001107     -0.000398
    12   Atom        0.000316     -0.000974     -0.000213
    13   Atom       -0.001361     -0.001109      0.000638
    14   Atom       -0.006453     -0.002623      0.001475
    15   Atom       -0.016219      0.050097     -0.018424
    16   Atom        0.001850      0.007509      0.008548
 --------------------------------------------------------


 ---------------------------------------------------------------------------------
              Anisotropic Spin Dipole Couplings in Principal Axis System
 ---------------------------------------------------------------------------------

       Atom             a.u.   MegaHertz   Gauss  10(-4) cm-1        Axes

              Baa    -0.0335    -4.496    -1.604    -1.500  0.3029 -0.0529  0.9515
     1 C(13)  Bbb    -0.0045    -0.599    -0.214    -0.200  0.3708  0.9263 -0.0666
              Bcc     0.0380     5.096     1.818     1.700  0.8779 -0.3730 -0.3002
 
              Baa    -0.0197    -2.650    -0.946    -0.884 -0.3824  0.8762  0.2931
     2 C(13)  Bbb    -0.0113    -1.516    -0.541    -0.506  0.7021  0.0693  0.7087
              Bcc     0.0310     4.166     1.487     1.390 -0.6007 -0.4768  0.6417
 
              Baa    -0.0256    -3.438    -1.227    -1.147  0.5627  0.8208 -0.0987
     3 C(13)  Bbb    -0.0184    -2.469    -0.881    -0.824 -0.0577  0.1580  0.9858
              Bcc     0.0440     5.908     2.108     1.971  0.8247 -0.5490  0.1362
 
              Baa    -0.5141   -68.985   -24.616   -23.011  0.9536  0.1852  0.2375
     4 C(13)  Bbb    -0.5044   -67.688   -24.153   -22.578 -0.1236 -0.4785  0.8693
              Bcc     1.0185   136.673    48.768    45.589 -0.2747  0.8583  0.4334
 
              Baa    -0.0099    -1.326    -0.473    -0.442  0.3012 -0.0722  0.9508
     5 C(13)  Bbb    -0.0002    -0.021    -0.007    -0.007 -0.2710  0.9495  0.1579
              Bcc     0.0100     1.347     0.481     0.449  0.9142  0.3052 -0.2664
 
              Baa    -0.0076    -1.026    -0.366    -0.342 -0.0625  0.9961  0.0625
     6 C(13)  Bbb    -0.0021    -0.280    -0.100    -0.093  0.9444  0.0793 -0.3191
              Bcc     0.0097     1.306     0.466     0.436  0.3228 -0.0390  0.9457
 
              Baa    -0.0118    -1.588    -0.567    -0.530  0.2263 -0.0580  0.9723
     7 C(13)  Bbb    -0.0031    -0.415    -0.148    -0.139  0.1019  0.9942  0.0356
              Bcc     0.0149     2.003     0.715     0.668  0.9687 -0.0911 -0.2308
 
              Baa    -0.0228    -3.058    -1.091    -1.020  0.6933  0.4377 -0.5726
     8 C(13)  Bbb    -0.0097    -1.299    -0.464    -0.433 -0.5000  0.8642  0.0552
              Bcc     0.0325     4.358     1.555     1.454  0.5190  0.2480  0.8180
 
              Baa    -0.0606   -32.356   -11.546   -10.793  0.9347  0.1186  0.3350
     9 H(1)   Bbb    -0.0142    -7.560    -2.697    -2.522 -0.3375  0.5914  0.7323
              Bcc     0.0748    39.916    14.243    13.314  0.1113  0.7976 -0.5928
 
              Baa    -0.0095    -5.078    -1.812    -1.694  0.1542  0.1209  0.9806
    10 H(1)   Bbb    -0.0049    -2.595    -0.926    -0.866  0.8078 -0.5869 -0.0546
              Bcc     0.0144     7.673     2.738     2.559  0.5689  0.8006 -0.1882
 
              Baa    -0.0017    -0.908    -0.324    -0.303  0.3596 -0.1603  0.9192
    11 H(1)   Bbb    -0.0012    -0.655    -0.234    -0.218 -0.3494  0.8903  0.2919
              Bcc     0.0029     1.563     0.558     0.521  0.8652  0.4261 -0.2641
 
              Baa    -0.0017    -0.895    -0.319    -0.298 -0.0284  0.9796  0.1988
    12 H(1)   Bbb    -0.0010    -0.544    -0.194    -0.181  0.2855 -0.1826  0.9408
              Bcc     0.0027     1.439     0.513     0.480  0.9579  0.0835 -0.2745
 
              Baa    -0.0019    -1.013    -0.361    -0.338  0.1961 -0.2276  0.9538
    13 H(1)   Bbb    -0.0010    -0.540    -0.193    -0.180  0.4547  0.8829  0.1172
              Bcc     0.0029     1.553     0.554     0.518  0.8688 -0.4107 -0.2766
 
              Baa    -0.0076    -4.046    -1.444    -1.349  0.4256  0.0969  0.8997
    14 H(1)   Bbb    -0.0035    -1.893    -0.676    -0.631  0.7524  0.5144 -0.4114
              Bcc     0.0111     5.939     2.119     1.981 -0.5027  0.8520  0.1461
 
              Baa    -0.0371     2.686     0.958     0.896 -0.1273  0.8991  0.4189
    15 O(17)  Bbb    -0.0343     2.484     0.886     0.828  0.7308  0.3706 -0.5732
              Bcc     0.0714    -5.170    -1.845    -1.724  0.6706 -0.2332  0.7042
 
              Baa    -0.0096    -5.120    -1.827    -1.708  0.6889  0.4552 -0.5641
    16 H(1)   Bbb    -0.0051    -2.702    -0.964    -0.901 -0.6296  0.7614 -0.1544
              Bcc     0.0147     7.822     2.791     2.609  0.3593  0.4615  0.8111
 

 ---------------------------------------------------------------------------------

 Calling FoFJK, ICntrl=      2127 FMM=F ISym2X=0 I1Cent= 0 IOpClX= 1 NMat=1 NMatS=1 NMatT=0.
 ***** Axes restored to original set *****
 -------------------------------------------------------------------
 Center     Atomic                   Forces (Hartrees/Bohr)
 Number     Number              X              Y              Z
 -------------------------------------------------------------------
      1        6          -0.003381127   -0.005650549    0.010895949
      2        6          -0.009066582    0.001685787   -0.007811842
      3        6          -0.007152532   -0.006704760    0.004957866
      4        6          -0.015274630    0.028775519   -0.038669179
      5        6           0.004482543    0.007914535   -0.005327686
      6        6           0.007867636    0.001597582    0.001976180
      7        6           0.005815663   -0.005910885    0.006649010
      8        6           0.030766790   -0.035365641    0.041741005
      9        1           0.002153140   -0.012832694    0.010535174
     10        1           0.001265422    0.001892186   -0.000963983
     11        1           0.000552614    0.000531576   -0.000174527
     12        1           0.000694829    0.000334554    0.000150256
     13        1           0.000782842   -0.000201101    0.000317621
     14        1           0.000684738    0.000430912    0.001322429
     15        8          -0.014932713    0.017159407   -0.015058618
     16        1          -0.005258634    0.006343571   -0.010539656
 -------------------------------------------------------------------
 Cartesian Forces:  Max     0.041741005 RMS     0.013253580

 GradGradGradGradGradGradGradGradGradGradGradGradGradGradGradGradGradGrad
 Berny optimization.
 Internal  Forces:  Max     0.025961115 RMS     0.006128839
 Search for a local minimum.
 Step number   1 out of a maximum of   82
 All quantities printed in internal units (Hartrees-Bohrs-Radians)
 Swaping is turned off.
 Second derivative matrix not updated -- first step.
 ITU=  0
     Eigenvalues ---    0.00803   0.00852   0.00852   0.01666   0.02051
     Eigenvalues ---    0.02070   0.02083   0.02096   0.02108   0.02110
     Eigenvalues ---    0.02111   0.02113   0.03617   0.12185   0.16000
     Eigenvalues ---    0.16000   0.16000   0.16000   0.16000   0.16000
     Eigenvalues ---    0.22000   0.22000   0.22000   0.23320   0.23478
     Eigenvalues ---    0.24992   0.32501   0.32674   0.33072   0.35357
     Eigenvalues ---    0.35611   0.35632   0.35713   0.35715   0.35719
     Eigenvalues ---    0.41450   0.41580   0.45202   0.45583   0.45838
     Eigenvalues ---    0.45907   0.95565
 Quadratic step=7.982D-01 exceeds max=3.000D-01 adjusted using Lamda=-4.355D-02.
 Angle between NR and scaled steps=  27.52 degrees.
 Angle between quadratic step and forces=  45.03 degrees.
 Linear search not attempted -- option 19 set.
 Iteration  1 RMS(Cart)=  0.05491692 RMS(Int)=  0.00276069
 Iteration  2 RMS(Cart)=  0.00336608 RMS(Int)=  0.00157890
 Iteration  3 RMS(Cart)=  0.00000657 RMS(Int)=  0.00157889
 Iteration  4 RMS(Cart)=  0.00000003 RMS(Int)=  0.00157889
 Variable       Old X    -DE/DX   Delta X   Delta X   Delta X     New X
                                 (Linear)    (Quad)   (Total)
    R1        2.64935  -0.00917   0.00000  -0.01844  -0.01844   2.63091
    R2        2.65406  -0.01011   0.00000  -0.02053  -0.02053   2.63353
    R3        2.82929  -0.00380   0.00000  -0.01026  -0.01026   2.81902
    R4        2.64330  -0.01030   0.00000  -0.02050  -0.02050   2.62280
    R5        2.04695  -0.00102   0.00000  -0.00256  -0.00256   2.04439
    R6        2.64298  -0.01064   0.00000  -0.02122  -0.02122   2.62176
    R7        2.04660  -0.00005   0.00000  -0.00012  -0.00012   2.04649
    R8        2.82224   0.00021   0.00000   0.00055   0.00055   2.82280
    R9        2.09936  -0.01207   0.00000  -0.03275  -0.03275   2.06661
   R10        2.64224  -0.01027   0.00000  -0.02043  -0.02043   2.62181
   R11        2.04532  -0.00073   0.00000  -0.00183  -0.00183   2.04349
   R12        2.64213  -0.00985   0.00000  -0.01963  -0.01963   2.62250
   R13        2.04523  -0.00077   0.00000  -0.00192  -0.00192   2.04331
   R14        2.04530  -0.00072   0.00000  -0.00179  -0.00179   2.04351
   R15        2.30469  -0.02596   0.00000  -0.02598  -0.02598   2.27871
   R16        2.05099   0.01216   0.00000   0.03063   0.03063   2.08162
    A1        2.08769  -0.00157   0.00000  -0.00540  -0.00540   2.08229
    A2        2.08853   0.00280   0.00000   0.00954   0.00954   2.09807
    A3        2.10670  -0.00124   0.00000  -0.00423  -0.00423   2.10247
    A4        2.09669   0.00089   0.00000   0.00341   0.00341   2.10010
    A5        2.10037  -0.00273   0.00000  -0.01293  -0.01293   2.08744
    A6        2.08613   0.00184   0.00000   0.00952   0.00952   2.09564
    A7        2.09608   0.00072   0.00000   0.00256   0.00256   2.09864
    A8        2.10117  -0.00158   0.00000  -0.00726  -0.00726   2.09391
    A9        2.08594   0.00086   0.00000   0.00470   0.00470   2.09064
   A10        1.93200   0.01406   0.00000   0.07230   0.06602   1.99802
   A11        1.93816   0.00189   0.00000   0.05867   0.05083   1.98898
   A12        1.92379   0.00231   0.00000   0.06182   0.05411   1.97790
   A13        2.09569   0.00021   0.00000   0.00076   0.00076   2.09645
   A14        2.09380  -0.00038   0.00000  -0.00174  -0.00174   2.09206
   A15        2.09370   0.00017   0.00000   0.00098   0.00098   2.09468
   A16        2.09475  -0.00089   0.00000  -0.00353  -0.00353   2.09122
   A17        2.09423   0.00058   0.00000   0.00245   0.00245   2.09668
   A18        2.09420   0.00031   0.00000   0.00108   0.00109   2.09528
   A19        2.09543   0.00064   0.00000   0.00221   0.00221   2.09764
   A20        2.09398  -0.00081   0.00000  -0.00353  -0.00353   2.09045
   A21        2.09378   0.00017   0.00000   0.00132   0.00132   2.09509
   A22        2.09296   0.01644   0.00000   0.06237   0.06216   2.15512
   A23        2.09894  -0.01380   0.00000  -0.05863  -0.05884   2.04011
   A24        2.09128  -0.00264   0.00000  -0.00378  -0.00399   2.08729
    D1       -0.00960   0.00004   0.00000   0.00046   0.00047  -0.00914
    D2        3.13183   0.00009   0.00000   0.00130   0.00129   3.13312
    D3       -3.12646   0.00028   0.00000   0.00429   0.00430  -3.12216
    D4        0.01497   0.00033   0.00000   0.00512   0.00513   0.02010
    D5        0.00960  -0.00029   0.00000  -0.00434  -0.00434   0.00526
    D6       -3.13096  -0.00044   0.00000  -0.00657  -0.00656  -3.13752
    D7        3.12619  -0.00048   0.00000  -0.00800  -0.00799   3.11820
    D8       -0.01437  -0.00063   0.00000  -0.01023  -0.01021  -0.02457
    D9        1.71209  -0.00911   0.00000  -0.12450  -0.12598   1.58610
   D10       -2.42825   0.00502   0.00000   0.04610   0.04755  -2.38070
   D11       -1.40450  -0.00886   0.00000  -0.12063  -0.12208  -1.52658
   D12        0.73835   0.00527   0.00000   0.04998   0.05145   0.78980
   D13        0.00405   0.00016   0.00000   0.00239   0.00239   0.00644
   D14       -3.13926   0.00008   0.00000   0.00131   0.00131  -3.13795
   D15       -3.13738   0.00011   0.00000   0.00156   0.00156  -3.13582
   D16        0.00249   0.00003   0.00000   0.00048   0.00048   0.00298
   D17       -0.00403   0.00035   0.00000   0.00536   0.00537   0.00133
   D18        3.13949   0.00010   0.00000   0.00150   0.00151   3.14100
   D19        3.13653   0.00049   0.00000   0.00756   0.00757  -3.13908
   D20       -0.00313   0.00024   0.00000   0.00370   0.00372   0.00059
   D21       -2.00918   0.00791   0.00000   0.10414   0.10575  -1.90343
   D22        1.13110   0.00591   0.00000   0.06576   0.06737   1.19847
   D23        2.12283  -0.00578   0.00000  -0.06307  -0.06468   2.05814
   D24       -1.02008  -0.00777   0.00000  -0.10146  -0.10306  -1.12314
   D25        0.00157  -0.00009   0.00000  -0.00134  -0.00135   0.00022
   D26        3.14090  -0.00003   0.00000  -0.00043  -0.00042   3.14048
   D27       -3.13831  -0.00002   0.00000  -0.00026  -0.00026  -3.13857
   D28        0.00103   0.00004   0.00000   0.00066   0.00066   0.00169
   D29       -0.00157  -0.00017   0.00000  -0.00253  -0.00253  -0.00410
   D30        3.13809   0.00009   0.00000   0.00132   0.00133   3.13942
   D31       -3.14091  -0.00022   0.00000  -0.00345  -0.00345   3.13883
   D32       -0.00124   0.00003   0.00000   0.00040   0.00041  -0.00084
         Item               Value     Threshold  Converged?
 Maximum Force            0.025961     0.000002     NO 
 RMS     Force            0.006129     0.000001     NO 
 Maximum Displacement     0.175675     0.000006     NO 
 RMS     Displacement     0.053885     0.000004     NO 
 Predicted change in Energy=-7.685288D-03
 GradGradGradGradGradGradGradGradGradGradGradGradGradGradGradGradGradGrad

                          Input orientation:                          
 ---------------------------------------------------------------------
 Center     Atomic      Atomic             Coordinates (Angstroms)
 Number     Number       Type             X           Y           Z
 ---------------------------------------------------------------------
      1          6           0        0.379840    0.260826    0.328207
      2          6           0       -0.222589   -0.791526    1.012241
      3          6           0       -0.361746    0.979562   -0.607527
      4          6           0        1.814740    0.589507    0.569841
      5          6           0       -1.551030   -1.114098    0.772385
      6          6           0       -2.285489   -0.393008   -0.157929
      7          6           0       -1.688164    0.651995   -0.848627
      8          6           0        2.771719   -0.112227   -0.337394
      9          1           0        2.015016    1.660326    0.665796
     10          1           0        0.350954   -1.357726    1.733944
     11          1           0       -2.012464   -1.930801    1.310379
     12          1           0       -3.320139   -0.644786   -0.345706
     13          1           0       -2.256689    1.215123   -1.575980
     14          1           0        0.097204    1.797773   -1.148532
     15          8           0        3.509473   -0.993570    0.027302
     16          1           0        2.759363    0.182531   -1.398697
 ---------------------------------------------------------------------
                    Distance matrix (angstroms):
                    1          2          3          4          5
     1  C    0.000000
     2  C    1.392217   0.000000
     3  C    1.393603   2.404115   0.000000
     4  C    1.491763   2.500736   2.505081   0.000000
     5  C    2.411632   1.387926   2.775242   3.777791   0.000000
     6  C    2.787078   2.404926   2.405592   4.278652   1.387402
     7  C    2.411347   2.773895   1.387377   3.779722   2.401160
     8  C    2.510633   3.353930   3.329201   1.493759   4.574005
     9  H    2.178615   3.337436   2.780968   1.093604   4.519455
    10  H    2.143977   1.081845   3.384279   2.699911   2.145109
    11  H    3.389839   2.142542   3.856611   4.641965   1.081371
    12  H    3.868351   3.385317   3.385137   5.359915   2.144791
    13  H    3.389380   3.855268   2.141075   4.644618   3.382018
    14  H    2.150081   3.387577   1.082954   2.713419   3.858185
    15  O    3.385064   3.865128   4.391195   2.381723   5.116480
    16  H    2.941166   3.956444   3.317007   2.221056   4.997433
                    6          7          8          9         10
     6  C    0.000000
     7  C    1.387765   0.000000
     8  C    5.068175   4.553675   0.000000
     9  H    4.836222   4.125985   2.172771   0.000000
    10  H    3.385365   3.855730   3.420792   3.608140   0.000000
    11  H    2.143660   3.381910   5.376875   5.434360   2.468515
    12  H    1.081274   2.144275   6.115099   5.899200   4.279037
    13  H    2.144244   1.081377   5.346105   4.844711   4.937099
    14  H    3.384973   2.142496   3.385126   2.643611   4.281382
    15  O    5.828943   5.521827   1.205840   3.111951   3.608529
    16  H    5.226977   4.505938   1.101544   2.645763   4.241022
                   11         12         13         14         15
    11  H    0.000000
    12  H    2.471127   0.000000
    13  H    4.276395   2.470579   0.000000
    14  H    4.939555   4.276548   2.462317   0.000000
    15  O    5.745997   6.848678   6.379457   4.562649   0.000000
    16  H    5.880102   6.225239   5.124301   3.123889   1.994832
                   16
    16  H    0.000000
 Stoichiometry    C8H7O(2)
 Framework group  C1[X(C8H7O)]
 Deg. of freedom    42
 Full point group                 C1      NOp   1
 Largest Abelian subgroup         C1      NOp   1
 Largest concise Abelian subgroup C1      NOp   1
                         Standard orientation:                         
 ---------------------------------------------------------------------
 Center     Atomic      Atomic             Coordinates (Angstroms)
 Number     Number       Type             X           Y           Z
 ---------------------------------------------------------------------
      1          6           0       -0.075740   -0.138667    0.431915
      2          6           0        0.479068    1.136109    0.358409
      3          6           0        0.708319   -1.243688    0.105861
      4          6           0       -1.505343   -0.313849    0.820378
      5          6           0        1.802430    1.303417   -0.025076
      6          6           0        2.579312    0.199449   -0.345377
      7          6           0        2.029538   -1.073175   -0.281592
      8          6           0       -2.461776   -0.323516   -0.326992
      9          1           0       -1.675658   -1.125776    1.532935
     10          1           0       -0.127586    1.997857    0.602845
     11          1           0        2.226747    2.296737   -0.076385
     12          1           0        3.610012    0.329621   -0.645153
     13          1           0        2.631216   -1.935993   -0.532403
     14          1           0        0.286598   -2.239912    0.155643
     15          8           0       -3.233744    0.573809   -0.557046
     16          1           0       -2.416222   -1.189486   -1.006272
 ---------------------------------------------------------------------
 Rotational constants (GHZ):      4.1206955      1.0043455      0.8778589
 Standard basis: 6-311+G(2df,2p) (5D, 7F)
 There are   369 symmetry adapted basis functions of A   symmetry.
 Integral buffers will be    131072 words long.
 Raffenetti 2 integral format.
 Two-electron integral symmetry is turned on.
   369 basis functions,   545 primitive gaussians,   414 cartesian basis functions
    32 alpha electrons       31 beta electrons
       nuclear repulsion energy       382.8020404603 Hartrees.
 NAtoms=   16 NActive=   16 NUniq=   16 SFac= 1.00D+00 NAtFMM=   50 NAOKFM=F Big=F
 One-electron integrals computed using PRISM.
 NBasis=   369 RedAO= T  NBF=   369
 NBsUse=   369 1.00D-06 NBFU=   369
 Initial guess read from the read-write file.
 B after Tr=     0.000000    0.000000    0.000000
         Rot=    1.000000    0.000000    0.000000    0.000000 Ang=   0.00 deg.
 Initial guess orbital symmetries:
 Alpha Orbitals:
       Occupied  (A) (A) (A) (A) (A) (A) (A) (A) (A) (A) (A) (A)
                 (A) (A) (A) (A) (A) (A) (A) (A) (A) (A) (A) (A)
                 (A) (A) (A) (A) (A) (A) (A) (A)
       Virtual   (A) (A) (A) (A) (A) (A) (A) (A) (A) (A) (A) (A)
                 (A) (A) (A) (A) (A) (A) (A) (A) (A) (A) (A) (A)
                 (A) (A) (A) (A) (A) (A) (A) (A) (A) (A) (A) (A)
                 (A) (A) (A) (A) (A) (A) (A) (A) (A) (A) (A) (A)
                 (A) (A) (A) (A) (A) (A) (A) (A) (A) (A) (A) (A)
                 (A) (A) (A) (A) (A) (A) (A) (A) (A) (A) (A) (A)
                 (A) (A) (A) (A) (A) (A) (A) (A) (A) (A) (A) (A)
                 (A) (A) (A) (A) (A) (A) (A) (A) (A) (A) (A) (A)
                 (A) (A) (A) (A) (A) (A) (A) (A) (A) (A) (A) (A)
                 (A) (A) (A) (A) (A) (A) (A) (A) (A) (A) (A) (A)
                 (A) (A) (A) (A) (A) (A) (A) (A) (A) (A) (A) (A)
                 (A) (A) (A) (A) (A) (A) (A) (A) (A) (A) (A) (A)
                 (A) (A) (A) (A) (A) (A) (A) (A) (A) (A) (A) (A)
                 (A) (A) (A) (A) (A) (A) (A) (A) (A) (A) (A) (A)
                 (A) (A) (A) (A) (A) (A) (A) (A) (A) (A) (A) (A)
                 (A) (A) (A) (A) (A) (A) (A) (A) (A) (A) (A) (A)
                 (A) (A) (A) (A) (A) (A) (A) (A) (A) (A) (A) (A)
                 (A) (A) (A) (A) (A) (A) (A) (A) (A) (A) (A) (A)
                 (A) (A) (A) (A) (A) (A) (A) (A) (A) (A) (A) (A)
                 (A) (A) (A) (A) (A) (A) (A) (A) (A) (A) (A) (A)
                 (A) (A) (A) (A) (A) (A) (A) (A) (A) (A) (A) (A)
                 (A) (A) (A) (A) (A) (A) (A) (A) (A) (A) (A) (A)
                 (A) (A) (A) (A) (A) (A) (A) (A) (A) (A) (A) (A)
                 (A) (A) (A) (A) (A) (A) (A) (A) (A) (A) (A) (A)
                 (A) (A) (A) (A) (A) (A) (A) (A) (A) (A) (A) (A)
                 (A) (A) (A) (A) (A) (A) (A) (A) (A) (A) (A) (A)
                 (A) (A) (A) (A) (A) (A) (A) (A) (A) (A) (A) (A)
                 (A) (A) (A) (A) (A) (A) (A) (A) (A) (A) (A) (A)
                 (A)
 Beta  Orbitals:
       Occupied  (A) (A) (A) (A) (A) (A) (A) (A) (A) (A) (A) (A)
                 (A) (A) (A) (A) (A) (A) (A) (A) (A) (A) (A) (A)
                 (A) (A) (A) (A) (A) (A) (A)
       Virtual   (A) (A) (A) (A) (A) (A) (A) (A) (A) (A) (A) (A)
                 (A) (A) (A) (A) (A) (A) (A) (A) (A) (A) (A) (A)
                 (A) (A) (A) (A) (A) (A) (A) (A) (A) (A) (A) (A)
                 (A) (A) (A) (A) (A) (A) (A) (A) (A) (A) (A) (A)
                 (A) (A) (A) (A) (A) (A) (A) (A) (A) (A) (A) (A)
                 (A) (A) (A) (A) (A) (A) (A) (A) (A) (A) (A) (A)
                 (A) (A) (A) (A) (A) (A) (A) (A) (A) (A) (A) (A)
                 (A) (A) (A) (A) (A) (A) (A) (A) (A) (A) (A) (A)
                 (A) (A) (A) (A) (A) (A) (A) (A) (A) (A) (A) (A)
                 (A) (A) (A) (A) (A) (A) (A) (A) (A) (A) (A) (A)
                 (A) (A) (A) (A) (A) (A) (A) (A) (A) (A) (A) (A)
                 (A) (A) (A) (A) (A) (A) (A) (A) (A) (A) (A) (A)
                 (A) (A) (A) (A) (A) (A) (A) (A) (A) (A) (A) (A)
                 (A) (A) (A) (A) (A) (A) (A) (A) (A) (A) (A) (A)
                 (A) (A) (A) (A) (A) (A) (A) (A) (A) (A) (A) (A)
                 (A) (A) (A) (A) (A) (A) (A) (A) (A) (A) (A) (A)
                 (A) (A) (A) (A) (A) (A) (A) (A) (A) (A) (A) (A)
                 (A) (A) (A) (A) (A) (A) (A) (A) (A) (A) (A) (A)
                 (A) (A) (A) (A) (A) (A) (A) (A) (A) (A) (A) (A)
                 (A) (A) (A) (A) (A) (A) (A) (A) (A) (A) (A) (A)
                 (A) (A) (A) (A) (A) (A) (A) (A) (A) (A) (A) (A)
                 (A) (A) (A) (A) (A) (A) (A) (A) (A) (A) (A) (A)
                 (A) (A) (A) (A) (A) (A) (A) (A) (A) (A) (A) (A)
                 (A) (A) (A) (A) (A) (A) (A) (A) (A) (A) (A) (A)
                 (A) (A) (A) (A) (A) (A) (A) (A) (A) (A) (A) (A)
                 (A) (A) (A) (A) (A) (A) (A) (A) (A) (A) (A) (A)
                 (A) (A) (A) (A) (A) (A) (A) (A) (A) (A) (A) (A)
                 (A) (A) (A) (A) (A) (A) (A) (A) (A) (A) (A) (A)
                 (A) (A)
 Initial guess <Sx>= 0.0000 <Sy>= 0.0000 <Sz>= 0.5000 <S**2>= 0.7548 S= 0.5024
 Harris functional with IExCor= 1009 diagonalized for initial guess.
 ExpMin= 4.38D-02 ExpMax= 8.59D+03 ExpMxC= 1.30D+03 IAcc=2 IRadAn=         0 AccDes= 0.00D+00
 HarFok:  IExCor= 1009 AccDes= 0.00D+00 IRadAn=         0 IDoV= 1
 ScaDFX=  1.000000  1.000000  1.000000  1.000000
 FoFCou: FMM=F IPFlag=           0 FMFlag=      100000 FMFlg1=           0
         NFxFlg=           0 DoJE=T BraDBF=F KetDBF=T FulRan=T
         Omega=  0.000000  0.000000  1.000000  0.000000  0.000000 ICntrl=     500 IOpCl=  0
         NMat0=    1 NMatS0=    1 NMatT0=    0 NMatD0=    1 NMtDS0=    0 NMtDT0=    0
         I1Cent=           4 NGrid=           0.
 Petite list used in FoFCou.
 Requested convergence on RMS density matrix=1.00D-08 within 128 cycles.
 Requested convergence on MAX density matrix=1.00D-06.
 Requested convergence on             energy=1.00D-06.
 No special actions if energy rises.
 SCF Done:  E(UM062X) =  -384.162383464     A.U. after   16 cycles
             Convg  =    0.4763D-08             -V/T =  2.0039
 <Sx>= 0.0000 <Sy>= 0.0000 <Sz>= 0.5000 <S**2>= 0.7549 S= 0.5025
 <L.S>= 0.000000000000E+00
 Annihilation of the first spin contaminant:
 S**2 before annihilation     0.7549,   after     0.7500
 Calling FoFJK, ICntrl=      2127 FMM=F ISym2X=0 I1Cent= 0 IOpClX= 1 NMat=1 NMatS=1 NMatT=0.
 ***** Axes restored to original set *****
 -------------------------------------------------------------------
 Center     Atomic                   Forces (Hartrees/Bohr)
 Number     Number              X              Y              Z
 -------------------------------------------------------------------
      1        6           0.006936521   -0.001994509    0.006274394
      2        6          -0.001658726   -0.002737205   -0.001087335
      3        6          -0.002119730    0.001294988    0.000373620
      4        6          -0.008627437    0.012409990   -0.020505811
      5        6           0.000621200    0.000366592    0.000049100
      6        6          -0.000363084    0.000109370   -0.000169964
      7        6           0.000262705    0.000080244   -0.000175693
      8        6           0.008705754   -0.016978117    0.017807778
      9        1           0.001769857   -0.004359879    0.004879339
     10        1           0.000823207    0.000378589    0.000084614
     11        1           0.000146740   -0.000029002    0.000213369
[...]
    D5        0.00000   0.00000   0.00000   0.00000   0.00000   0.00000
    D6       -3.14159   0.00000   0.00000   0.00000   0.00000  -3.14159
    D7        3.14159   0.00000   0.00000   0.00000   0.00000   3.14159
    D8        0.00000   0.00000   0.00000   0.00000   0.00000   0.00000
    D9        0.00000   0.00000   0.00000   0.00000   0.00000   0.00000
   D10        3.14159   0.00000   0.00000   0.00000   0.00000   3.14159
   D11       -3.14159   0.00000   0.00000  -0.00001  -0.00001   3.14159
   D12        0.00000   0.00000   0.00000   0.00000   0.00000   0.00000
   D13        0.00000   0.00000   0.00000   0.00000   0.00000   0.00000
   D14        3.14159   0.00000   0.00000   0.00000   0.00000   3.14159
   D15       -3.14159   0.00000   0.00000   0.00000   0.00000  -3.14159
   D16        0.00000   0.00000   0.00000   0.00000   0.00000   0.00000
   D17        0.00000   0.00000   0.00000   0.00000   0.00000   0.00000
   D18       -3.14159   0.00000   0.00000   0.00000   0.00000   3.14159
   D19        3.14159   0.00000   0.00000   0.00000   0.00000   3.14159
   D20        0.00000   0.00000   0.00000   0.00000   0.00000   0.00000
   D21        0.00000   0.00000   0.00000   0.00000   0.00000   0.00000
   D22        3.14159   0.00000   0.00000   0.00000   0.00000   3.14159
   D23        3.14159   0.00000   0.00000   0.00000   0.00000   3.14159
   D24        0.00000   0.00000   0.00000   0.00000   0.00000   0.00000
   D25        0.00000   0.00000   0.00000   0.00000   0.00000   0.00000
   D26        3.14159   0.00000   0.00000   0.00000   0.00000   3.14159
   D27       -3.14159   0.00000   0.00000   0.00000   0.00000  -3.14159
   D28        0.00000   0.00000   0.00000   0.00000   0.00000   0.00000
   D29        0.00000   0.00000   0.00000   0.00000   0.00000   0.00000
   D30        3.14159   0.00000   0.00000   0.00000   0.00000   3.14159
   D31       -3.14159   0.00000   0.00000   0.00000   0.00000  -3.14159
   D32        0.00000   0.00000   0.00000   0.00000   0.00000   0.00000
         Item               Value     Threshold  Converged?
 Maximum Force            0.000000     0.000002     YES
 RMS     Force            0.000000     0.000001     YES
 Maximum Displacement     0.000008     0.000006     NO 
 RMS     Displacement     0.000002     0.000004     YES
 Predicted change in Energy=-4.685649D-13
 GradGradGradGradGradGradGradGradGradGradGradGradGradGradGradGradGradGrad


 Test job not archived.
 1\1\GINC-COMPUTE-3-042\Freq\UM062X\6-311+G(2df,2p)\C8H7O1(2)\ROOT\10-O
 ct-2017\0\\#N Geom=AllCheck Guess=TCheck SCRF=Check Test GenChk UM062X
 /6-311+G(2df,2p) Freq\\InChI=1S/C8H7O/c9-7-6-8-4-2-1-3-5-8/h1-7H/u2\\0
 ,2\C,0.385774622,0.2345521194,-0.1063186135\C,-0.0832659071,-0.9492864
 346,0.5036080132\C,-0.5638735625,1.1348998843,-0.6350739824\C,1.766013
 0077,0.5675113479,-0.2158606492\C,-1.4390273678,-1.2036126986,0.572305
 0406\C,-2.3587294656,-0.3024710867,0.0446120326\C,-1.9151139102,0.8701
 367971,-0.5605702657\C,2.8957638283,-0.1972344822,0.249302343\H,2.0080
 865694,1.5037747084,-0.7046352\H,0.6319975647,-1.6456434482,0.91160885
 33\H,-1.7869043722,-2.1135656473,1.0417510287\H,-3.4179500496,-0.51256
 70498,0.1043791054\H,-2.6277917339,1.5718709974,-0.9713195399\H,-0.215
 0881754,2.0458776481,-1.1050232707\O,2.8444288738,-1.272656165,0.82198
 51757\H,3.8756800783,0.2683135099,0.0489499289\\Version=EM64L-G09RevB.
 01\State=2-A\HF=-384.2002635\S2=0.77573\S2-1=0.\S2A=0.750504\RMSD=1.73
 3e-09\RMSF=3.285e-06\ZeroPoint=0.1263968\Thermal=0.1337725\Dipole=-0.7
 960916,0.8872698,-0.514133\DipoleDeriv=-0.5585673,-0.0866347,0.0185757
 ,-0.0828947,-0.0787996,0.0382605,0.0165735,0.0380751,-0.0191145,0.1764
 686,-0.0455893,0.0371367,0.190538,-0.0653622,0.0014965,-0.0891652,-0.0
 102316,-0.0792134,0.2433544,0.1436672,-0.0590706,-0.0879099,0.0060446,
 -0.068857,0.0647976,-0.057355,-0.0806266,-0.1063375,0.1599682,-0.08628
 43,0.3601605,0.0699527,-0.0686527,-0.1933623,-0.0785968,-0.0594034,-0.
 2753336,0.1179143,-0.0703547,0.1618703,0.0399745,-0.0821778,-0.0938666
 ,-0.084361,-0.0882296,0.0599532,0.0240421,-0.00464,0.0058898,0.0439389
 ,-0.0796601,0.0050695,-0.0787585,-0.0631571,-0.1424954,-0.1666192,0.08
 873,-0.2430433,-0.0840167,-0.0391186,0.1296086,-0.0353229,-0.1092506,1
 .3144102,-0.0064258,0.0621824,-0.6511543,0.7240345,-0.3492384,0.407038
 6,-0.3172159,0.3214759,0.0126547,-0.0060404,-0.0020318,-0.0492781,-0.0
 166467,0.069903,0.0210962,0.0720512,0.0811246,0.1043419,0.0169445,-0.0
 10288,-0.0018717,0.0799827,0.0261229,-0.0002234,0.0270575,0.1145105,0.
 0453418,-0.0313919,0.0124787,-0.0486492,-0.0051189,0.071017,0.0217094,
 0.0718741,0.0948014,-0.0531582,-0.0272424,0.0053433,-0.0271895,0.08032
 23,0.0266323,0.005315,0.0266297,0.1186574,0.0051296,0.0501677,-0.03333
 22,0.0588966,0.0300561,0.0595696,-0.0380012,0.0591361,0.1024361,0.0393
 158,-0.0551285,0.0250278,-0.0280887,-0.0005009,0.067931,0.0105644,0.06
 65881,0.0940148,-0.6475766,0.0244211,-0.0288759,0.5842985,-0.8163614,0
 .2896068,-0.3283476,0.2617986,-0.4855276,-0.2175017,-0.1120528,0.04540
 27,-0.1415743,-0.0074999,0.0371649,0.0611935,0.0386312,0.0575022\Polar
 =152.88087,-0.2185224,90.269209,5.0231925,-19.3577939,64.7030343\PG=C0
 1 [X(C8H7O1)]\NImag=0\\0.59895266,0.00947685,0.54311204,0.01709896,-0.
 20839216,0.26494993,-0.11551254,-0.01453516,0.00559824,0.72749884,-0.0
 3419283,-0.23444935,0.08535844,-0.03901621,0.55482699,0.01611299,0.086
 33484,-0.11707225,0.04979269,-0.22105465,0.26589181,-0.15611364,0.0574
 7663,-0.03494637,0.05442551,0.02866738,-0.01304132,0.69073790,0.080293
 49,-0.19377099,0.06938975,0.00807815,-0.03018352,0.02096863,0.05736729
 ,0.58402997,-0.04715096,0.06825647,-0.11035135,-0.00202831,0.02199132,
 -0.00359557,-0.00348616,-0.23298053,0.26758167,-0.22990900,-0.02999929
 ,0.00723927,-0.02825885,-0.03334717,0.01623697,-0.06793559,0.01418592,
 -0.01124891,0.60103641,-0.05124735,-0.10776379,0.02696485,-0.03337651,
 -0.00475314,0.00300062,0.01929369,0.01124893,-0.00197028,0.02753104,0.
 52474779,0.01860478,0.02802018,-0.06665676,0.01625268,0.00300209,0.003
 15741,-0.01398105,-0.00222396,0.00626895,0.00991349,-0.22318435,0.2248
 0906,-0.02451621,-0.07236417,0.03703973,-0.34325243,-0.00748838,-0.009
 78909,-0.06360181,0.01172603,-0.00910331,0.01708808,-0.00040048,0.0007
 9942,0.67524316,-0.02761050,0.01200344,-0.00295165,-0.07766385,-0.1276
 8046,0.02938954,0.01674009,-0.00628022,0.00065952,-0.00387081,-0.00442
 694,0.00501361,0.03949724,0.60785860,0.01310139,-0.00517459,0.01246758
 ,0.02774707,0.03287513,-0.08173003,-0.01178526,0.00041047,-0.00740663,
 0.00265569,0.00518601,0.00266368,0.00546957,-0.24841044,0.27292096,0.0
 0740728,0.01285053,-0.00606391,-0.05052671,0.00955805,-0.00801644,-0.0
 0635748,-0.03308491,0.01696307,-0.00922190,0.00040363,-0.00062272,-0.2
 1407919,0.11748315,-0.07016271,0.73958093,0.01559578,-0.04920697,0.022
 33712,0.06235448,0.04644363,-0.01749893,-0.08831364,0.00680648,-0.0035
 2614,-0.00293992,-0.00234836,0.00055862,0.04289847,-0.20389964,0.07553
 775,0.02777359,0.54529913,-0.00753232,0.02220079,-0.02114403,-0.036256
 72,-0.02012129,0.01690027,0.04650436,-0.00078298,0.01114358,0.00116571
 ,0.00072466,-0.00136077,-0.03026812,0.07924233,-0.11055148,0.01480173,
 -0.21408217,0.25773003,-0.06008613,0.04228437,-0.02608267,-0.04200421,
 -0.02692434,0.01261080,-0.34866736,-0.07486334,0.02599510,0.01437668,0
 .00562798,-0.00255033,0.07153040,0.00054486,0.00286169,-0.15058928,-0.
 01259269,0.00253633,0.71149474,-0.00483602,0.03939530,-0.01613504,-0.0
 3166170,-0.02267480,0.00737315,-0.00303958,-0.12500510,0.03150291,0.01
 261704,-0.00008778,0.00340924,0.04848877,-0.03921584,0.02768937,-0.087
 06353,-0.25693380,0.09778124,-0.03116839,0.57597795,-0.00087843,-0.013
 79464,0.01701416,0.01514475,0.00760844,-0.00926778,-0.01242275,0.02793
 549,-0.08138623,-0.00628870,0.00306212,0.00316412,-0.02278303,0.025308
 03,-0.00662061,0.04237005,0.10148018,-0.11821920,0.04515286,-0.2357745
 5,0.26643785,-0.02640130,0.01492277,-0.00959544,-0.00076541,0.00129083
 ,-0.00063539,-0.00103460,-0.00287039,0.00123202,-0.23018638,0.06441694
 ,-0.04251000,0.00091147,-0.00088606,0.00056441,0.00143278,0.00107139,-
 0.00050502,-0.00129511,0.00161795,-0.00089160,0.61048598,0.01880867,0.
 01887677,-0.00590883,-0.00263281,-0.00326927,0.00061536,-0.01211477,0.
 00294149,0.00053803,0.00185107,-0.10745850,0.02118814,0.00264057,-0.00
 127852,0.00032853,-0.00347261,-0.00163971,0.00073808,0.00371407,0.0018
 9728,-0.00124124,0.06278475,0.69597905,-0.01167408,-0.00610178,0.00876
 761,0.00146334,0.00081028,-0.00223507,0.00617673,0.00099721,0.00484574
 ,-0.00904399,0.02429525,-0.08146290,-0.00132198,0.00015336,-0.00105722
 ,0.00192553,0.00096378,-0.00035727,-0.00201279,-0.00134538,-0.00014849
 ,-0.01162090,-0.27914829,0.31700635,-0.00318566,-0.02594123,0.01347468
 ,-0.00550613,0.00019781,-0.00059917,0.00034367,-0.00187506,0.00116154,
 -0.07137839,-0.05456188,0.02710827,0.00026166,-0.00146468,0.00080777,-
 0.00001544,-0.00001590,-0.00000316,0.00020241,0.00054234,-0.00029222,0
 .01071386,0.02261714,-0.01177298,0.07481689,-0.00094343,-0.00379982,0.
 00460042,-0.00070042,0.00211919,0.00119970,0.00222651,-0.00017691,-0.0
 0131887,-0.05330727,-0.26140659,0.12135771,0.00013100,-0.00041863,0.00
 010847,0.00013952,0.00023026,0.00000115,-0.00036404,0.00019500,0.00000
 883,-0.00953920,-0.01039806,0.00732171,0.05741847,0.27370766,0.0001036
 2,0.00335883,0.00309700,-0.00011873,0.00124431,0.00375566,-0.00103235,
 -0.00152259,-0.00208621,0.02643718,0.12129549,-0.09313967,-0.00004574,
 0.00002921,-0.00024591,-0.00008629,-0.00000657,0.00021868,0.00019259,0
 .00005385,0.00022607,0.00542716,0.00891875,-0.00032513,-0.02789202,-0.
 13390848,0.08826911,0.01166694,-0.00893467,0.00517597,-0.18370115,0.12
 689366,-0.07490349,0.00025886,-0.00321178,0.00142627,0.00050780,0.0014
 2304,-0.00060642,-0.01303642,0.01896543,-0.01110445,-0.00466913,-0.001
 71565,0.00027536,-0.00067127,-0.00119527,0.00065080,0.00069789,-0.0040
 5040,0.00215168,-0.00010273,0.00021024,-0.00010237,0.19462210,0.017955
 73,-0.01226388,0.00941793,0.12325612,-0.17916677,0.07939602,-0.0029446
 7,-0.00197105,0.00418775,0.00041056,0.00005571,-0.00140436,-0.00665054
 ,0.01007940,-0.00235613,-0.00239248,0.00214769,0.00315216,-0.00062305,
 -0.00029791,-0.00035407,-0.00106058,-0.00147481,0.00126913,0.00003785,
 -0.00002720,-0.00014708,-0.13201773,0.18320935,-0.00920744,0.00808232,
 -0.00110447,-0.07295778,0.07957669,-0.08836630,0.00128337,0.00417448,0
 .00396243,-0.00006484,-0.00135408,-0.00188687,0.00259727,-0.00108380,0
 .00700078,0.00063738,0.00318576,0.00659057,0.00034473,-0.00038248,-0.0
 0068030,0.00055245,0.00112064,0.00042438,-0.00001017,-0.00013852,-0.00
 023209,0.07892418,-0.08993523,0.07935599,-0.00578786,-0.00055747,-0.00
 040877,-0.00536722,-0.02731001,0.01412567,-0.00126508,0.00046805,-0.00
 026911,0.00021905,-0.00132891,0.00071987,-0.08870978,-0.07585475,0.038
 17649,0.01115556,0.01886966,-0.00973089,-0.00231897,0.00297669,-0.0020
 5725,0.00019065,-0.00027039,0.00014782,-0.00045569,-0.00012606,0.00006
 409,0.00107020,0.00048092,0.00003347,0.09006299,-0.00088863,0.00322035
 ,0.00275077,-0.00027570,-0.00057919,0.00261791,0.00063979,0.00025328,-
 0.00057848,0.00009252,-0.00008307,0.00006876,-0.07590098,-0.25492638,0
 .11095603,-0.00853484,-0.01218125,0.00815704,0.00324837,0.00039461,0.0
 0371789,0.00013390,-0.00013163,0.00014467,-0.00005454,-0.00008957,-0.0
 0016265,-0.00000484,-0.00058538,-0.00224530,0.08190344,0.26573994,-0.0
 0023164,0.00276721,0.00695388,-0.00033472,0.00127514,0.00364203,-0.000
 36097,-0.00058701,-0.00059157,-0.00004044,-0.00000184,0.00003587,0.038
 20121,0.11095832,-0.09789431,0.00492751,0.00951821,-0.00098522,-0.0022
 0256,0.00370440,0.00495289,-0.00006843,0.00012459,0.00005638,0.0000258
 4,-0.00016620,-0.00029840,0.00029330,-0.00222118,-0.00357997,-0.040701
 33,-0.12336997,0.09145678,0.00062054,0.00046363,-0.00015479,-0.0009167
 7,0.00329634,-0.00215655,0.00147771,-0.00175921,0.00066081,0.00008319,
 -0.00001665,0.00004835,-0.01475027,-0.00649344,0.00247954,-0.32937712,
 -0.05391016,0.01446783,-0.00506463,0.00034411,-0.00069072,0.00002085,0
 .00019479,-0.00011687,-0.00001110,-0.00001751,0.00001086,-0.00061044,-
 0.00044875,0.00022832,0.00076438,0.00023859,0.00010420,0.34782438,0.00
 038425,-0.00126731,0.00002521,0.00297769,-0.00103898,0.00444945,-0.001
 47466,-0.00280645,0.00523550,-0.00012493,-0.00005007,-0.00035971,0.020
 46173,0.00905834,-0.00101718,-0.05383481,-0.06707141,0.01175146,-0.026
 55462,0.00051160,0.00115453,0.00001054,-0.00011226,0.00020826,0.000081
 40,0.00002391,-0.00003082,0.00088635,0.00024460,-0.00028720,-0.0004891
 6,-0.00023664,-0.00198533,0.05828386,0.06291137,-0.00011233,0.00002916
 ,-0.00127705,-0.00198611,0.00446527,0.00451587,0.00050861,0.00522137,0
 .00435089,0.00010627,-0.00035433,-0.00051616,-0.01193850,-0.00235603,0
 .00592385,0.01442752,0.01174772,-0.04566964,0.01369715,0.00249058,0.00
 448403,-0.00001832,0.00021742,0.00015892,-0.00004204,-0.00003573,-0.00
 002424,-0.00048581,-0.00035351,-0.00020967,0.00049346,-0.00194918,-0.0
 0283577,-0.01518275,-0.01693263,0.03414590,-0.00464025,-0.00279279,0.0
 0084940,-0.00046495,-0.00078008,0.00044283,-0.01530691,0.02186291,-0.0
 1265181,-0.00050341,0.00133247,-0.00074219,0.00044574,-0.00254692,0.00
 102912,0.01114104,-0.00791366,0.00459887,-0.18167071,0.11945668,-0.070
 97183,-0.00019788,-0.00044866,0.00024802,-0.00002505,-0.00004311,0.000
 01905,0.00002594,0.00011743,-0.00000578,0.00038419,-0.00046437,0.00026
 429,0.00056997,0.00057516,-0.00008440,0.18935303,-0.00210226,0.0025676
 9,0.00298004,-0.00097168,-0.00042251,-0.00034643,-0.00548002,0.0081542
 2,-0.00250951,-0.00011321,0.00028976,-0.00011259,-0.00289945,-0.001994
 70,0.00474967,0.01927511,-0.01181259,0.00929443,0.11954167,-0.17355898
 ,0.07779563,-0.00019016,-0.00001830,-0.00019206,0.00000206,0.00000252,
 0.00002858,0.00008994,-0.00020846,-0.00048432,0.00095896,-0.00065904,0
 .00043442,-0.00013874,-0.00009038,-0.00205781,-0.12845796,0.17832882,0
 .00048005,0.00294574,0.00678242,0.00054532,-0.00033691,-0.00077266,0.0
 0197366,-0.00115139,0.00468536,0.00003109,-0.00004078,0.00011313,0.001
 21768,0.00476717,0.00466481,-0.00994415,0.00794398,-0.00096922,-0.0710
 1729,0.07779140,-0.08435453,0.00010975,-0.00020490,-0.00024465,-0.0000
 0511,0.00002634,0.00004142,0.00000892,-0.00048295,-0.00086350,-0.00049
 704,0.00036372,-0.00015517,0.00029746,-0.00202235,-0.00282815,0.076793
 52,-0.08752497,0.07725621,0.00899139,0.01681774,-0.00870987,-0.0025963
 3,0.00280949,-0.00191067,-0.08750298,-0.07518132,0.03779167,0.00114041
 ,0.00194793,-0.00083998,-0.00105302,0.00045167,-0.00024835,-0.00587607
 ,-0.00060171,-0.00035749,-0.00439794,-0.02708543,0.01400553,-0.0000180
 2,0.00004247,-0.00002790,-0.00053717,-0.00023865,0.00009495,0.00052901
 ,0.00086950,-0.00045734,0.00009500,-0.00003990,0.00007583,-0.00034679,
 -0.00134286,0.00071063,0.00101746,0.00046137,0.00003184,0.09058285,-0.
 00779992,-0.01306718,0.00833394,0.00342024,-0.00008025,0.00321682,-0.0
 7488012,-0.25197291,0.11033769,-0.00230480,-0.00037630,-0.00147793,0.0
 0057453,0.00007334,-0.00050119,-0.00111753,0.00305900,0.00248104,0.000
 28145,-0.00029278,0.00301109,0.00031253,0.00004832,0.00003588,0.000819
 24,0.00053240,-0.00017924,-0.00065925,-0.00059895,0.00048710,-0.000050
 98,-0.00026600,-0.00039622,0.00010792,-0.00022367,0.00002190,-0.000121
 45,-0.00054117,-0.00217286,0.08136457,0.26331142,0.00445788,0.00955669
 ,-0.00165259,-0.00223736,0.00318648,0.00380058,0.03763057,0.11032274,-
 0.09588014,0.00143475,-0.00126671,-0.00217653,-0.00031407,-0.00050729,
 -0.00066125,-0.00008159,0.00250666,0.00645635,-0.00063276,0.00165179,0
 .00439548,-0.00017235,0.00002246,0.00006581,-0.00047090,-0.00023179,0.
 00022182,0.00036038,0.00056303,0.00008967,0.00008176,-0.00039567,-0.00
 078632,-0.00006538,-0.00005016,-0.00016917,0.00034359,-0.00214391,-0.0
 0342832,-0.04030157,-0.12302102,0.08956402,0.00060633,-0.00369103,0.00
 215537,-0.00382959,-0.00382132,0.00176557,0.00142177,-0.00005212,0.000
 13028,0.02462312,0.03153940,-0.01646465,-0.00219045,0.00261197,-0.0015
 2081,-0.00009865,-0.00059576,0.00032344,-0.00035697,-0.00025132,0.0001
 1171,-0.11015875,-0.02510552,0.01082073,-0.00523716,0.00434742,-0.0027
 5196,-0.00670312,0.00294282,-0.00186976,0.00000361,-0.00006466,0.00003
 341,-0.00024968,0.00016091,-0.00009569,0.00004165,0.00005292,-0.000029
 69,-0.00002528,-0.00000768,0.00000197,0.09197583,-0.01466801,-0.002809
 81,-0.00085119,0.00078464,0.00140456,0.00023782,0.00543335,-0.00139761
 ,0.00067508,0.05389176,-0.05830238,0.04266547,-0.00054927,0.00067318,-
 0.00022694,0.00217211,0.00120361,-0.00064016,-0.00231879,-0.00012155,0
 .00000361,-0.05657445,-0.51211280,0.24028023,0.00281680,-0.00050460,0.
 00220253,0.00295161,0.00069880,-0.00062841,0.00029759,0.00014138,-0.00
 004624,-0.00012681,0.00014398,-0.00011327,0.00016544,-0.00007160,0.000
 08366,-0.00025787,0.00040318,-0.00021890,0.02552332,0.59985215,0.00802
 686,-0.00030603,-0.00247687,-0.00069813,0.00000904,0.00173678,-0.00280
 384,0.00040265,-0.00099466,-0.02842073,0.04155541,-0.00718011,0.000170
 11,-0.00006994,0.00034578,-0.00115706,-0.00077763,0.00016358,0.0012175
 7,0.00010630,0.00010413,0.02765317,0.24184309,-0.18563187,-0.00193323,
 0.00227853,0.00203680,-0.00187445,-0.00062883,-0.00050683,-0.00016036,
 -0.00006423,0.00005369,0.00005821,-0.00009897,-0.00000017,-0.00008987,
 0.00007807,0.00002322,0.00013579,-0.00020648,0.00013505,-0.01020326,-0
 .30753616,0.18652166,-0.00209256,0.00452328,-0.00266979,0.00077794,0.0
 0016679,-0.00003540,-0.00088000,-0.00108372,0.00057780,-0.02168122,-0.
 01258433,0.00487048,-0.00029093,0.00009661,-0.00007113,0.00009338,0.00
 003573,-0.00001991,-0.00048165,0.00025765,-0.00015918,-0.25439605,-0.0
 6455838,0.02465765,0.00011603,0.00080655,-0.00032003,0.00011553,0.0000
 6686,-0.00002807,-0.00004103,-0.00002813,0.00001450,-0.00003421,-0.000
 00086,0.00000231,-0.00016986,-0.00002855,0.00000398,-0.00000254,0.0000
 6125,-0.00003492,0.01017734,-0.01954142,0.01007922,0.26878983,0.001774
 18,-0.00077649,0.00208041,-0.00003726,-0.00049612,0.00010014,0.0004027
 0,0.00013039,-0.00050047,0.01542749,0.01071475,0.00347907,-0.00016506,
 0.00037502,-0.00015496,-0.00015498,-0.00009607,0.00010222,0.00016651,-
 0.00018320,0.00007866,-0.07544078,-0.08184907,0.01030774,-0.00061980,0
 .00001044,-0.00117411,0.00036933,0.00015885,-0.00008765,0.00003243,-0.
 00001142,-0.00000830,-0.00001798,0.00000337,-0.00004092,0.00005891,0.0
 0003472,0.00001511,-0.00001700,-0.00000845,0.00002559,-0.03358935,-0.0
 2920051,0.02341519,0.09181067,0.10119380,-0.00119933,0.00221697,0.0017
 0277,0.00007375,0.00011024,-0.00036074,-0.00021724,-0.00057433,-0.0005
 4626,-0.01011280,0.00208795,0.01416754,0.00006886,-0.00014193,0.000179
 98,0.00008208,0.00011166,0.00005377,-0.00011041,0.00008322,-0.00010159
 ,0.03047849,0.01084816,-0.05986259,0.00044293,-0.00110326,-0.00151491,
 -0.00018986,-0.00010268,0.00000619,-0.00001789,-0.00001130,-0.00002479
 ,0.00001147,-0.00004007,-0.00004945,-0.00004280,0.00001076,0.00004961,
 0.00000693,0.00002948,0.00002555,0.01759334,0.02411286,0.00566981,-0.0
 3686750,-0.03763773,0.04060511\\-0.00000055,0.00000071,-0.00000045,0.0
 0000241,-0.00000013,0.00000018,-0.00000294,-0.00000117,0.00000048,-0.0
 0000137,0.00000354,-0.00000186,0.00000300,-0.00000278,0.00000166,0.000
 00065,-0.00000470,0.00000254,-0.00000231,-0.00000384,0.00000193,0.0000
 0067,0.00000576,-0.00000295,-0.00000373,0.00000391,-0.00000229,0.00000
 423,0.00000135,-0.00000051,0.00000529,-0.00000344,0.00000210,0.0000011
 2,-0.00000677,0.00000367,-0.00000415,-0.00000530,0.00000262,-0.0000052
 2,-0.00000053,0.00000002,0.00000339,0.00000573,-0.00000294,-0.00000048
 ,0.00000766,-0.00000420\\\@


 ALL THINGS ARE POSSIBLE EXCEPT SKIING THROUGH A REVOLVING DOOR.
 Job cpu time:  0 days  9 hours  6 minutes  6.7 seconds.
 File lengths (MBytes):  RWF=   2656 Int=      0 D2E=      0 Chk=     32 Scr=     32
 Normal termination of Gaussian 09 at Tue Oct 10 13:08:46 2017.
