 Entering Gaussian System, Link 0=/shared/apps/gaussian/G09_LINUX_LINDA/g09/g09
 Input=/gss_gpfs_scratch/westgroup/QMscratch/AFGNKOJNKXOJEU-UHFFFAOYSA-u1.gjf
 Output=/gss_gpfs_scratch/westgroup/QMscratch/AFGNKOJNKXOJEU-UHFFFAOYSA-u1.log
 Initial command:
 /shared/apps/gaussian/G09_LINUX_LINDA/g09/l1.exe /gss_gpfs_scratch/westgroup/rwest-autotst-1/Gau-22217.inp -scrdir=/gss_gpfs_scratch/westgroup/rwest-autotst-1/
 Entering Link 1 = /shared/apps/gaussian/G09_LINUX_LINDA/g09/l1.exe PID=     22218.
  
 Copyright (c) 1988,1990,1992,1993,1995,1998,2003,2009,2010,
            Gaussian, Inc.  All Rights Reserved.
  
 This is part of the Gaussian(R) 09 program.  It is based on
 the Gaussian(R) 03 system (copyright 2003, Gaussian, Inc.),
 the Gaussian(R) 98 system (copyright 1998, Gaussian, Inc.),
 the Gaussian(R) 94 system (copyright 1995, Gaussian, Inc.),
 the Gaussian 92(TM) system (copyright 1992, Gaussian, Inc.),
 the Gaussian 90(TM) system (copyright 1990, Gaussian, Inc.),
 the Gaussian 88(TM) system (copyright 1988, Gaussian, Inc.),
 the Gaussian 86(TM) system (copyright 1986, Carnegie Mellon
 University), and the Gaussian 82(TM) system (copyright 1983,
 Carnegie Mellon University). Gaussian is a federally registered
 trademark of Gaussian, Inc.
  
 This software contains proprietary and confidential information,
 including trade secrets, belonging to Gaussian, Inc.
  
 This software is provided under written license and may be
 used, copied, transmitted, or stored only in accord with that
 written license.
  
 The following legend is applicable only to US Government
 contracts under FAR:
  
                    RESTRICTED RIGHTS LEGEND
  
 Use, reproduction and disclosure by the US Government is
 subject to restrictions as set forth in subparagraphs (a)
 and (c) of the Commercial Computer Software - Restricted
 Rights clause in FAR 52.227-19.
  
 Gaussian, Inc.
 340 Quinnipiac St., Bldg. 40, Wallingford CT 06492
  
  
 ---------------------------------------------------------------
 Warning -- This program may not be used in any manner that
 competes with the business of Gaussian, Inc. or will provide
 assistance to any competitor of Gaussian, Inc.  The licensee
 of this program is prohibited from giving any competitor of
 Gaussian, Inc. access to this program.  By using this program,
 the user acknowledges that Gaussian, Inc. is engaged in the
 business of creating and licensing software in the field of
 computational chemistry and represents and warrants to the
 licensee that it is not a competitor of Gaussian, Inc. and that
 it will not use this program in any manner prohibited above.
 ---------------------------------------------------------------
  

 Cite this work as:
 Gaussian 09, Revision B.01,
 M. J. Frisch, G. W. Trucks, H. B. Schlegel, G. E. Scuseria, 
 M. A. Robb, J. R. Cheeseman, G. Scalmani, V. Barone, B. Mennucci, 
 G. A. Petersson, H. Nakatsuji, M. Caricato, X. Li, H. P. Hratchian, 
 A. F. Izmaylov, J. Bloino, G. Zheng, J. L. Sonnenberg, M. Hada, 
 M. Ehara, K. Toyota, R. Fukuda, J. Hasegawa, M. Ishida, T. Nakajima, 
 Y. Honda, O. Kitao, H. Nakai, T. Vreven, J. A. Montgomery, Jr., 
 J. E. Peralta, F. Ogliaro, M. Bearpark, J. J. Heyd, E. Brothers, 
 K. N. Kudin, V. N. Staroverov, T. Keith, R. Kobayashi, J. Normand, 
 K. Raghavachari, A. Rendell, J. C. Burant, S. S. Iyengar, J. Tomasi, 
 M. Cossi, N. Rega, J. M. Millam, M. Klene, J. E. Knox, J. B. Cross, 
 V. Bakken, C. Adamo, J. Jaramillo, R. Gomperts, R. E. Stratmann, 
 O. Yazyev, A. J. Austin, R. Cammi, C. Pomelli, J. W. Ochterski, 
 R. L. Martin, K. Morokuma, V. G. Zakrzewski, G. A. Voth, 
 P. Salvador, J. J. Dannenberg, S. Dapprich, A. D. Daniels, 
 O. Farkas, J. B. Foresman, J. V. Ortiz, J. Cioslowski, 
 and D. J. Fox, Gaussian, Inc., Wallingford CT, 2010.
 
 ******************************************
 Gaussian 09:  EM64L-G09RevB.01 12-Aug-2010
                14-Mar-2017 
 ******************************************
 %nprocshared=20
 Will use up to   20 processors via shared memory.
 %mem=5GB
 --------------------------------------------------------------
 # m062x/6-311+g(2df,2p) opt=(verytight,gdiis) freq IOP(2/16=3)
 --------------------------------------------------------------

 Warning!  Use of Opt=GDIIS is deprecated since it is seldom a good choice.

 1/7=1,14=-1,18=20,19=11,26=3,38=1/1,3;
 2/9=110,12=2,16=3,17=6,18=5,40=1/2;
 3/5=4,6=6,7=214,11=2,16=1,25=1,30=1,71=1,74=-55/1,2,3;
 4//1;
 5/5=2,38=5/2;
 6/7=2,8=2,9=2,10=2,28=1/1;
 7//1,2,3,16;
 1/7=1,14=-1,18=20,19=11/3(2);
 2/9=110,16=3/2;
 99//99;
 2/9=110,16=3/2;
 3/5=4,6=6,7=214,11=2,16=1,25=1,30=1,71=1,74=-55/1,2,3;
 4/5=5,16=3/1;
 5/5=2,38=5/2;
 7//1,2,3,16;
 1/7=1,14=-1,18=20,19=11/3(-5);
 2/9=110,16=3/2;
 6/7=2,8=2,9=2,10=2,19=2,28=1/1;
 99/9=1/99;
 -------------------------------------------------
 InChI=1S/C6H11O/c1-4-6(7)5(2)3/h5H,1,4H2,2-3H3/u1
 -------------------------------------------------
 Symbolic Z-matrix:
 Charge =  0 Multiplicity = 2
 C                    -0.6573    0.1443    0.5067 
 C                     1.6984   -0.8204   -0.1198 
 C                    -1.2196    1.397    -0.1726 
 C                    -1.7878   -0.7588    1.0098 
 C                     0.2445   -0.6136   -0.4422 
 C                     2.4349    0.5111   -0.098 
 H                    -0.0669    0.4722    1.391 
 H                     1.7864   -1.3083    0.8741 
 H                     2.1712   -1.484    -0.8766 
 H                    -1.8387    1.9755    0.5458 
 H                    -0.3883    2.0488   -0.5173 
 H                    -1.8484    1.1239   -1.0474 
 H                    -2.4139   -0.2119    1.7468 
 H                    -2.4338   -1.0899    0.1682 
 H                    -1.364    -1.6549    1.5117 
 O                    -0.2114   -1.0749   -1.4789 
 H                     2.4007    0.9896   -1.1001 
 H                     3.4939    0.3544    0.1967 
 

 GradGradGradGradGradGradGradGradGradGradGradGradGradGradGradGradGradGrad
 Berny optimization.
 Initialization pass.
                           ----------------------------
                           !    Initial Parameters    !
                           ! (Angstroms and Degrees)  !
 --------------------------                            --------------------------
 ! Name  Definition              Value          Derivative Info.                !
 --------------------------------------------------------------------------------
 ! R1    R(1,3)                  1.532          estimate D2E/DX2                !
 ! R2    R(1,4)                  1.5319         estimate D2E/DX2                !
 ! R3    R(1,5)                  1.5126         estimate D2E/DX2                !
 ! R4    R(1,7)                  1.1127         estimate D2E/DX2                !
 ! R5    R(2,5)                  1.5035         estimate D2E/DX2                !
 ! R6    R(2,6)                  1.5218         estimate D2E/DX2                !
 ! R7    R(2,8)                  1.1107         estimate D2E/DX2                !
 ! R8    R(2,9)                  1.112          estimate D2E/DX2                !
 ! R9    R(3,10)                 1.1109         estimate D2E/DX2                !
 ! R10   R(3,11)                 1.1112         estimate D2E/DX2                !
 ! R11   R(3,12)                 1.1114         estimate D2E/DX2                !
 ! R12   R(4,13)                 1.111          estimate D2E/DX2                !
 ! R13   R(4,14)                 1.1114         estimate D2E/DX2                !
 ! R14   R(4,15)                 1.1111         estimate D2E/DX2                !
 ! R15   R(5,16)                 1.2229         estimate D2E/DX2                !
 ! R16   R(6,17)                 1.111          estimate D2E/DX2                !
 ! R17   R(6,18)                 1.1104         estimate D2E/DX2                !
 ! A1    A(3,1,4)              110.9051         estimate D2E/DX2                !
 ! A2    A(3,1,5)              110.5101         estimate D2E/DX2                !
 ! A3    A(3,1,7)              107.8297         estimate D2E/DX2                !
 ! A4    A(4,1,5)              110.5241         estimate D2E/DX2                !
 ! A5    A(4,1,7)              107.7158         estimate D2E/DX2                !
 ! A6    A(5,1,7)              109.261          estimate D2E/DX2                !
 ! A7    A(5,2,6)              110.532          estimate D2E/DX2                !
 ! A8    A(5,2,8)              109.2033         estimate D2E/DX2                !
 ! A9    A(5,2,9)              110.3211         estimate D2E/DX2                !
 ! A10   A(6,2,8)              109.4624         estimate D2E/DX2                !
 ! A11   A(6,2,9)              109.0326         estimate D2E/DX2                !
 ! A12   A(8,2,9)              108.2503         estimate D2E/DX2                !
 ! A13   A(1,3,10)             110.0983         estimate D2E/DX2                !
 ! A14   A(1,3,11)             110.0362         estimate D2E/DX2                !
 ! A15   A(1,3,12)             110.8394         estimate D2E/DX2                !
 ! A16   A(10,3,11)            108.1845         estimate D2E/DX2                !
 ! A17   A(10,3,12)            108.7642         estimate D2E/DX2                !
 ! A18   A(11,3,12)            108.8584         estimate D2E/DX2                !
 ! A19   A(1,4,13)             110.0931         estimate D2E/DX2                !
 ! A20   A(1,4,14)             110.8473         estimate D2E/DX2                !
 ! A21   A(1,4,15)             110.0188         estimate D2E/DX2                !
 ! A22   A(13,4,14)            108.749          estimate D2E/DX2                !
 ! A23   A(13,4,15)            108.1988         estimate D2E/DX2                !
 ! A24   A(14,4,15)            108.8745         estimate D2E/DX2                !
 ! A25   A(1,5,2)              120.7243         estimate D2E/DX2                !
 ! A26   A(1,5,16)             119.905          estimate D2E/DX2                !
 ! A27   A(2,5,16)             119.3679         estimate D2E/DX2                !
 ! A28   A(2,6,17)             110.4274         estimate D2E/DX2                !
 ! A29   A(2,6,18)             109.9934         estimate D2E/DX2                !
 ! A30   A(17,6,18)            109.2406         estimate D2E/DX2                !
 ! D1    D(4,1,3,10)            59.9524         estimate D2E/DX2                !
 ! D2    D(4,1,3,11)           179.107          estimate D2E/DX2                !
 ! D3    D(4,1,3,12)           -60.4318         estimate D2E/DX2                !
 ! D4    D(5,1,3,10)          -177.1189         estimate D2E/DX2                !
 ! D5    D(5,1,3,11)           -57.9644         estimate D2E/DX2                !
 ! D6    D(5,1,3,12)            62.4968         estimate D2E/DX2                !
 ! D7    D(7,1,3,10)           -57.7595         estimate D2E/DX2                !
 ! D8    D(7,1,3,11)            61.3951         estimate D2E/DX2                !
 ! D9    D(7,1,3,12)          -178.1437         estimate D2E/DX2                !
 ! D10   D(3,1,4,13)           -60.0635         estimate D2E/DX2                !
 ! D11   D(3,1,4,14)            60.3034         estimate D2E/DX2                !
 ! D12   D(3,1,4,15)          -179.2216         estimate D2E/DX2                !
 ! D13   D(5,1,4,13)           177.016          estimate D2E/DX2                !
 ! D14   D(5,1,4,14)           -62.6172         estimate D2E/DX2                !
 ! D15   D(5,1,4,15)            57.8578         estimate D2E/DX2                !
 ! D16   D(7,1,4,13)            57.7179         estimate D2E/DX2                !
 ! D17   D(7,1,4,14)           178.0847         estimate D2E/DX2                !
 ! D18   D(7,1,4,15)           -61.4402         estimate D2E/DX2                !
 ! D19   D(3,1,5,2)            118.4436         estimate D2E/DX2                !
 ! D20   D(3,1,5,16)           -62.175          estimate D2E/DX2                !
 ! D21   D(4,1,5,2)           -118.4062         estimate D2E/DX2                !
 ! D22   D(4,1,5,16)            60.9751         estimate D2E/DX2                !
 ! D23   D(7,1,5,2)             -0.0469         estimate D2E/DX2                !
 ! D24   D(7,1,5,16)           179.3345         estimate D2E/DX2                !
 ! D25   D(6,2,5,1)            -65.171          estimate D2E/DX2                !
 ! D26   D(6,2,5,16)           115.4443         estimate D2E/DX2                !
 ! D27   D(8,2,5,1)             55.3064         estimate D2E/DX2                !
 ! D28   D(8,2,5,16)          -124.0783         estimate D2E/DX2                !
 ! D29   D(9,2,5,1)            174.1628         estimate D2E/DX2                !
 ! D30   D(9,2,5,16)            -5.2218         estimate D2E/DX2                !
 ! D31   D(5,2,6,17)           -62.529          estimate D2E/DX2                !
 ! D32   D(5,2,6,18)           176.8266         estimate D2E/DX2                !
 ! D33   D(8,2,6,17)           177.1485         estimate D2E/DX2                !
 ! D34   D(8,2,6,18)            56.5041         estimate D2E/DX2                !
 ! D35   D(9,2,6,17)            58.9025         estimate D2E/DX2                !
 ! D36   D(9,2,6,18)           -61.7419         estimate D2E/DX2                !
 --------------------------------------------------------------------------------
 Trust Radius=3.00D-01 FncErr=1.00D-07 GrdErr=1.00D-06
 Number of steps in this run=     93 maximum allowed number of steps=    108.
 GradGradGradGradGradGradGradGradGradGradGradGradGradGradGradGradGradGrad

                          Input orientation:                          
 ---------------------------------------------------------------------
 Center     Atomic      Atomic             Coordinates (Angstroms)
 Number     Number       Type             X           Y           Z
 ---------------------------------------------------------------------
      1          6           0       -0.657300    0.144300    0.506700
      2          6           0        1.698400   -0.820400   -0.119800
      3          6           0       -1.219600    1.397000   -0.172600
      4          6           0       -1.787800   -0.758800    1.009800
      5          6           0        0.244500   -0.613600   -0.442200
      6          6           0        2.434900    0.511100   -0.098000
      7          1           0       -0.066900    0.472200    1.391000
      8          1           0        1.786400   -1.308300    0.874100
      9          1           0        2.171200   -1.484000   -0.876600
     10          1           0       -1.838700    1.975500    0.545800
     11          1           0       -0.388300    2.048800   -0.517300
     12          1           0       -1.848400    1.123900   -1.047400
     13          1           0       -2.413900   -0.211900    1.746800
     14          1           0       -2.433800   -1.089900    0.168200
     15          1           0       -1.364000   -1.654900    1.511700
     16          8           0       -0.211400   -1.074900   -1.478900
     17          1           0        2.400700    0.989600   -1.100100
     18          1           0        3.493900    0.354400    0.196700
 ---------------------------------------------------------------------
                    Distance matrix (angstroms):
                    1          2          3          4          5
     1  C    0.000000
     2  C    2.621540   0.000000
     3  C    1.531955   3.665293   0.000000
     4  C    1.531904   3.665158   2.523568   0.000000
     5  C    1.512636   1.503507   2.501756   2.501925   0.000000
     6  C    3.172051   1.521775   3.761084   4.546544   2.486217
     7  H    1.112689   2.658875   2.151469   2.149924   2.153266
     8  H    2.866479   1.110688   4.177351   3.618739   2.143061
     9  H    3.544756   1.112048   4.504809   4.445009   2.158349
    10  H    2.179571   4.557538   1.110876   2.773857   3.466887
    11  H    2.179004   3.569962   1.111180   3.489019   2.737599
    12  H    2.189421   4.149763   1.111417   2.789320   2.786647
    13  H    2.179534   4.556916   2.774709   1.110977   3.467012
    14  H    2.189471   4.150982   2.788386   1.111411   2.787964
    15  H    2.178663   3.568820   3.488812   1.111083   2.736659
    16  O    2.372316   2.357808   2.972066   2.962868   1.222861
    17  H    3.556361   2.174928   3.759362   5.005209   2.766276
    18  H    4.168058   2.168905   4.841537   5.458635   3.450191
                    6          7          8          9         10
     6  C    0.000000
     7  H    2.911638   0.000000
     8  H    2.162348   2.621467   0.000000
     9  H    2.157818   3.738692   1.801081   0.000000
    10  H    4.563179   2.472559   4.902293   5.483672   0.000000
    11  H    3.242035   2.496112   4.235025   4.377307   1.799782
    12  H    4.429847   3.089377   4.776979   4.794528   1.806544
    13  H    5.238022   2.470424   4.427891   5.433563   2.560854
    14  H    5.132086   3.088302   4.284400   4.738454   3.145378
    15  H    4.659864   2.494312   3.232907   4.269757   3.786569
    16  O    3.380116   3.263545   3.095527   2.491367   4.006552
    17  H    1.111007   3.544338   3.091145   2.494257   4.653332
    18  H    1.110353   3.757596   2.477700   2.506237   5.584484
                   11         12         13         14         15
    11  H    0.000000
    12  H    1.807855   0.000000
    13  H    3.786815   3.148286   0.000000
    14  H    3.808598   2.592544   1.806449   0.000000
    15  H    4.334308   3.808591   1.799948   1.807952   0.000000
    16  O    3.273144   2.775010   4.000114   2.766266   3.257081
    17  H    3.039750   4.251548   5.720910   5.413437   5.290354
    18  H    4.295610   5.538961   6.133972   6.101184   5.419013
                   16         17         18
    16  O    0.000000
    17  H    3.350928   0.000000
    18  H    4.310427   1.811148   0.000000
 Stoichiometry    C6H11O(2)
 Framework group  C1[X(C6H11O)]
 Deg. of freedom    48
 Full point group                 C1      NOp   1
 Largest Abelian subgroup         C1      NOp   1
 Largest concise Abelian subgroup C1      NOp   1
                         Standard orientation:                         
 ---------------------------------------------------------------------
 Center     Atomic      Atomic             Coordinates (Angstroms)
 Number     Number       Type             X           Y           Z
 ---------------------------------------------------------------------
      1          6           0        0.821249    0.306433   -0.393568
      2          6           0       -1.674996   -0.494326   -0.397817
      3          6           0        1.319634    1.379518    0.579565
      4          6           0        1.964091   -0.622602   -0.814919
      5          6           0       -0.307029   -0.488034    0.226011
      6          6           0       -2.295420    0.893931   -0.337682
      7          1           0        0.449141    0.821306   -1.307087
      8          1           0       -1.591857   -0.816934   -1.457364
      9          1           0       -2.338457   -1.211372    0.133516
     10          1           0        2.112042    1.992148    0.099127
     11          1           0        0.483561    2.054357    0.862930
     12          1           0        1.735049    0.916022    1.500352
     13          1           0        2.764908   -0.038994   -1.317278
     14          1           0        2.398997   -1.139952    0.067373
     15          1           0        1.589795   -1.385624   -1.530603
     16          8           0       -0.106866   -1.143046    1.239067
     17          1           0       -2.433425    1.211586    0.717963
     18          1           0       -3.279996    0.892307   -0.850996
 ---------------------------------------------------------------------
 Rotational constants (GHZ):      3.6965303      1.8322027      1.6537668
 Standard basis: 6-311+G(2df,2p) (5D, 7F)
 There are   337 symmetry adapted basis functions of A   symmetry.
 Integral buffers will be    131072 words long.
 Raffenetti 2 integral format.
 Two-electron integral symmetry is turned on.
   337 basis functions,   485 primitive gaussians,   372 cartesian basis functions
    28 alpha electrons       27 beta electrons
       nuclear repulsion energy       305.3837506623 Hartrees.
 NAtoms=   18 NActive=   18 NUniq=   18 SFac= 1.00D+00 NAtFMM=   50 NAOKFM=F Big=F
 One-electron integrals computed using PRISM.
 NBasis=   337 RedAO= T  NBF=   337
 NBsUse=   337 1.00D-06 NBFU=   337
 Harris functional with IExCor= 1009 diagonalized for initial guess.
 ExpMin= 4.38D-02 ExpMax= 8.59D+03 ExpMxC= 1.30D+03 IAcc=2 IRadAn=         0 AccDes= 0.00D+00
 HarFok:  IExCor= 1009 AccDes= 0.00D+00 IRadAn=         0 IDoV= 1
 ScaDFX=  1.000000  1.000000  1.000000  1.000000
 FoFCou: FMM=F IPFlag=           0 FMFlag=      100000 FMFlg1=           0
         NFxFlg=           0 DoJE=T BraDBF=F KetDBF=T FulRan=T
         Omega=  0.000000  0.000000  1.000000  0.000000  0.000000 ICntrl=     500 IOpCl=  0
         NMat0=    1 NMatS0=    1 NMatT0=    0 NMatD0=    1 NMtDS0=    0 NMtDT0=    0
         I1Cent=           4 NGrid=           0.
 Petite list used in FoFCou.
 Initial guess orbital symmetries:
 Alpha Orbitals:
       Occupied  (A) (A) (A) (A) (A) (A) (A) (A) (A) (A) (A) (A)
                 (A) (A) (A) (A) (A) (A) (A) (A) (A) (A) (A) (A)
                 (A) (A) (A) (A)
       Virtual   (A) (A) (A) (A) (A) (A) (A) (A) (A) (A) (A) (A)
                 (A) (A) (A) (A) (A) (A) (A) (A) (A) (A) (A) (A)
                 (A) (A) (A) (A) (A) (A) (A) (A) (A) (A) (A) (A)
                 (A) (A) (A) (A) (A) (A) (A) (A) (A) (A) (A) (A)
                 (A) (A) (A) (A) (A) (A) (A) (A) (A) (A) (A) (A)
                 (A) (A) (A) (A) (A) (A) (A) (A) (A) (A) (A) (A)
                 (A) (A) (A) (A) (A) (A) (A) (A) (A) (A) (A) (A)
                 (A) (A) (A) (A) (A) (A) (A) (A) (A) (A) (A) (A)
                 (A) (A) (A) (A) (A) (A) (A) (A) (A) (A) (A) (A)
                 (A) (A) (A) (A) (A) (A) (A) (A) (A) (A) (A) (A)
                 (A) (A) (A) (A) (A) (A) (A) (A) (A) (A) (A) (A)
                 (A) (A) (A) (A) (A) (A) (A) (A) (A) (A) (A) (A)
                 (A) (A) (A) (A) (A) (A) (A) (A) (A) (A) (A) (A)
                 (A) (A) (A) (A) (A) (A) (A) (A) (A) (A) (A) (A)
                 (A) (A) (A) (A) (A) (A) (A) (A) (A) (A) (A) (A)
                 (A) (A) (A) (A) (A) (A) (A) (A) (A) (A) (A) (A)
                 (A) (A) (A) (A) (A) (A) (A) (A) (A) (A) (A) (A)
                 (A) (A) (A) (A) (A) (A) (A) (A) (A) (A) (A) (A)
                 (A) (A) (A) (A) (A) (A) (A) (A) (A) (A) (A) (A)
                 (A) (A) (A) (A) (A) (A) (A) (A) (A) (A) (A) (A)
                 (A) (A) (A) (A) (A) (A) (A) (A) (A) (A) (A) (A)
                 (A) (A) (A) (A) (A) (A) (A) (A) (A) (A) (A) (A)
                 (A) (A) (A) (A) (A) (A) (A) (A) (A) (A) (A) (A)
                 (A) (A) (A) (A) (A) (A) (A) (A) (A) (A) (A) (A)
                 (A) (A) (A) (A) (A) (A) (A) (A) (A) (A) (A) (A)
                 (A) (A) (A) (A) (A) (A) (A) (A) (A)
 Beta  Orbitals:
       Occupied  (A) (A) (A) (A) (A) (A) (A) (A) (A) (A) (A) (A)
                 (A) (A) (A) (A) (A) (A) (A) (A) (A) (A) (A) (A)
                 (A) (A) (A)
       Virtual   (A) (A) (A) (A) (A) (A) (A) (A) (A) (A) (A) (A)
                 (A) (A) (A) (A) (A) (A) (A) (A) (A) (A) (A) (A)
                 (A) (A) (A) (A) (A) (A) (A) (A) (A) (A) (A) (A)
                 (A) (A) (A) (A) (A) (A) (A) (A) (A) (A) (A) (A)
                 (A) (A) (A) (A) (A) (A) (A) (A) (A) (A) (A) (A)
                 (A) (A) (A) (A) (A) (A) (A) (A) (A) (A) (A) (A)
                 (A) (A) (A) (A) (A) (A) (A) (A) (A) (A) (A) (A)
                 (A) (A) (A) (A) (A) (A) (A) (A) (A) (A) (A) (A)
                 (A) (A) (A) (A) (A) (A) (A) (A) (A) (A) (A) (A)
                 (A) (A) (A) (A) (A) (A) (A) (A) (A) (A) (A) (A)
                 (A) (A) (A) (A) (A) (A) (A) (A) (A) (A) (A) (A)
                 (A) (A) (A) (A) (A) (A) (A) (A) (A) (A) (A) (A)
                 (A) (A) (A) (A) (A) (A) (A) (A) (A) (A) (A) (A)
                 (A) (A) (A) (A) (A) (A) (A) (A) (A) (A) (A) (A)
                 (A) (A) (A) (A) (A) (A) (A) (A) (A) (A) (A) (A)
                 (A) (A) (A) (A) (A) (A) (A) (A) (A) (A) (A) (A)
                 (A) (A) (A) (A) (A) (A) (A) (A) (A) (A) (A) (A)
                 (A) (A) (A) (A) (A) (A) (A) (A) (A) (A) (A) (A)
                 (A) (A) (A) (A) (A) (A) (A) (A) (A) (A) (A) (A)
                 (A) (A) (A) (A) (A) (A) (A) (A) (A) (A) (A) (A)
                 (A) (A) (A) (A) (A) (A) (A) (A) (A) (A) (A) (A)
                 (A) (A) (A) (A) (A) (A) (A) (A) (A) (A) (A) (A)
                 (A) (A) (A) (A) (A) (A) (A) (A) (A) (A) (A) (A)
                 (A) (A) (A) (A) (A) (A) (A) (A) (A) (A) (A) (A)
                 (A) (A) (A) (A) (A) (A) (A) (A) (A) (A) (A) (A)
                 (A) (A) (A) (A) (A) (A) (A) (A) (A) (A)
 The electronic state of the initial guess is 2-A.
 Initial guess <Sx>= 0.0000 <Sy>= 0.0000 <Sz>= 0.5000 <S**2>= 0.7500 S= 0.5000
 Requested convergence on RMS density matrix=1.00D-08 within 128 cycles.
 Requested convergence on MAX density matrix=1.00D-06.
 Requested convergence on             energy=1.00D-06.
 No special actions if energy rises.
 SCF Done:  E(UM062X) =  -310.362867764     A.U. after   15 cycles
             Convg  =    0.9570D-08             -V/T =  2.0051
 <Sx>= 0.0000 <Sy>= 0.0000 <Sz>= 0.5000 <S**2>= 0.7545 S= 0.5023
 <L.S>= 0.000000000000E+00
 Annihilation of the first spin contaminant:
 S**2 before annihilation     0.7545,   after     0.7500

 **********************************************************************

            Population analysis using the SCF density.

 **********************************************************************

 Orbital symmetries:
 Alpha Orbitals:
       Occupied  (A) (A) (A) (A) (A) (A) (A) (A) (A) (A) (A) (A)
                 (A) (A) (A) (A) (A) (A) (A) (A) (A) (A) (A) (A)
                 (A) (A) (A) (A)
       Virtual   (A) (A) (A) (A) (A) (A) (A) (A) (A) (A) (A) (A)
                 (A) (A) (A) (A) (A) (A) (A) (A) (A) (A) (A) (A)
                 (A) (A) (A) (A) (A) (A) (A) (A) (A) (A) (A) (A)
                 (A) (A) (A) (A) (A) (A) (A) (A) (A) (A) (A) (A)
                 (A) (A) (A) (A) (A) (A) (A) (A) (A) (A) (A) (A)
                 (A) (A) (A) (A) (A) (A) (A) (A) (A) (A) (A) (A)
                 (A) (A) (A) (A) (A) (A) (A) (A) (A) (A) (A) (A)
                 (A) (A) (A) (A) (A) (A) (A) (A) (A) (A) (A) (A)
                 (A) (A) (A) (A) (A) (A) (A) (A) (A) (A) (A) (A)
                 (A) (A) (A) (A) (A) (A) (A) (A) (A) (A) (A) (A)
                 (A) (A) (A) (A) (A) (A) (A) (A) (A) (A) (A) (A)
                 (A) (A) (A) (A) (A) (A) (A) (A) (A) (A) (A) (A)
                 (A) (A) (A) (A) (A) (A) (A) (A) (A) (A) (A) (A)
                 (A) (A) (A) (A) (A) (A) (A) (A) (A) (A) (A) (A)
                 (A) (A) (A) (A) (A) (A) (A) (A) (A) (A) (A) (A)
                 (A) (A) (A) (A) (A) (A) (A) (A) (A) (A) (A) (A)
                 (A) (A) (A) (A) (A) (A) (A) (A) (A) (A) (A) (A)
                 (A) (A) (A) (A) (A) (A) (A) (A) (A) (A) (A) (A)
                 (A) (A) (A) (A) (A) (A) (A) (A) (A) (A) (A) (A)
                 (A) (A) (A) (A) (A) (A) (A) (A) (A) (A) (A) (A)
                 (A) (A) (A) (A) (A) (A) (A) (A) (A) (A) (A) (A)
                 (A) (A) (A) (A) (A) (A) (A) (A) (A) (A) (A) (A)
                 (A) (A) (A) (A) (A) (A) (A) (A) (A) (A) (A) (A)
                 (A) (A) (A) (A) (A) (A) (A) (A) (A) (A) (A) (A)
                 (A) (A) (A) (A) (A) (A) (A) (A) (A) (A) (A) (A)
                 (A) (A) (A) (A) (A) (A) (A) (A) (A)
 Beta  Orbitals:
       Occupied  (A) (A) (A) (A) (A) (A) (A) (A) (A) (A) (A) (A)
                 (A) (A) (A) (A) (A) (A) (A) (A) (A) (A) (A) (A)
                 (A) (A) (A)
       Virtual   (A) (A) (A) (A) (A) (A) (A) (A) (A) (A) (A) (A)
                 (A) (A) (A) (A) (A) (A) (A) (A) (A) (A) (A) (A)
                 (A) (A) (A) (A) (A) (A) (A) (A) (A) (A) (A) (A)
                 (A) (A) (A) (A) (A) (A) (A) (A) (A) (A) (A) (A)
                 (A) (A) (A) (A) (A) (A) (A) (A) (A) (A) (A) (A)
                 (A) (A) (A) (A) (A) (A) (A) (A) (A) (A) (A) (A)
                 (A) (A) (A) (A) (A) (A) (A) (A) (A) (A) (A) (A)
                 (A) (A) (A) (A) (A) (A) (A) (A) (A) (A) (A) (A)
                 (A) (A) (A) (A) (A) (A) (A) (A) (A) (A) (A) (A)
                 (A) (A) (A) (A) (A) (A) (A) (A) (A) (A) (A) (A)
                 (A) (A) (A) (A) (A) (A) (A) (A) (A) (A) (A) (A)
                 (A) (A) (A) (A) (A) (A) (A) (A) (A) (A) (A) (A)
                 (A) (A) (A) (A) (A) (A) (A) (A) (A) (A) (A) (A)
                 (A) (A) (A) (A) (A) (A) (A) (A) (A) (A) (A) (A)
                 (A) (A) (A) (A) (A) (A) (A) (A) (A) (A) (A) (A)
                 (A) (A) (A) (A) (A) (A) (A) (A) (A) (A) (A) (A)
                 (A) (A) (A) (A) (A) (A) (A) (A) (A) (A) (A) (A)
                 (A) (A) (A) (A) (A) (A) (A) (A) (A) (A) (A) (A)
                 (A) (A) (A) (A) (A) (A) (A) (A) (A) (A) (A) (A)
                 (A) (A) (A) (A) (A) (A) (A) (A) (A) (A) (A) (A)
                 (A) (A) (A) (A) (A) (A) (A) (A) (A) (A) (A) (A)
                 (A) (A) (A) (A) (A) (A) (A) (A) (A) (A) (A) (A)
                 (A) (A) (A) (A) (A) (A) (A) (A) (A) (A) (A) (A)
                 (A) (A) (A) (A) (A) (A) (A) (A) (A) (A) (A) (A)
                 (A) (A) (A) (A) (A) (A) (A) (A) (A) (A) (A) (A)
                 (A) (A) (A) (A) (A) (A) (A) (A) (A) (A)
 The electronic state is 2-A.
 Alpha  occ. eigenvalues --  -19.61394 -10.62657 -10.57444 -10.55702 -10.55338
 Alpha  occ. eigenvalues --  -10.53779 -10.53666  -1.16164  -0.91287  -0.88162
 Alpha  occ. eigenvalues --   -0.77792  -0.74569  -0.69423  -0.60139  -0.56767
 Alpha  occ. eigenvalues --   -0.53741  -0.52220  -0.49872  -0.49647  -0.46627
 Alpha  occ. eigenvalues --   -0.45565  -0.44801  -0.43079  -0.41901  -0.39852
 Alpha  occ. eigenvalues --   -0.39509  -0.32259  -0.31062
 Alpha virt. eigenvalues --    0.00566   0.01519   0.02549   0.03194   0.03740
 Alpha virt. eigenvalues --    0.04977   0.05132   0.06067   0.06849   0.07351
 Alpha virt. eigenvalues --    0.08034   0.08509   0.09529   0.09789   0.10352
 Alpha virt. eigenvalues --    0.11398   0.12181   0.12731   0.13896   0.14418
 Alpha virt. eigenvalues --    0.15890   0.17116   0.17596   0.18567   0.19696
 Alpha virt. eigenvalues --    0.20150   0.20917   0.22091   0.22365   0.23022
 Alpha virt. eigenvalues --    0.23751   0.25085   0.25279   0.26129   0.27270
 Alpha virt. eigenvalues --    0.28307   0.28985   0.30776   0.31505   0.32201
 Alpha virt. eigenvalues --    0.32573   0.35389   0.35577   0.39744   0.40767
 Alpha virt. eigenvalues --    0.41615   0.43120   0.44471   0.46533   0.46561
 Alpha virt. eigenvalues --    0.48187   0.49613   0.49879   0.50580   0.51508
 Alpha virt. eigenvalues --    0.52045   0.53952   0.54539   0.55350   0.56563
 Alpha virt. eigenvalues --    0.57846   0.58625   0.59021   0.59667   0.60613
 Alpha virt. eigenvalues --    0.62005   0.62604   0.63425   0.64366   0.64429
 Alpha virt. eigenvalues --    0.66978   0.67500   0.68357   0.70014   0.70689
 Alpha virt. eigenvalues --    0.72171   0.72603   0.75479   0.77323   0.79923
 Alpha virt. eigenvalues --    0.81882   0.82967   0.84999   0.87106   0.87431
 Alpha virt. eigenvalues --    0.88778   0.93724   0.94856   0.95718   0.96641
 Alpha virt. eigenvalues --    0.99141   1.01008   1.01808   1.03667   1.05020
 Alpha virt. eigenvalues --    1.06040   1.07300   1.09894   1.12873   1.13256
 Alpha virt. eigenvalues --    1.14786   1.15110   1.16430   1.17449   1.17853
 Alpha virt. eigenvalues --    1.21010   1.22416   1.23190   1.23762   1.25257
 Alpha virt. eigenvalues --    1.26556   1.27290   1.29805   1.30581   1.32760
 Alpha virt. eigenvalues --    1.33204   1.33937   1.34940   1.35571   1.35925
 Alpha virt. eigenvalues --    1.36622   1.38169   1.38873   1.40433   1.42750
 Alpha virt. eigenvalues --    1.44611   1.45131   1.46354   1.47765   1.47940
 Alpha virt. eigenvalues --    1.48688   1.49132   1.51401   1.54834   1.54911
 Alpha virt. eigenvalues --    1.56328   1.57052   1.58076   1.60814   1.61761
 Alpha virt. eigenvalues --    1.63103   1.63800   1.67632   1.67935   1.72036
 Alpha virt. eigenvalues --    1.78182   1.82737   1.88020   1.92421   2.05276
 Alpha virt. eigenvalues --    2.14673   2.34644   2.39765   2.45712   2.47991
 Alpha virt. eigenvalues --    2.49325   2.51013   2.54926   2.59159   2.59461
 Alpha virt. eigenvalues --    2.61844   2.66729   2.68849   2.70696   2.72561
 Alpha virt. eigenvalues --    2.74485   2.77842   2.78347   2.81778   2.84050
 Alpha virt. eigenvalues --    2.85852   2.87496   2.88680   2.91493   2.93025
 Alpha virt. eigenvalues --    2.94724   2.96481   2.97821   2.98767   2.99201
 Alpha virt. eigenvalues --    2.99763   3.00258   3.03395   3.05954   3.07104
 Alpha virt. eigenvalues --    3.09484   3.09748   3.12768   3.16005   3.16984
 Alpha virt. eigenvalues --    3.17832   3.20742   3.21966   3.24146   3.27006
 Alpha virt. eigenvalues --    3.28083   3.30020   3.30378   3.31641   3.33782
 Alpha virt. eigenvalues --    3.35037   3.35880   3.38475   3.40872   3.43373
 Alpha virt. eigenvalues --    3.44354   3.45241   3.46967   3.48579   3.53597
 Alpha virt. eigenvalues --    3.54838   3.55771   3.58653   3.61528   3.62064
 Alpha virt. eigenvalues --    3.63377   3.65245   3.65804   3.67481   3.68318
 Alpha virt. eigenvalues --    3.73317   3.74264   3.75918   3.78766   3.79019
 Alpha virt. eigenvalues --    3.80760   3.84143   3.86659   3.87600   3.90206
 Alpha virt. eigenvalues --    3.91974   3.93824   3.95458   3.96532   3.96693
 Alpha virt. eigenvalues --    3.98832   4.00206   4.01299   4.04028   4.05530
 Alpha virt. eigenvalues --    4.08774   4.10597   4.11032   4.14823   4.18398
 Alpha virt. eigenvalues --    4.18679   4.20189   4.21508   4.21999   4.22554
 Alpha virt. eigenvalues --    4.23980   4.28288   4.28812   4.33620   4.36505
 Alpha virt. eigenvalues --    4.39797   4.40066   4.42179   4.44441   4.45734
 Alpha virt. eigenvalues --    4.47670   4.49171   4.52975   4.54121   4.54792
 Alpha virt. eigenvalues --    4.57451   4.58646   4.61164   4.62342   4.64736
 Alpha virt. eigenvalues --    4.66963   4.70832   4.73843   4.82565   4.90580
 Alpha virt. eigenvalues --    5.11352   5.13096   5.14931   5.23312   5.25388
 Alpha virt. eigenvalues --    5.34049   5.34534   5.41629   5.45877   5.47208
 Alpha virt. eigenvalues --    5.51061   5.53536   5.54280   5.55463   5.56209
 Alpha virt. eigenvalues --    5.57766   5.60498   5.64137   5.74793   6.25946
 Alpha virt. eigenvalues --    6.60534   6.89543   6.93104   7.11383   7.28608
 Alpha virt. eigenvalues --    7.50589   7.67325  24.10864  24.23072  24.31076
 Alpha virt. eigenvalues --   24.36662  24.42703  24.72327  50.31175
  Beta  occ. eigenvalues --  -19.61402 -10.62643 -10.56576 -10.55730 -10.55335
  Beta  occ. eigenvalues --  -10.53778 -10.53663  -1.16175  -0.91008  -0.86990
  Beta  occ. eigenvalues --   -0.77776  -0.73017  -0.68134  -0.59913  -0.56480
  Beta  occ. eigenvalues --   -0.53097  -0.51750  -0.49437  -0.48920  -0.46160
  Beta  occ. eigenvalues --   -0.45294  -0.44266  -0.42546  -0.41621  -0.39822
  Beta  occ. eigenvalues --   -0.39479  -0.31924
  Beta virt. eigenvalues --   -0.06388   0.00732   0.01507   0.02626   0.02920
  Beta virt. eigenvalues --    0.03751   0.04982   0.05208   0.06009   0.06569
  Beta virt. eigenvalues --    0.07525   0.07980   0.08405   0.09152   0.09929
  Beta virt. eigenvalues --    0.10424   0.11508   0.12205   0.12628   0.13201
  Beta virt. eigenvalues --    0.14367   0.15452   0.16497   0.17616   0.18588
  Beta virt. eigenvalues --    0.19656   0.20122   0.20926   0.22240   0.22411
  Beta virt. eigenvalues --    0.23240   0.23885   0.24769   0.25687   0.26261
  Beta virt. eigenvalues --    0.27207   0.28534   0.29131   0.30856   0.31733
  Beta virt. eigenvalues --    0.32137   0.32397   0.35447   0.35591   0.39661
  Beta virt. eigenvalues --    0.40614   0.41743   0.43070   0.44489   0.46575
  Beta virt. eigenvalues --    0.46860   0.48393   0.49716   0.50015   0.50450
  Beta virt. eigenvalues --    0.51847   0.52785   0.54259   0.54777   0.55699
  Beta virt. eigenvalues --    0.56775   0.57937   0.58565   0.59207   0.59726
  Beta virt. eigenvalues --    0.60629   0.62069   0.62708   0.63451   0.64223
  Beta virt. eigenvalues --    0.64814   0.67069   0.67264   0.68422   0.69894
  Beta virt. eigenvalues --    0.70687   0.72080   0.72571   0.75163   0.77240
  Beta virt. eigenvalues --    0.79883   0.81897   0.82848   0.84746   0.86765
  Beta virt. eigenvalues --    0.87432   0.88739   0.93681   0.94687   0.95759
  Beta virt. eigenvalues --    0.96462   0.98705   1.00906   1.01904   1.03761
  Beta virt. eigenvalues --    1.04955   1.06127   1.07408   1.09781   1.12871
  Beta virt. eigenvalues --    1.13252   1.14904   1.15154   1.16483   1.17460
  Beta virt. eigenvalues --    1.18139   1.21100   1.22532   1.23381   1.23840
  Beta virt. eigenvalues --    1.25436   1.26563   1.27230   1.29954   1.30860
  Beta virt. eigenvalues --    1.32748   1.33231   1.34172   1.35063   1.35556
  Beta virt. eigenvalues --    1.35993   1.36904   1.38182   1.38907   1.40444
  Beta virt. eigenvalues --    1.42803   1.44851   1.45485   1.46348   1.47991
  Beta virt. eigenvalues --    1.48140   1.48700   1.49415   1.51458   1.54670
  Beta virt. eigenvalues --    1.54863   1.56712   1.56980   1.58333   1.60806
  Beta virt. eigenvalues --    1.61849   1.63030   1.63850   1.67754   1.67971
  Beta virt. eigenvalues --    1.72289   1.78211   1.82804   1.88064   1.92428
  Beta virt. eigenvalues --    2.05327   2.14802   2.34804   2.39843   2.46073
  Beta virt. eigenvalues --    2.48756   2.49681   2.51318   2.55007   2.59507
  Beta virt. eigenvalues --    2.59764   2.62112   2.67024   2.69068   2.71904
  Beta virt. eigenvalues --    2.72834   2.76880   2.78609   2.80151   2.82017
  Beta virt. eigenvalues --    2.85089   2.86558   2.87843   2.90216   2.92247
  Beta virt. eigenvalues --    2.94009   2.95560   2.97859   2.98795   2.98877
  Beta virt. eigenvalues --    2.99537   3.00734   3.01986   3.04464   3.06241
  Beta virt. eigenvalues --    3.07446   3.10390   3.11379   3.13336   3.17001
  Beta virt. eigenvalues --    3.17425   3.19878   3.22237   3.23934   3.24840
  Beta virt. eigenvalues --    3.28431   3.29388   3.30401   3.30610   3.33232
  Beta virt. eigenvalues --    3.34458   3.35229   3.36242   3.39572   3.41244
  Beta virt. eigenvalues --    3.44423   3.44775   3.46667   3.49656   3.50301
  Beta virt. eigenvalues --    3.54176   3.55018   3.56503   3.60761   3.61723
  Beta virt. eigenvalues --    3.63722   3.64721   3.65489   3.66102   3.68923
  Beta virt. eigenvalues --    3.69192   3.73453   3.75382   3.76180   3.79284
  Beta virt. eigenvalues --    3.79472   3.81022   3.84462   3.87383   3.88023
  Beta virt. eigenvalues --    3.90750   3.92587   3.94012   3.95882   3.97087
  Beta virt. eigenvalues --    3.97399   3.99545   4.00902   4.01659   4.04673
  Beta virt. eigenvalues --    4.06015   4.09101   4.11380   4.11896   4.16148
  Beta virt. eigenvalues --    4.18457   4.19134   4.20344   4.21601   4.22254
  Beta virt. eigenvalues --    4.22762   4.24128   4.29328   4.30356   4.34838
  Beta virt. eigenvalues --    4.37441   4.40054   4.40486   4.42596   4.44602
  Beta virt. eigenvalues --    4.46744   4.48782   4.50254   4.53545   4.54378
  Beta virt. eigenvalues --    4.55163   4.57645   4.59392   4.61538   4.62769
  Beta virt. eigenvalues --    4.64882   4.67051   4.71034   4.74038   4.82596
  Beta virt. eigenvalues --    4.91535   5.12603   5.13170   5.14989   5.24296
  Beta virt. eigenvalues --    5.25496   5.34548   5.37674   5.42107   5.46072
  Beta virt. eigenvalues --    5.50933   5.51068   5.53651   5.54343   5.55588
  Beta virt. eigenvalues --    5.56283   5.57823   5.60505   5.64150   5.74808
  Beta virt. eigenvalues --    6.25953   6.60534   6.89469   6.93043   7.11408
  Beta virt. eigenvalues --    7.28559   7.50580   7.67305  24.12212  24.23074
  Beta virt. eigenvalues --   24.31085  24.36846  24.42717  24.72340  50.31186
          Condensed to atoms (all electrons):
              1          2          3          4          5          6
     1  C    5.909473   0.073015  -0.115784   0.045408  -0.468639   0.018355
     2  C    0.073015   5.487999  -0.120651   0.041746  -0.154265   0.036790
     3  C   -0.115784  -0.120651   5.485349  -0.120454   0.226762   0.046253
     4  C    0.045408   0.041746  -0.120454   5.481167   0.027175  -0.053019
     5  C   -0.468639  -0.154265   0.226762   0.027175   6.084993  -0.070237
     6  C    0.018355   0.036790   0.046253  -0.053019  -0.070237   5.731389
     7  H    0.488826   0.038900  -0.062081  -0.025727  -0.088169   0.003419
     8  H   -0.014426   0.443118   0.001297   0.003438  -0.020273  -0.061409
     9  H    0.013465   0.477963  -0.005551  -0.002064  -0.069635  -0.037170
    10  H   -0.100252   0.003774   0.447393  -0.009744   0.035491   0.000224
    11  H    0.027103  -0.013313   0.361200   0.012255  -0.015120   0.010101
    12  H   -0.009397   0.009525   0.418909   0.000982  -0.036134  -0.002525
    13  H   -0.077273  -0.000770  -0.003270   0.421815   0.035206   0.000575
    14  H    0.007461   0.001131  -0.012827   0.411667  -0.028201   0.002181
    15  H   -0.002596  -0.004389   0.022574   0.376947  -0.011363  -0.001306
    16  O    0.087062  -0.060787  -0.058367  -0.048177   0.359159  -0.026990
    17  H   -0.008494  -0.036633   0.002849  -0.000521  -0.011328   0.403467
    18  H    0.004960  -0.064067  -0.000934   0.001689   0.025448   0.406103
              7          8          9         10         11         12
     1  C    0.488826  -0.014426   0.013465  -0.100252   0.027103  -0.009397
     2  C    0.038900   0.443118   0.477963   0.003774  -0.013313   0.009525
     3  C   -0.062081   0.001297  -0.005551   0.447393   0.361200   0.418909
     4  C   -0.025727   0.003438  -0.002064  -0.009744   0.012255   0.000982
     5  C   -0.088169  -0.020273  -0.069635   0.035491  -0.015120  -0.036134
     6  C    0.003419  -0.061409  -0.037170   0.000224   0.010101  -0.002525
     7  H    0.490011  -0.004783   0.000052  -0.005487  -0.006849   0.005508
     8  H   -0.004783   0.523939  -0.030255  -0.000014  -0.000093  -0.000037
     9  H    0.000052  -0.030255   0.494989   0.000017   0.000050   0.000000
    10  H   -0.005487  -0.000014   0.000017   0.533660  -0.021325  -0.028145
    11  H   -0.006849  -0.000093   0.000050  -0.021325   0.532236  -0.025529
    12  H    0.005508  -0.000037   0.000000  -0.028145  -0.025529   0.494442
    13  H   -0.006419   0.000025   0.000016   0.002598   0.000336  -0.000169
    14  H    0.005478  -0.000087   0.000000  -0.000130  -0.000279   0.002334
    15  H   -0.006388   0.000036  -0.000095   0.000239  -0.000478  -0.000260
    16  O    0.001528   0.003101  -0.010292   0.000109  -0.002052  -0.002255
    17  H    0.000202   0.005686  -0.004926  -0.000005  -0.001572   0.000077
    18  H   -0.000201  -0.006094  -0.002655  -0.000008   0.000082   0.000000
             13         14         15         16         17         18
     1  C   -0.077273   0.007461  -0.002596   0.087062  -0.008494   0.004960
     2  C   -0.000770   0.001131  -0.004389  -0.060787  -0.036633  -0.064067
     3  C   -0.003270  -0.012827   0.022574  -0.058367   0.002849  -0.000934
     4  C    0.421815   0.411667   0.376947  -0.048177  -0.000521   0.001689
     5  C    0.035206  -0.028201  -0.011363   0.359159  -0.011328   0.025448
     6  C    0.000575   0.002181  -0.001306  -0.026990   0.403467   0.406103
     7  H   -0.006419   0.005478  -0.006388   0.001528   0.000202  -0.000201
     8  H    0.000025  -0.000087   0.000036   0.003101   0.005686  -0.006094
     9  H    0.000016   0.000000  -0.000095  -0.010292  -0.004926  -0.002655
    10  H    0.002598  -0.000130   0.000239   0.000109  -0.000005  -0.000008
    11  H    0.000336  -0.000279  -0.000478  -0.002052  -0.001572   0.000082
    12  H   -0.000169   0.002334  -0.000260  -0.002255   0.000077   0.000000
    13  H    0.536284  -0.028210  -0.022250   0.000375   0.000001  -0.000002
    14  H   -0.028210   0.495164  -0.025240  -0.003557  -0.000005   0.000000
    15  H   -0.022250  -0.025240   0.535767  -0.001359   0.000006  -0.000005
    16  O    0.000375  -0.003557  -0.001359   8.160577   0.001982  -0.001067
    17  H    0.000001  -0.000005   0.000006   0.001982   0.507128  -0.028134
    18  H   -0.000002   0.000000  -0.000005  -0.001067  -0.028134   0.511475
 Mulliken atomic charges:
              1
     1  C    0.121734
     2  C   -0.159087
     3  C   -0.512668
     4  C   -0.564585
     5  C    0.179133
     6  C   -0.406200
     7  H    0.172177
     8  H    0.156828
     9  H    0.176092
    10  H    0.141605
    11  H    0.143247
    12  H    0.172672
    13  H    0.141132
    14  H    0.173120
    15  H    0.140160
    16  O   -0.398991
    17  H    0.170220
    18  H    0.153410
 Sum of Mulliken atomic charges =   0.00000
 Mulliken charges with hydrogens summed into heavy atoms:
              1
     1  C    0.293911
     2  C    0.173833
     3  C   -0.055144
     4  C   -0.110172
     5  C    0.179133
     6  C   -0.082571
    16  O   -0.398991
 Sum of Mulliken charges with hydrogens summed into heavy atoms =   0.00000
          Atomic-Atomic Spin Densities.
              1          2          3          4          5          6
     1  C    0.053910   0.005603   0.029454  -0.071070   0.018793   0.006139
     2  C    0.005603   0.028112  -0.000331   0.005112  -0.035173  -0.041494
     3  C    0.029454  -0.000331  -0.021825   0.014393  -0.019451  -0.009404
     4  C   -0.071070   0.005112   0.014393   0.039643   0.012472  -0.001409
     5  C    0.018793  -0.035173  -0.019451   0.012472   0.034038  -0.010620
     6  C    0.006139  -0.041494  -0.009404  -0.001409  -0.010620   1.124394
     7  H    0.001905  -0.003473   0.012582  -0.015958   0.010315  -0.005886
     8  H   -0.004626  -0.006690   0.001675  -0.001888   0.016819  -0.009603
     9  H    0.008650   0.041841  -0.003333   0.002926  -0.030558  -0.028096
    10  H    0.002592   0.000487  -0.007488   0.005522  -0.002184   0.000993
    11  H   -0.012712   0.003855   0.008758  -0.002529   0.002816  -0.001589
    12  H    0.003628  -0.001108  -0.000316  -0.001451  -0.001289   0.000221
    13  H   -0.001183   0.000544  -0.003937   0.005996  -0.001169   0.000173
    14  H    0.004237  -0.001279   0.003647  -0.009226   0.002112  -0.000273
    15  H   -0.000325   0.000252  -0.001780   0.003682  -0.001703   0.000450
    16  O   -0.003113   0.003565   0.003122  -0.001478  -0.008710   0.003715
    17  H   -0.003245  -0.003534  -0.000456  -0.000798   0.010636  -0.012643
    18  H   -0.001551   0.001156   0.001232  -0.000160   0.005579  -0.009825
              7          8          9         10         11         12
     1  C    0.001905  -0.004626   0.008650   0.002592  -0.012712   0.003628
     2  C   -0.003473  -0.006690   0.041841   0.000487   0.003855  -0.001108
     3  C    0.012582   0.001675  -0.003333  -0.007488   0.008758  -0.000316
     4  C   -0.015958  -0.001888   0.002926   0.005522  -0.002529  -0.001451
     5  C    0.010315   0.016819  -0.030558  -0.002184   0.002816  -0.001289
     6  C   -0.005886  -0.009603  -0.028096   0.000993  -0.001589   0.000221
     7  H   -0.017030   0.000044   0.000067  -0.000263   0.001260  -0.000049
     8  H    0.000044   0.012752  -0.006421  -0.000012  -0.000016   0.000002
     9  H    0.000067  -0.006421   0.062052   0.000008   0.000024   0.000009
    10  H   -0.000263  -0.000012   0.000008   0.001281   0.000075  -0.000540
    11  H    0.001260  -0.000016   0.000024   0.000075  -0.002374   0.000781
    12  H   -0.000049   0.000002   0.000009  -0.000540   0.000781  -0.000306
    13  H    0.000045  -0.000013   0.000002   0.000116  -0.000003  -0.000022
    14  H   -0.000116   0.000018  -0.000013  -0.000126   0.000066   0.000099
    15  H    0.000009  -0.000001   0.000002   0.000001   0.000007  -0.000020
    16  O    0.000425   0.000162  -0.000584  -0.000131   0.000596  -0.000073
    17  H    0.000019   0.000445  -0.003238  -0.000020   0.000388   0.000015
    18  H    0.000160   0.001073  -0.001638  -0.000003  -0.000021   0.000000
             13         14         15         16         17         18
     1  C   -0.001183   0.004237  -0.000325  -0.003113  -0.003245  -0.001551
     2  C    0.000544  -0.001279   0.000252   0.003565  -0.003534   0.001156
     3  C   -0.003937   0.003647  -0.001780   0.003122  -0.000456   0.001232
     4  C    0.005996  -0.009226   0.003682  -0.001478  -0.000798  -0.000160
     5  C   -0.001169   0.002112  -0.001703  -0.008710   0.010636   0.005579
     6  C    0.000173  -0.000273   0.000450   0.003715  -0.012643  -0.009825
     7  H    0.000045  -0.000116   0.000009   0.000425   0.000019   0.000160
     8  H   -0.000013   0.000018  -0.000001   0.000162   0.000445   0.001073
     9  H    0.000002  -0.000013   0.000002  -0.000584  -0.003238  -0.001638
    10  H    0.000116  -0.000126   0.000001  -0.000131  -0.000020  -0.000003
    11  H   -0.000003   0.000066   0.000007   0.000596   0.000388  -0.000021
    12  H   -0.000022   0.000099  -0.000020  -0.000073   0.000015   0.000000
    13  H   -0.000320  -0.000204  -0.000121  -0.000026  -0.000002   0.000000
    14  H   -0.000204   0.001041  -0.000055   0.000516   0.000003   0.000001
    15  H   -0.000121  -0.000055  -0.000453  -0.000048  -0.000003  -0.000001
    16  O   -0.000026   0.000516  -0.000048  -0.001042  -0.000260  -0.000073
    17  H   -0.000002   0.000003  -0.000003  -0.000260  -0.022493   0.005081
    18  H    0.000000   0.000001  -0.000001  -0.000073   0.005081  -0.029249
 Mulliken atomic spin densities:
              1
     1  C    0.037086
     2  C   -0.002555
     3  C    0.006543
     4  C   -0.016221
     5  C    0.002724
     6  C    1.005244
     7  H   -0.015944
     8  H    0.003718
     9  H    0.041700
    10  H    0.000307
    11  H   -0.000618
    12  H   -0.000421
    13  H   -0.000123
    14  H    0.000450
    15  H   -0.000107
    16  O   -0.003440
    17  H   -0.030106
    18  H   -0.028238
 Sum of Mulliken atomic spin densities =   1.00000
 Electronic spatial extent (au):  <R**2>=            880.8462
 Charge=              0.0000 electrons
 Dipole moment (field-independent basis, Debye):
    X=             -0.7125    Y=              1.1281    Z=             -2.1497  Tot=              2.5301
 Quadrupole moment (field-independent basis, Debye-Ang):
   XX=            -40.3950   YY=            -47.9248   ZZ=            -47.6005
   XY=              1.1289   XZ=             -0.0144   YZ=              3.8222
 Traceless Quadrupole moment (field-independent basis, Debye-Ang):
   XX=              4.9118   YY=             -2.6180   ZZ=             -2.2937
   XY=              1.1289   XZ=             -0.0144   YZ=              3.8222
 Octapole moment (field-independent basis, Debye-Ang**2):
  XXX=             -8.7545  YYY=             -4.8675  ZZZ=             -0.5402  XYY=              1.5747
  XXY=             -2.2509  XXZ=              0.9024  XZZ=              0.0973  YZZ=              1.7814
  YYZ=             -1.6099  XYZ=             -2.7707
 Hexadecapole moment (field-independent basis, Debye-Ang**3):
 XXXX=           -692.8163 YYYY=           -302.3318 ZZZZ=           -208.3384 XXXY=              7.5667
 XXXZ=              2.1638 YYYX=              8.0734 YYYZ=              2.6397 ZZZX=              1.3075
 ZZZY=              3.8766 XXYY=           -169.3081 XXZZ=           -150.9502 YYZZ=            -87.5495
 XXYZ=             -3.6086 YYXZ=             -3.9114 ZZXY=              0.7941
 N-N= 3.053837506623D+02 E-N=-1.992141368680D+03  KE= 4.624974950390D+02
                          Isotropic Fermi Contact Couplings
        Atom                 a.u.       MegaHertz       Gauss      10(-4) cm-1
     1  C(13)              0.00011       0.12363       0.04411       0.04124
     2  C(13)             -0.01783     -20.03906      -7.15044      -6.68431
     3  C(13)              0.00197       2.21138       0.78907       0.73764
     4  C(13)              0.00022       0.24245       0.08651       0.08087
     5  C(13)              0.00952      10.70708       3.82055       3.57150
     6  C(13)              0.38062     427.88863     152.68130     142.72828
     7  H(1)               0.00038       1.67806       0.59877       0.55974
     8  H(1)               0.00369      16.51306       5.89227       5.50816
     9  H(1)               0.02435     108.85880      38.84352      36.31139
    10  H(1)               0.00022       0.98841       0.35269       0.32970
    11  H(1)               0.00017       0.78161       0.27890       0.26072
    12  H(1)              -0.00002      -0.07394      -0.02638      -0.02466
    13  H(1)               0.00001       0.02698       0.00963       0.00900
    14  H(1)               0.00025       1.09990       0.39247       0.36689
    15  H(1)               0.00000       0.00426       0.00152       0.00142
    16  O(17)             -0.00106       0.64517       0.23021       0.21520
    17  H(1)              -0.00494     -22.07992      -7.87867      -7.36507
    18  H(1)              -0.00690     -30.84197     -11.00518     -10.28777
 --------------------------------------------------------
       Center         ----  Spin Dipole Couplings  ----
                      3XX-RR        3YY-RR        3ZZ-RR
 --------------------------------------------------------
     1   Atom        0.004477     -0.001252     -0.003226
     2   Atom       -0.021358      0.039531     -0.018173
     3   Atom        0.007002     -0.003803     -0.003199
     4   Atom        0.002962     -0.000873     -0.002089
     5   Atom        0.008274     -0.000712     -0.007562
     6   Atom        0.041318      0.133335     -0.174653
     7   Atom        0.012063     -0.007000     -0.005063
     8   Atom       -0.008146      0.011518     -0.003372
     9   Atom       -0.004815      0.013116     -0.008300
    10   Atom        0.003222     -0.001509     -0.001713
    11   Atom        0.005557     -0.003539     -0.002018
    12   Atom        0.002285     -0.001808     -0.000477
    13   Atom        0.002055     -0.000984     -0.001071
    14   Atom        0.001553     -0.000473     -0.001081
    15   Atom        0.001421     -0.000128     -0.001293
    16   Atom        0.009015     -0.005058     -0.003958
    17   Atom       -0.039437     -0.023526      0.062963
    18   Atom        0.053825     -0.038826     -0.014998
 --------------------------------------------------------
                        XY            XZ            YZ
 --------------------------------------------------------
     1   Atom       -0.004165      0.000768     -0.005283
     2   Atom        0.000926     -0.002894     -0.015884
     3   Atom       -0.000045      0.002805      0.000473
     4   Atom       -0.002331     -0.000145      0.000015
     5   Atom       -0.009505      0.010298     -0.002150
     6   Atom        0.585024     -0.413844     -0.451950
     7   Atom       -0.003583     -0.005001      0.000194
     8   Atom       -0.005457     -0.004310      0.011616
     9   Atom        0.000906     -0.003502     -0.005548
    10   Atom        0.001143      0.000739      0.000056
    11   Atom        0.003017      0.005716      0.002274
    12   Atom       -0.000227      0.002285     -0.000188
    13   Atom       -0.000728     -0.000608      0.000122
    14   Atom       -0.001309      0.000369     -0.000213
    15   Atom       -0.001943     -0.000912      0.000645
    16   Atom       -0.000938      0.004385     -0.015671
    17   Atom        0.016943     -0.022330      0.027268
    18   Atom        0.015242      0.041920     -0.018062
 --------------------------------------------------------


 ---------------------------------------------------------------------------------
              Anisotropic Spin Dipole Couplings in Principal Axis System
 ---------------------------------------------------------------------------------

       Atom             a.u.   MegaHertz   Gauss  10(-4) cm-1        Axes

              Baa    -0.0080    -1.073    -0.383    -0.358  0.1807  0.6734  0.7169
     1 C(13)  Bbb     0.0003     0.036     0.013     0.012 -0.6057 -0.4981  0.6205
              Bcc     0.0077     1.037     0.370     0.346  0.7749 -0.5464  0.3178
 
              Baa    -0.0244    -3.279    -1.170    -1.094  0.6462  0.1751  0.7428
     2 C(13)  Bbb    -0.0192    -2.579    -0.920    -0.860  0.7628 -0.1799 -0.6211
              Bcc     0.0437     5.858     2.090     1.954  0.0249  0.9680 -0.2498
 
              Baa    -0.0043    -0.582    -0.208    -0.194 -0.1824 -0.6626  0.7264
     3 C(13)  Bbb    -0.0034    -0.455    -0.162    -0.152 -0.1696  0.7490  0.6405
              Bcc     0.0077     1.036     0.370     0.346  0.9685  0.0064  0.2490
 
              Baa    -0.0021    -0.283    -0.101    -0.094  0.1612  0.2919  0.9428
     4 C(13)  Bbb    -0.0020    -0.263    -0.094    -0.088  0.3958  0.8560 -0.3327
              Bcc     0.0041     0.546     0.195     0.182  0.9041 -0.4267 -0.0224
 
              Baa    -0.0132    -1.771    -0.632    -0.591 -0.5044 -0.2411  0.8291
     5 C(13)  Bbb    -0.0049    -0.664    -0.237    -0.222  0.2869  0.8589  0.4243
              Bcc     0.0182     2.436     0.869     0.812  0.8144 -0.4519  0.3640
 
              Baa    -0.5008   -67.202   -23.979   -22.416 -0.5158  0.7590  0.3973
     6 C(13)  Bbb    -0.4944   -66.339   -23.672   -22.128  0.6109  0.0007  0.7917
              Bcc     0.9952   133.541    47.651    44.545  0.6007  0.6511 -0.4640
 
              Baa    -0.0079    -4.238    -1.512    -1.414  0.2546  0.8883  0.3822
     7 H(1)   Bbb    -0.0061    -3.233    -1.154    -1.079  0.1606 -0.4286  0.8891
              Bcc     0.0140     7.472     2.666     2.492  0.9536 -0.1650 -0.2518
 
              Baa    -0.0109    -5.824    -2.078    -1.943  0.7053 -0.1830  0.6848
     8 H(1)   Bbb    -0.0087    -4.617    -1.648    -1.540  0.6668  0.4991 -0.5534
              Bcc     0.0196    10.441     3.726     3.483 -0.2405  0.8470  0.4741
 
              Baa    -0.0113    -6.007    -2.143    -2.004  0.4496  0.1823  0.8744
     9 H(1)   Bbb    -0.0034    -1.795    -0.640    -0.599  0.8887 -0.1894 -0.4175
              Bcc     0.0146     7.801     2.784     2.602  0.0895  0.9648 -0.2472
 
              Baa    -0.0019    -1.016    -0.362    -0.339 -0.2431  0.5950  0.7661
    10 H(1)   Bbb    -0.0017    -0.897    -0.320    -0.299 -0.0856  0.7735 -0.6280
              Bcc     0.0036     1.913     0.682     0.638  0.9662  0.2183  0.1371
 
              Baa    -0.0054    -2.907    -1.037    -0.970 -0.2741 -0.5258  0.8053
    11 H(1)   Bbb    -0.0042    -2.259    -0.806    -0.754 -0.4634  0.8059  0.3685
              Bcc     0.0097     5.166     1.843     1.723  0.8427  0.2722  0.4645
 
              Baa    -0.0019    -0.989    -0.353    -0.330 -0.2093  0.8604  0.4647
    12 H(1)   Bbb    -0.0017    -0.926    -0.330    -0.309 -0.4475 -0.5068  0.7368
              Bcc     0.0036     1.915     0.683     0.639  0.8694 -0.0537  0.4911
 
              Baa    -0.0012    -0.635    -0.226    -0.212  0.2434  0.3206  0.9154
    13 H(1)   Bbb    -0.0011    -0.610    -0.218    -0.204  0.1414  0.9220 -0.3605
              Bcc     0.0023     1.245     0.444     0.415  0.9596 -0.2171 -0.1791
 
              Baa    -0.0012    -0.616    -0.220    -0.206  0.1624  0.5643  0.8095
    14 H(1)   Bbb    -0.0011    -0.584    -0.208    -0.195  0.4259  0.6999 -0.5734
              Bcc     0.0022     1.200     0.428     0.400  0.8901 -0.4379  0.1266
 
              Baa    -0.0016    -0.846    -0.302    -0.282  0.1209 -0.2625  0.9573
    15 H(1)   Bbb    -0.0014    -0.769    -0.275    -0.257  0.5867  0.7968  0.1444
              Bcc     0.0030     1.615     0.576     0.539  0.8007 -0.5442 -0.2503
 
              Baa    -0.0204     1.475     0.526     0.492 -0.0817  0.7101  0.6993
    16 O(17)  Bbb     0.0063    -0.454    -0.162    -0.151  0.7878  0.4758 -0.3911
              Bcc     0.0141    -1.021    -0.364    -0.341  0.6105 -0.5190  0.5983
 
              Baa    -0.0595   -31.769   -11.336   -10.597  0.7774 -0.5689  0.2683
    17 H(1)   Bbb    -0.0139    -7.414    -2.646    -2.473  0.6101  0.7858 -0.1016
              Bcc     0.0734    39.183    13.981    13.070 -0.1531  0.2427  0.9580
 
              Baa    -0.0599   -31.963   -11.405   -10.662 -0.3180  0.7389  0.5940
    18 H(1)   Bbb    -0.0141    -7.514    -2.681    -2.506 -0.2743 -0.6715  0.6884
              Bcc     0.0740    39.476    14.086    13.168  0.9076  0.0560  0.4162
 

 ---------------------------------------------------------------------------------

 Calling FoFJK, ICntrl=      2127 FMM=F ISym2X=0 I1Cent= 0 IOpClX= 1 NMat=1 NMatS=1 NMatT=0.
 ***** Axes restored to original set *****
 -------------------------------------------------------------------
 Center     Atomic                   Forces (Hartrees/Bohr)
 Number     Number              X              Y              Z
 -------------------------------------------------------------------
      1        6           0.001764704    0.009955714    0.016371864
      2        6           0.005220590    0.005817696    0.017484586
      3        6          -0.000831238    0.009195474   -0.005827071
      4        6          -0.005354456   -0.008774804    0.003258438
      5        6          -0.012443618   -0.020955307   -0.030149884
      6        6           0.026151241   -0.025987432   -0.031851840
      7        1          -0.003560563   -0.003910402   -0.010197212
      8        1          -0.001430736    0.003745175   -0.008999441
      9        1          -0.008046603    0.006940941    0.007012395
     10        1           0.007178072   -0.007155658   -0.008674016
     11        1          -0.010977336   -0.005940822    0.002681548
     12        1           0.008623954    0.002669058    0.010611923
     13        1           0.007531717   -0.006425858   -0.009126789
     14        1           0.009015704    0.003803785    0.009971794
     15        1          -0.007404075    0.008951588   -0.005661052
     16        8           0.005309147    0.011019319    0.018511072
     17        1          -0.005367518    0.005085707    0.018368574
     18        1          -0.015378986    0.011965826    0.006215111
 -------------------------------------------------------------------
 Cartesian Forces:  Max     0.031851840 RMS     0.011880327

 GradGradGradGradGradGradGradGradGradGradGradGradGradGradGradGradGradGrad
 Berny optimization.
 Internal  Forces:  Max     0.021831077 RMS     0.006645317
 Search for a local minimum.
 Step number   1 out of a maximum of   93
 All quantities printed in internal units (Hartrees-Bohrs-Radians)
 Swaping is turned off.
 Second derivative matrix not updated -- first step.
 ITU=  0
     Eigenvalues ---    0.00343   0.00344   0.00478   0.00599   0.00659
     Eigenvalues ---    0.00720   0.03866   0.04004   0.04839   0.05158
     Eigenvalues ---    0.05573   0.05573   0.05669   0.05690   0.05692
     Eigenvalues ---    0.06515   0.09603   0.13051   0.16000   0.16000
     Eigenvalues ---    0.16000   0.16000   0.16000   0.16000   0.16000
     Eigenvalues ---    0.16000   0.16668   0.17954   0.21995   0.24999
     Eigenvalues ---    0.25000   0.29244   0.29248   0.30196   0.31087
     Eigenvalues ---    0.32012   0.32317   0.32384   0.32450   0.32451
     Eigenvalues ---    0.32475   0.32486   0.32494   0.32497   0.32507
     Eigenvalues ---    0.32527   0.32563   0.94127
 Quadratic step=7.336D-01 exceeds max=3.000D-01 adjusted using Lamda=-5.493D-02.
 Angle between NR and scaled steps=  27.12 degrees.
 Angle between quadratic step and forces=  37.28 degrees.
 Linear search not attempted -- option 19 set.
 Iteration  1 RMS(Cart)=  0.04584020 RMS(Int)=  0.00374967
 Iteration  2 RMS(Cart)=  0.00331686 RMS(Int)=  0.00221670
 Iteration  3 RMS(Cart)=  0.00002875 RMS(Int)=  0.00221659
 Iteration  4 RMS(Cart)=  0.00000034 RMS(Int)=  0.00221659
 Variable       Old X    -DE/DX   Delta X   Delta X   Delta X     New X
                                 (Linear)    (Quad)   (Total)
    R1        2.89498  -0.00193   0.00000  -0.00556  -0.00556   2.88941
    R2        2.89488  -0.00187   0.00000  -0.00538  -0.00538   2.88950
    R3        2.85847  -0.00026   0.00000  -0.00070  -0.00070   2.85777
    R4        2.10268  -0.01115   0.00000  -0.02948  -0.02948   2.07320
    R5        2.84122   0.00184   0.00000   0.00491   0.00491   2.84612
    R6        2.87574  -0.00530   0.00000  -0.01486  -0.01486   2.86088
    R7        2.09890  -0.00981   0.00000  -0.02580  -0.02580   2.07310
    R8        2.10147  -0.01234   0.00000  -0.03257  -0.03257   2.06889
    R9        2.09925  -0.01334   0.00000  -0.03511  -0.03511   2.06414
   R10        2.09983  -0.01253   0.00000  -0.03300  -0.03300   2.06683
   R11        2.10027  -0.01388   0.00000  -0.03658  -0.03658   2.06369
   R12        2.09944  -0.01346   0.00000  -0.03543  -0.03543   2.06401
   R13        2.10026  -0.01393   0.00000  -0.03670  -0.03670   2.06356
   R14        2.09964  -0.01260   0.00000  -0.03318  -0.03318   2.06646
   R15        2.31087  -0.02183   0.00000  -0.02191  -0.02191   2.28896
   R16        2.09950  -0.01421   0.00000  -0.03741  -0.03741   2.06209
   R17        2.09826  -0.01471   0.00000  -0.03865  -0.03865   2.05962
    A1        1.93566   0.00262   0.00000   0.01037   0.01021   1.94587
    A2        1.92877  -0.00149   0.00000  -0.01064  -0.01061   1.91815
    A3        1.88198   0.00003   0.00000   0.00569   0.00555   1.88754
    A4        1.92901  -0.00233   0.00000  -0.01391  -0.01387   1.91514
    A5        1.88000   0.00088   0.00000   0.01128   0.01118   1.89118
    A6        1.90696   0.00038   0.00000  -0.00184  -0.00178   1.90519
    A7        1.92915   0.00307   0.00000   0.01120   0.01120   1.94035
    A8        1.90596  -0.00070   0.00000  -0.00157  -0.00165   1.90430
    A9        1.92547  -0.00382   0.00000  -0.02266  -0.02268   1.90279
   A10        1.91048  -0.00012   0.00000   0.00475   0.00471   1.91519
   A11        1.90298   0.00081   0.00000   0.00561   0.00566   1.90864
   A12        1.88932   0.00073   0.00000   0.00266   0.00256   1.89188
   A13        1.92158  -0.00031   0.00000  -0.00115  -0.00119   1.92039
   A14        1.92049   0.00391   0.00000   0.01913   0.01913   1.93963
   A15        1.93451  -0.00198   0.00000  -0.01049  -0.01048   1.92403
   A16        1.88818  -0.00108   0.00000  -0.00249  -0.00254   1.88564
   A17        1.89829   0.00065   0.00000   0.00121   0.00118   1.89947
   A18        1.89994  -0.00121   0.00000  -0.00628  -0.00622   1.89371
   A19        1.92149  -0.00055   0.00000  -0.00223  -0.00228   1.91921
   A20        1.93465  -0.00192   0.00000  -0.01028  -0.01027   1.92438
   A21        1.92019   0.00448   0.00000   0.02181   0.02181   1.94200
   A22        1.89803   0.00072   0.00000   0.00144   0.00141   1.89943
   A23        1.88843  -0.00121   0.00000  -0.00295  -0.00301   1.88542
   A24        1.90022  -0.00156   0.00000  -0.00791  -0.00785   1.89237
   A25        2.10704  -0.01248   0.00000  -0.04087  -0.04092   2.06611
   A26        2.09274   0.00213   0.00000   0.00702   0.00696   2.09970
   A27        2.08336   0.01036   0.00000   0.03403   0.03398   2.11734
   A28        1.92732   0.01437   0.00000   0.09368   0.08440   2.01172
   A29        1.91975   0.01670   0.00000   0.10475   0.09548   2.01523
   A30        1.90661  -0.00287   0.00000   0.03863   0.02510   1.93171
    D1        1.04637   0.00090   0.00000   0.00622   0.00624   1.05261
    D2        3.12601   0.00181   0.00000   0.01434   0.01440   3.14040
    D3       -1.05473   0.00157   0.00000   0.01225   0.01226  -1.04248
    D4       -3.09131  -0.00129   0.00000  -0.01176  -0.01178  -3.10309
    D5       -1.01167  -0.00038   0.00000  -0.00364  -0.00363  -1.01529
    D6        1.09078  -0.00062   0.00000  -0.00573  -0.00577   1.08501
    D7       -1.00809  -0.00166   0.00000  -0.01670  -0.01672  -1.02481
    D8        1.07155  -0.00076   0.00000  -0.00857  -0.00856   1.06298
    D9       -3.10919  -0.00099   0.00000  -0.01066  -0.01070  -3.11990
   D10       -1.04831  -0.00057   0.00000  -0.00473  -0.00478  -1.05308
   D11        1.05249  -0.00127   0.00000  -0.01105  -0.01107   1.04142
   D12       -3.12801  -0.00153   0.00000  -0.01327  -0.01335  -3.14136
   D13        3.08951   0.00113   0.00000   0.01136   0.01136   3.10087
   D14       -1.09288   0.00043   0.00000   0.00504   0.00507  -1.08781
   D15        1.00981   0.00018   0.00000   0.00281   0.00278   1.01259
   D16        1.00737   0.00148   0.00000   0.01475   0.01480   1.02217
   D17        3.10816   0.00077   0.00000   0.00843   0.00851   3.11667
   D18       -1.07233   0.00052   0.00000   0.00620   0.00622  -1.06611
   D19        2.06723  -0.00112   0.00000  -0.00986  -0.00984   2.05739
   D20       -1.08516   0.00012   0.00000   0.00993   0.00979  -1.07537
   D21       -2.06658  -0.00042   0.00000  -0.01365  -0.01352  -2.08010
   D22        1.06422   0.00081   0.00000   0.00614   0.00611   1.07032
   D23       -0.00082  -0.00050   0.00000  -0.00930  -0.00921  -0.01003
   D24        3.12998   0.00073   0.00000   0.01048   0.01042   3.14039
   D25       -1.13745   0.00033   0.00000   0.00569   0.00574  -1.13171
   D26        2.01488  -0.00085   0.00000  -0.01382  -0.01392   2.00096
   D27        0.96528   0.00164   0.00000   0.01756   0.01760   0.98288
   D28       -2.16557   0.00046   0.00000  -0.00196  -0.00207  -2.16764
   D29        3.03972  -0.00019   0.00000   0.00621   0.00635   3.04606
   D30       -0.09114  -0.00137   0.00000  -0.01330  -0.01332  -0.10445
   D31       -1.09134   0.00941   0.00000   0.09801   0.10099  -0.99035
   D32        3.08621  -0.00709   0.00000  -0.07833  -0.08128   3.00492
   D33        3.09183   0.00843   0.00000   0.08988   0.09283  -3.09853
   D34        0.98618  -0.00807   0.00000  -0.08647  -0.08945   0.89673
   D35        1.02804   0.00715   0.00000   0.08061   0.08358   1.11162
   D36       -1.07760  -0.00936   0.00000  -0.09573  -0.09870  -1.17630
         Item               Value     Threshold  Converged?
 Maximum Force            0.021831     0.000002     NO 
 RMS     Force            0.006645     0.000001     NO 
 Maximum Displacement     0.171613     0.000006     NO 
 RMS     Displacement     0.045714     0.000004     NO 
 Predicted change in Energy=-9.965251D-03
 GradGradGradGradGradGradGradGradGradGradGradGradGradGradGradGradGradGrad

                          Input orientation:                          
 ---------------------------------------------------------------------
 Center     Atomic      Atomic             Coordinates (Angstroms)
 Number     Number       Type             X           Y           Z
 ---------------------------------------------------------------------
      1          6           0       -0.641003    0.134617    0.501990
      2          6           0        1.678655   -0.836946   -0.127058
      3          6           0       -1.184886    1.389407   -0.181800
      4          6           0       -1.771229   -0.756844    1.017651
      5          6           0        0.223390   -0.644374   -0.463902
      6          6           0        2.416324    0.485017   -0.113302
      7          1           0       -0.031059    0.449064    1.357967
      8          1           0        1.759254   -1.316325    0.856400
      9          1           0        2.132884   -1.498221   -0.872043
     10          1           0       -1.777585    1.973830    0.525500
     11          1           0       -0.371845    2.023176   -0.547201
     12          1           0       -1.817146    1.114226   -1.028625
     13          1           0       -2.373569   -0.210848    1.747058
     14          1           0       -2.414273   -1.067887    0.191705
     15          1           0       -1.378300   -1.652845    1.506103
     16          8           0       -0.250730   -1.090421   -1.485379
     17          1           0        2.358465    1.060257   -1.038769
     18          1           0        3.442553    0.445214    0.251603
 ---------------------------------------------------------------------
                    Distance matrix (angstroms):
                    1          2          3          4          5
     1  C    0.000000
     2  C    2.592383   0.000000
     3  C    1.529011   3.627604   0.000000
     4  C    1.529059   3.635723   2.527622   0.000000
     5  C    1.512266   1.506103   2.489796   2.487198   0.000000
     6  C    3.138249   1.513912   3.713667   4.511859   2.491466
     7  H    1.097089   2.604274   2.141598   2.144346   2.139989
     8  H    2.827025   1.097037   4.131199   3.578175   2.133915
     9  H    3.499796   1.094810   4.452238   4.400305   2.131150
    10  H    2.162192   4.502432   1.092298   2.774677   3.440611
    11  H    2.177132   3.544202   1.093717   3.483612   2.734422
    12  H    2.164654   4.103720   1.092058   2.773131   2.752339
    13  H    2.161325   4.508307   2.773856   1.092227   3.438093
    14  H    2.164897   4.111813   2.772939   1.091989   2.750717
    15  H    2.178732   3.560602   3.484497   1.093525   2.731912
    16  O    2.366995   2.373144   2.953220   2.947601   1.211265
    17  H    3.496791   2.211953   3.660337   4.958335   2.791914
    18  H    4.102998   2.213290   4.742629   5.405118   3.473062
                    6          7          8          9         10
     6  C    0.000000
     7  H    2.855802   0.000000
     8  H    2.148696   2.563862   0.000000
     9  H    2.142255   3.667084   1.777695   0.000000
    10  H    4.495943   2.463385   4.841884   5.412950   0.000000
    11  H    3.213734   2.494720   4.202850   4.333523   1.768962
    12  H    4.376755   3.054237   4.717153   4.738367   1.776454
    13  H    5.185387   2.464595   4.369849   5.368904   2.572979
    14  H    5.083227   3.056308   4.233423   4.689710   3.125514
    15  H    4.646730   2.501005   3.221740   4.243572   3.778066
    16  O    3.387886   3.240815   3.094349   2.494814   3.970460
    17  H    1.091209   3.439145   3.098202   2.573809   4.515358
    18  H    1.089902   3.645550   2.510436   2.598990   5.446239
                   11         12         13         14         15
    11  H    0.000000
    12  H    1.773938   0.000000
    13  H    3.776425   3.125675   0.000000
    14  H    3.777852   2.570482   1.776316   0.000000
    15  H    4.329220   3.778109   1.768608   1.772867   0.000000
    16  O    3.254125   2.742763   3.965948   2.737523   3.246028
    17  H    2.936570   4.175972   5.636371   5.368620   5.272638
    18  H    4.204484   5.454447   6.041033   6.049419   5.405205
                   16         17         18
    16  O    0.000000
    17  H    3.410685   0.000000
    18  H    4.360690   1.794041   0.000000
 Stoichiometry    C6H11O(2)
 Framework group  C1[X(C6H11O)]
 Deg. of freedom    48
 Full point group                 C1      NOp   1
 Largest Abelian subgroup         C1      NOp   1
 Largest concise Abelian subgroup C1      NOp   1
                         Standard orientation:                         
 ---------------------------------------------------------------------
 Center     Atomic      Atomic             Coordinates (Angstroms)
 Number     Number       Type             X           Y           Z
 ---------------------------------------------------------------------
      1          6           0        0.799720    0.320439   -0.392272
      2          6           0       -1.657264   -0.506329   -0.403802
      3          6           0        1.271903    1.383623    0.599977
      4          6           0        1.951688   -0.580931   -0.837831
      5          6           0       -0.292390   -0.518294    0.232846
      6          6           0       -2.289741    0.866308   -0.315667
      7          1           0        0.399386    0.831950   -1.276406
      8          1           0       -1.565656   -0.805109   -1.455386
      9          1           0       -2.295971   -1.233691    0.107674
     10          1           0        2.033192    2.015539    0.137122
     11          1           0        0.443872    2.025585    0.913773
     12          1           0        1.698436    0.909933    1.486700
     13          1           0        2.724440    0.016001   -1.327202
     14          1           0        2.390714   -1.087407    0.024248
     15          1           0        1.610101   -1.339629   -1.547403
     16          8           0       -0.067064   -1.172900    1.226768
     17          1           0       -2.385515    1.271037    0.693174
     18          1           0       -3.219979    0.990095   -0.869941
 ---------------------------------------------------------------------
 Rotational constants (GHZ):      3.6706065      1.8669636      1.6791974
 Standard basis: 6-311+G(2df,2p) (5D, 7F)
 There are   337 symmetry adapted basis functions of A   symmetry.
 Integral buffers will be    131072 words long.
 Raffenetti 2 integral format.
 Two-electron integral symmetry is turned on.
   337 basis functions,   485 primitive gaussians,   372 cartesian basis functions
    28 alpha electrons       27 beta electrons
       nuclear repulsion energy       307.1272769399 Hartrees.
 NAtoms=   18 NActive=   18 NUniq=   18 SFac= 1.00D+00 NAtFMM=   50 NAOKFM=F Big=F
 One-electron integrals computed using PRISM.
 NBasis=   337 RedAO= T  NBF=   337
 NBsUse=   337 1.00D-06 NBFU=   337
 Initial guess read from the read-write file.
 B after Tr=     0.000000    0.000000    0.000000
         Rot=    1.000000    0.000000    0.000000    0.000000 Ang=   0.00 deg.
 Initial guess orbital symmetries:
 Alpha Orbitals:
       Occupied  (A) (A) (A) (A) (A) (A) (A) (A) (A) (A) (A) (A)
                 (A) (A) (A) (A) (A) (A) (A) (A) (A) (A) (A) (A)
                 (A) (A) (A) (A)
       Virtual   (A) (A) (A) (A) (A) (A) (A) (A) (A) (A) (A) (A)
                 (A) (A) (A) (A) (A) (A) (A) (A) (A) (A) (A) (A)
                 (A) (A) (A) (A) (A) (A) (A) (A) (A) (A) (A) (A)
                 (A) (A) (A) (A) (A) (A) (A) (A) (A) (A) (A) (A)
                 (A) (A) (A) (A) (A) (A) (A) (A) (A) (A) (A) (A)
                 (A) (A) (A) (A) (A) (A) (A) (A) (A) (A) (A) (A)
                 (A) (A) (A) (A) (A) (A) (A) (A) (A) (A) (A) (A)
                 (A) (A) (A) (A) (A) (A) (A) (A) (A) (A) (A) (A)
                 (A) (A) (A) (A) (A) (A) (A) (A) (A) (A) (A) (A)
                 (A) (A) (A) (A) (A) (A) (A) (A) (A) (A) (A) (A)
                 (A) (A) (A) (A) (A) (A) (A) (A) (A) (A) (A) (A)
                 (A) (A) (A) (A) (A) (A) (A) (A) (A) (A) (A) (A)
                 (A) (A) (A) (A) (A) (A) (A) (A) (A) (A) (A) (A)
                 (A) (A) (A) (A) (A) (A) (A) (A) (A) (A) (A) (A)
                 (A) (A) (A) (A) (A) (A) (A) (A) (A) (A) (A) (A)
                 (A) (A) (A) (A) (A) (A) (A) (A) (A) (A) (A) (A)
                 (A) (A) (A) (A) (A) (A) (A) (A) (A) (A) (A) (A)
                 (A) (A) (A) (A) (A) (A) (A) (A) (A) (A) (A) (A)
                 (A) (A) (A) (A) (A) (A) (A) (A) (A) (A) (A) (A)
                 (A) (A) (A) (A) (A) (A) (A) (A) (A) (A) (A) (A)
                 (A) (A) (A) (A) (A) (A) (A) (A) (A) (A) (A) (A)
                 (A) (A) (A) (A) (A) (A) (A) (A) (A) (A) (A) (A)
                 (A) (A) (A) (A) (A) (A) (A) (A) (A) (A) (A) (A)
                 (A) (A) (A) (A) (A) (A) (A) (A) (A) (A) (A) (A)
                 (A) (A) (A) (A) (A) (A) (A) (A) (A) (A) (A) (A)
                 (A) (A) (A) (A) (A) (A) (A) (A) (A)
 Beta  Orbitals:
       Occupied  (A) (A) (A) (A) (A) (A) (A) (A) (A) (A) (A) (A)
                 (A) (A) (A) (A) (A) (A) (A) (A) (A) (A) (A) (A)
                 (A) (A) (A)
       Virtual   (A) (A) (A) (A) (A) (A) (A) (A) (A) (A) (A) (A)
[...]
 3,-0.0026486,0.0442255,1.3116471,0.0257704,0.1352977,-0.1340552,0.3922
 716,0.4498093,0.1780747,0.5627883,0.7579641,-0.3230676,0.1380269,-0.02
 70391,0.2844043,0.0549719,0.0119522,-0.0209524,0.0090689,0.0862662,-0.
 0576461,-0.0250567,-0.0874313,-0.0200022,0.0047805,0.0007523,-0.080944
 2,-0.0051532,-0.0536637,0.0690063,-0.0165421,0.0090993,-0.0127272,0.02
 593,0.0469555,0.0089138,0.0691197,-0.0409397,0.033087,0.0161816,0.0176
 896,0.0127758,-0.0133645,-0.0457424,0.0521544,-0.0683081,0.012632,-0.0
 102033,0.0907542,0.0601529,0.0703685,-0.0134456,-0.0481862,0.0651319,-
 0.0670868,-0.0093546,-0.0478341,-0.0925882,0.0453621,-0.0694013,-0.003
 8413,0.047951,0.039737,0.0463847,0.040395,0.0123384,0.0139862,-0.06239
 32,-0.0393368,0.0385008,-0.0442,-0.0735299,0.0094613,-0.0137948,-0.025
 0597,0.0300045,0.0866387,0.0581227,0.0012775,-0.0748065,0.0872173,-0.0
 489764,-0.0103458,0.012948,-0.0246099,-0.0247351,-0.0262699,0.0583462,
 0.0093384,-0.0943669,-0.0224674,-0.0152165,0.0289219,0.0474525,-0.0253
 783,0.0054319,-0.0839746,0.0914295,-0.0013639,0.0778141,0.0273188,-0.7
 77426,-0.1267683,-0.1551663,-0.0622847,-0.5339612,-0.2850419,-0.252505
 4,-0.3971828,-0.809412,0.1191855,-0.0444019,-0.0006286,-0.07108,0.0130
 253,0.0138974,0.019015,0.0363879,-0.0194962,0.1442623,-0.0387514,0.010
 41,-0.0696166,0.0004732,-0.0200761,0.0016495,-0.0446069,-0.0216943\Pol
 ar=83.4141846,2.3345718,72.0910819,-2.1710998,2.1752266,67.8670735\PG=
 C01 [X(C6H11O1)]\NImag=0\\0.52392278,0.02255477,0.44483783,0.06857380,
 0.03656869,0.54475301,-0.01349198,0.00193172,-0.00433434,0.37654711,0.
 01671893,0.01116057,-0.00612979,-0.02733509,0.51045630,0.01619668,-0.0
 0837496,0.00913480,-0.02699118,0.03156535,0.59758635,-0.08356012,0.033
 51875,-0.02037268,-0.00142653,-0.00122235,0.00203912,0.56988042,0.0225
 4524,-0.15252923,0.04395604,-0.00051830,0.00128731,-0.00129175,0.03082
 236,0.49710109,-0.01318332,0.03310652,-0.09686644,0.00206607,0.0020383
 5,-0.00267046,-0.01831602,0.04460219,0.55333178,-0.14935699,-0.0546483
 2,0.02593017,-0.00024080,0.00140240,0.00082795,0.00720947,0.00185176,-
 0.00164183,0.50432696,-0.04431710,-0.10419155,0.01183816,0.00218242,-0
 .00306039,-0.00100137,-0.02669709,-0.02282949,0.01386601,-0.04775601,0
 .55317841,0.02532848,0.01722209,-0.09087516,0.00117395,-0.00193146,-0.
 00044487,0.01321812,0.01259210,-0.00624158,0.02299727,0.01425952,0.573
 19254,-0.12221972,0.03258811,0.03944216,-0.13975091,0.03919813,0.00914
 471,-0.00698460,0.01135253,0.00105032,-0.02245906,0.01161224,0.0203776
 5,0.56032704,0.02497164,-0.09797925,-0.02786536,0.01969424,-0.07885891
 ,0.00249295,0.02020027,-0.02922413,-0.01518382,-0.00299585,0.01375049,
 0.01265393,0.06237942,0.41408365,0.02651799,-0.02460342,-0.11346896,0.
 01362634,0.00798718,-0.07754717,-0.00432707,-0.00082207,0.01598525,0.0
 1777946,-0.00032126,-0.01109103,0.19106546,0.27390818,0.73637071,0.000
 90032,0.00325525,-0.00102497,-0.06764235,-0.08132637,0.01223617,-0.001
 34545,0.00148478,0.00078538,0.00052581,-0.00071727,-0.00107663,-0.0204
 1944,-0.02862635,0.00111079,0.13493737,0.00184934,0.00117170,0.0004711
 5,-0.06183247,-0.20390616,0.00878522,0.00057860,0.00012721,-0.00031185
 ,0.00015079,-0.00084877,-0.00060095,-0.02564474,-0.00622503,-0.0060652
 5,0.17841272,0.46986405,0.00118146,0.00118075,-0.00039935,0.00776036,0
 .00130257,-0.08406654,-0.00030820,0.00018923,-0.00005812,-0.00003201,-
 0.00012310,0.00015127,-0.00080703,-0.00464569,-0.00210647,-0.02370690,
 0.02049706,0.63855904,-0.13844301,-0.03254156,-0.11978387,-0.00073226,
 0.00062625,0.00028080,-0.00541884,-0.00102542,-0.00801277,-0.01672821,
 -0.00652115,-0.02010072,0.01123334,0.00245735,0.01412405,0.00024087,0.
 00028359,0.00035781,0.15264513,-0.02982311,-0.05699120,-0.04198730,0.0
 0004293,0.00021737,0.00014870,0.01814686,0.00444202,0.02507690,-0.0103
 3720,-0.00413683,-0.01296326,-0.01378434,-0.00487243,-0.01356697,0.000
 27043,0.00005992,0.00026179,0.03321940,0.06707649,-0.11438902,-0.04296
 428,-0.20424772,0.00054616,0.00041695,0.00084601,-0.00785995,-0.001437
 79,-0.01105682,0.00791917,0.00296224,0.01025046,-0.01808241,-0.0018429
 5,-0.01693256,-0.00025690,-0.00015574,-0.00007684,0.12655891,0.0448145
 7,0.22251119,-0.00010333,-0.00222462,0.00211958,-0.04781429,0.02465503
 ,-0.03588791,0.00067177,-0.00049304,-0.00052102,-0.00008898,0.00047095
 ,0.00032586,-0.00233732,0.01416244,-0.03328355,0.00076017,-0.00887918,
 0.01714645,-0.00018287,0.00057169,0.00055836,0.05467515,0.00048765,0.0
 0032009,0.00025207,0.02057613,-0.08813208,0.09101116,-0.00020577,-0.00
 003808,-0.00006821,-0.00002343,-0.00000704,-0.00026682,-0.00003487,-0.
 00102276,0.00200172,0.00038563,-0.01386890,0.02865556,0.00017089,-0.00
 040226,-0.00032438,-0.01545025,0.09633003,-0.00009017,-0.00103994,0.00
 035351,-0.03172144,0.09306087,-0.26034622,0.00028746,0.00034771,0.0000
 7867,-0.00021981,0.00004879,0.00003724,-0.00155398,0.00028552,-0.00724
 546,0.00076242,0.00124620,-0.00059644,0.00035059,-0.00000623,0.0002971
 3,0.03858368,-0.10396362,0.28025935,-0.00471576,-0.00073599,-0.0022523
 6,-0.07247118,0.05814021,0.06545823,-0.00036257,-0.00001129,0.00049737
 ,-0.00037971,0.00090990,0.00041831,-0.01904117,0.02314563,0.02682912,0
 .00330563,-0.01202834,-0.01330268,0.00024052,-0.00028002,-0.00037319,0
 .00135788,-0.00462523,-0.00397966,0.08746179,0.00042684,0.00147478,0.0
 0007916,0.06209924,-0.14810410,-0.11310899,-0.00025570,-0.00002357,0.0
 0011461,0.00012195,-0.00028287,-0.00015023,0.00241424,-0.00257716,-0.0
 0402600,0.00475660,-0.01815806,-0.02105030,-0.00032609,-0.00003032,-0.
 00002524,-0.00628312,0.00952513,0.00936551,-0.06098393,0.16003345,-0.0
 0082720,-0.00112412,0.00054940,0.06992411,-0.11124709,-0.18520118,0.00
 040164,-0.00001783,-0.00010504,-0.00012956,0.00013722,0.00028827,-0.00
 297831,0.00166005,0.00076601,-0.00229338,-0.00062945,0.00321991,0.0000
 0926,0.00026135,0.00039058,0.01035186,-0.01660010,-0.01634992,-0.07389
 691,0.12578474,0.19381139,-0.00619356,0.00710017,0.00549383,0.00000270
 ,-0.00048089,0.00039433,-0.12176661,0.07676059,0.09277816,0.00053904,-
 0.00114592,-0.00015782,0.00047085,0.00004131,-0.00278027,-0.00071851,0
 .00014717,-0.00006068,-0.00008797,-0.00025264,0.00008472,0.00009020,0.
 00003362,0.00001741,-0.00005768,0.00001446,0.00005330,0.12823634,0.014
 93541,-0.01920837,-0.01765368,0.00073783,0.00008743,-0.00096252,0.0762
 4393,-0.12630670,-0.09573916,0.00074850,0.00144201,-0.00145834,-0.0001
 7098,-0.00279192,0.00520881,-0.00007039,-0.00008958,0.00007134,-0.0002
 2911,0.00119586,0.00013738,-0.00015917,0.00003074,-0.00001619,0.000259
 74,0.00004190,-0.00006184,-0.08612529,0.13903139,-0.00888657,0.0121632
 2,0.00930920,-0.00052142,-0.00045705,0.00042768,0.09211119,-0.09641222
 ,-0.16002359,-0.00080566,-0.00043216,0.00072331,-0.00007825,0.00173127
 ,-0.00322308,0.00004917,0.00005824,0.00000102,0.00015215,-0.00088935,0
 .00074034,0.00013795,-0.00000471,0.00004193,-0.00006658,-0.00001222,0.
 00006588,-0.10074774,0.10204638,0.17124746,0.00970476,0.00589015,-0.00
 311127,0.00030823,-0.00009721,-0.00007491,-0.21928989,-0.11261149,0.06
 371235,-0.00011420,0.00165483,-0.00065499,0.00063034,0.00027472,0.0004
 4568,-0.00034953,0.00017152,-0.00006689,0.00048422,-0.00073277,0.00026
 521,-0.00002355,-0.00002776,-0.00003184,0.00005184,-0.00000471,0.00001
 044,-0.01285572,-0.00854693,0.00331284,0.23463702,-0.02195178,-0.01476
 552,0.00598837,0.00068558,-0.00054553,0.00000932,-0.11150049,-0.120147
 89,0.04036556,0.00317989,-0.00470714,0.00243061,-0.00201611,0.00057313
 ,0.00151332,-0.00068497,-0.00014246,-0.00004548,0.00023371,0.00114373,
 -0.00014348,-0.00005626,0.00006646,-0.00002947,0.00006080,0.00005216,0
 .00000098,0.01496041,0.01047488,-0.00458460,0.12179662,0.13206788,0.01
 117117,0.00637443,-0.00498034,-0.00029733,0.00031104,-0.00011569,0.063
 21242,0.04036626,-0.07215170,-0.00153419,0.00267541,-0.00088320,0.0003
 0236,-0.00047955,0.00006977,0.00055697,0.00002552,0.00023900,0.0002951
 4,-0.00056514,0.00013196,0.00000361,0.00002077,-0.00001018,-0.00006979
 ,-0.00004762,-0.00001431,0.01618454,0.01194555,-0.00610754,-0.06955141
 ,-0.04754066,0.07391444,-0.00737491,-0.00032303,-0.00784080,0.00015691
 ,0.00013060,-0.00000568,-0.13419417,-0.03241691,-0.11970807,0.00072302
 ,-0.00032623,0.00115112,-0.00109247,-0.00140773,-0.00278628,-0.0002551
 7,0.00008828,-0.00005381,0.00032015,0.00181983,-0.00038990,0.00002116,
 -0.00002401,0.00007208,-0.00003782,0.00003637,0.00004864,0.01116700,0.
 00309132,0.01487895,-0.01373326,-0.00439899,-0.02056271,0.14297048,0.0
 1758981,0.00324019,0.02438713,-0.00011974,-0.00020839,0.00010206,-0.03
 400220,-0.05736907,-0.04648296,0.00094077,0.00191401,-0.00016122,0.001
 17398,0.00199338,0.00208823,-0.00016881,0.00007686,-0.00009856,0.00179
 007,-0.00505697,0.00246382,-0.00005755,0.00004846,-0.00016254,0.000060
 68,0.00001536,-0.00008423,-0.01107050,-0.00412138,-0.01284531,-0.00810
 529,-0.00377271,-0.01382277,0.03359728,0.06351938,-0.00919190,-0.00118
 533,-0.01259890,-0.00005899,-0.00002789,0.00005839,-0.12059877,-0.0444
 9424,-0.21646679,-0.00017803,-0.00100958,0.00038164,0.00064448,-0.0011
 8157,-0.00091806,0.00000845,0.00001526,-0.00002475,-0.00032297,0.00263
 266,0.00002070,0.00004675,-0.00005953,0.00003208,-0.00002051,-0.000025
 16,0.00005615,-0.01176176,-0.00326775,-0.01529809,0.00656264,0.0020754
 2,0.00960977,0.13344173,0.04577462,0.23395184,-0.01710221,0.01341613,0
 .02009236,-0.00063223,0.00097571,0.00045413,0.00114382,0.00163229,-0.0
 0095935,-0.12019798,0.07905539,0.09091955,-0.00291116,-0.00548528,-0.0
 0153964,0.00024962,0.00032184,0.00006290,0.00060135,0.00051065,-0.0007
 1694,-0.00007719,0.00003925,-0.00001261,-0.00032360,0.00010068,-0.0000
 6150,0.00056630,-0.00082614,0.00008040,0.00003642,-0.00000957,-0.00046
 675,0.00001323,-0.00017455,-0.00003184,0.13129831,-0.01053511,0.008509
 57,0.01375710,-0.00040057,0.00063355,0.00029369,-0.00042566,0.00176523
 ,0.00018733,0.07950141,-0.12851882,-0.09561129,-0.00302456,-0.00315191
 ,-0.00000410,0.00014184,0.00015484,0.00000557,0.00079778,0.00057612,-0
 .00046588,-0.00011035,-0.00000246,-0.00002884,-0.00020974,0.00006616,-
 0.00002552,0.00005094,-0.00014335,-0.00032039,0.00007786,0.00018848,-0
 .00013303,0.00012383,-0.00004147,0.00005888,-0.08369470,0.13735834,0.0
 0388315,-0.00503358,-0.00646616,0.00027223,-0.00019809,-0.00042162,-0.
 00027779,-0.00097246,0.00004567,0.09095903,-0.09438033,-0.15894469,0.0
 0096588,0.00089416,-0.00029728,-0.00007530,-0.00010572,0.00002590,-0.0
 0006141,0.00032994,0.00045477,0.00003668,0.00002317,0.00003502,0.00015
 267,-0.00000582,0.00004146,0.00003511,0.00076865,-0.00001530,-0.000239
 10,0.00012424,0.00026879,0.00005871,-0.00003276,-0.00010222,-0.1022982
 0,0.10328058,0.16913844,-0.01924520,-0.00738736,-0.02093257,0.00042634
 ,0.00012074,0.00017971,0.00119365,0.00150910,-0.00057676,-0.13266443,-
 0.03316124,-0.12073520,-0.00084523,-0.00124554,-0.00405176,-0.00016510
 ,-0.00012950,0.00012525,-0.00369189,-0.00275380,0.00272679,0.00017575,
 -0.00006679,0.00003272,-0.00008754,0.00003366,0.00007471,-0.00000652,-
 0.00006196,0.00015421,0.00009302,0.00029994,0.00025072,0.00049270,-0.0
 0048854,0.00045322,0.01146583,0.00355401,0.01460098,0.14603442,-0.0111
 3077,-0.00543073,-0.01347452,-0.00000710,0.00009376,-0.00008321,-0.000
 05272,0.00095357,-0.00151784,-0.03372821,-0.06076423,-0.04708440,0.000
 72817,-0.00003017,-0.00039890,-0.00003020,0.00001233,0.00000399,-0.002
 72301,-0.00123255,0.00147118,-0.00006319,-0.00002112,0.00001338,0.0000
 0428,0.00002011,0.00001806,0.00000929,-0.00007729,-0.00003120,0.000281
 84,0.00022836,0.00018038,-0.00004304,-0.00024770,0.00059009,-0.0111295
 4,-0.00447328,-0.01329193,0.04054197,0.06391529,0.00563850,0.00311204,
 0.00892131,-0.00033340,-0.00001993,-0.00005417,0.00036735,-0.00035697,
 0.00113558,-0.12371563,-0.04735438,-0.21524161,0.00039940,-0.00104708,
 0.00017214,0.00013372,0.00009852,-0.00002744,0.00251341,0.00126257,-0.
 00008675,-0.00005297,0.00002870,0.00002346,0.00000854,-0.00001328,-0.0
 0000885,-0.00015106,0.00000037,-0.00006575,0.00004486,-0.00006475,0.00
 008529,-0.00012989,-0.00024424,-0.00002900,-0.01146122,-0.00308928,-0.
 01495020,0.13256265,0.05080163,0.23088166,0.00834143,-0.02314870,0.013
 23177,0.00013710,-0.00010421,0.00005903,-0.00486525,-0.00223554,0.0017
 2100,-0.06906283,0.06451718,-0.03386731,0.00122302,-0.00110630,-0.0002
 7309,-0.00004278,-0.00004475,-0.00010432,0.00115952,0.00060545,-0.0007
 5117,-0.00009902,0.00006710,-0.00014186,0.00002804,0.00002937,-0.00003
 380,-0.00008823,-0.00007729,-0.00020986,0.00059062,-0.00154058,0.00079
 157,-0.00006811,0.00002696,0.00021570,-0.00522098,0.01342793,-0.008953
 03,-0.00542878,0.01654518,-0.00655961,0.07306938,0.00461425,-0.0120326
 5,0.00626920,-0.00023616,-0.00011504,0.00030900,-0.00396330,-0.0010845
 9,0.00089458,0.06376333,-0.23962380,0.10182107,0.00043608,-0.00055322,
 -0.00096321,-0.00012796,0.00006960,-0.00003692,0.00007509,0.00013020,-
 0.00052051,-0.00012853,-0.00001842,0.00004875,-0.00006594,0.00002331,0
 .00000290,-0.00008976,0.00049915,-0.00010275,0.00035629,-0.00073985,0.
 00070821,0.00005698,0.00011435,-0.00005127,0.00437836,-0.01402574,0.00
 822937,-0.00183337,0.00739324,-0.00367741,-0.06733200,0.25950226,-0.00
 262480,0.00617844,-0.00572176,0.00009875,-0.00003209,-0.00014284,0.002
 30500,0.00076677,-0.00008723,-0.03352736,0.10174123,-0.10276417,-0.000
 29417,0.00176764,0.00080320,0.00005902,0.00001308,0.00003022,0.0002592
 9,-0.00036371,0.00038301,0.00008310,0.00004569,-0.00000073,0.00004715,
 -0.00000137,-0.00002995,-0.00019742,0.00023368,0.00009939,-0.00022550,
 0.00076193,0.00020416,0.00014277,-0.00034817,0.00039109,0.00533161,-0.
 01849800,0.01070903,-0.00615668,0.02250031,-0.01027415,0.03489785,-0.1
 1357954,0.10679116,0.01965749,0.00110514,0.00486132,-0.03382788,-0.021
 57945,-0.04561905,-0.00085256,0.00162935,0.00008503,-0.00199735,0.0000
 8817,0.00049606,-0.23819312,-0.12529908,-0.24378946,-0.00082505,0.0047
 1956,-0.00284676,-0.00128645,0.00314609,0.00381296,-0.00705892,-0.0004
 9739,-0.00228928,0.00565305,-0.00174206,-0.00071195,0.00056400,0.00011
 911,0.00055336,0.00009897,0.00056948,-0.00008879,0.00075052,-0.0010343
 8,0.00081309,0.00113912,0.00074336,0.00091674,0.00218386,0.00077304,0.
 00075172,0.00026035,0.00001452,-0.00013149,0.25471908,-0.00830899,-0.0
 0772355,-0.03569044,-0.01147115,0.01613508,-0.01308612,-0.00106092,0.0
 0394076,-0.00117159,-0.00231207,-0.00146127,-0.00107691,-0.12143950,-0
 .20041793,-0.24288545,0.00385299,0.00292393,0.00128859,0.00382825,-0.0
 0209369,-0.00474536,-0.00358739,-0.00027884,0.00072382,-0.00153261,0.0
 0020270,0.00156651,0.00006537,-0.00016647,0.00012341,-0.00042021,-0.00
 011249,0.00002429,-0.00002798,-0.00004801,0.00013747,0.00098035,0.0011
 0770,0.00033938,0.00095567,-0.00037825,0.00061194,0.00033595,0.0004730
 7,-0.00113975,0.13949587,0.18741669,-0.00924467,-0.03166091,-0.0369591
 0,-0.03162355,-0.01872403,-0.00623593,-0.00188208,0.00280125,-0.004939
 15,-0.00475249,-0.00293034,0.00126704,-0.23963318,-0.24345641,-0.52156
 609,-0.00268559,0.00421720,-0.00086196,0.00330227,-0.00449030,-0.00389
 409,0.00122694,0.00040864,0.00107456,-0.00016218,0.00138859,0.00097369
 ,0.00086364,-0.00121208,0.00205264,-0.00030941,-0.00080800,-0.00001259
 ,0.00160908,-0.00055669,0.00094014,0.00061323,0.00059658,0.00048486,0.
 00123070,0.00026583,-0.00042855,-0.00002335,0.00065306,-0.00038213,0.2
 8255796,0.29496638,0.56822635,-0.00035564,-0.00036128,0.00032777,-0.00
 113950,-0.00356908,0.01275522,0.00000665,-0.00023039,0.00005101,-0.000
 07006,0.00011273,-0.00005709,0.00215506,-0.00038147,0.00105569,-0.0272
 0660,-0.03786007,0.04748664,-0.00005342,-0.00009166,-0.00004303,-0.000
 32271,-0.00146161,-0.00090299,0.00039507,0.00006314,-0.00100661,0.0001
 1692,0.00007451,-0.00007182,-0.00009391,0.00023679,0.00006899,0.000013
 68,0.00002679,-0.00002250,-0.00003075,-0.00000810,0.00001079,-0.000033
 09,-0.00001486,0.00000607,0.00005203,0.00004973,-0.00003187,-0.0007013
 4,0.00015802,-0.00100959,0.02350475,-0.00013047,0.00012083,-0.00027894
 ,-0.00417492,-0.00746258,0.02218981,-0.00006721,-0.00007953,0.00006009
 ,0.00008849,0.00003084,0.00010600,0.00206044,-0.00045476,0.00151174,-0
 .03911902,-0.09659398,0.10674453,0.00003569,-0.00006124,0.00007410,-0.
 00327554,-0.00416173,0.00046270,0.00080503,0.00133355,0.00016930,-0.00
 002754,0.00004203,-0.00000914,0.00002524,0.00005973,-0.00008673,-0.000
 00387,0.00000015,0.00000374,-0.00003738,0.00000471,0.00000892,0.000028
 12,0.00001797,-0.00001783,0.00002975,0.00000431,-0.00002273,-0.0006260
 7,-0.00006428,-0.00090758,0.04116874,0.09804526,-0.00012909,0.00005027
 ,-0.00032449,-0.00182414,-0.00193816,0.00360620,0.00016195,0.00028271,
 -0.00000624,0.00007554,-0.00003124,0.00010203,-0.00001961,-0.00004135,
 0.00046458,0.05174195,0.10670084,-0.29296282,-0.00001738,-0.00000511,0
 .00015725,-0.00027226,-0.00069456,0.00127353,0.00038504,0.00043547,0.0
 0056385,-0.00007585,-0.00005614,0.00003403,-0.00001976,-0.00014563,-0.
 00003449,-0.00000726,-0.00003207,0.00002178,-0.00000205,0.00000485,-0.
 00001029,0.00002755,0.00002287,-0.00001598,-0.00000910,-0.00002465,0.0
 0000378,0.00031437,0.00009100,-0.00020337,-0.05461343,-0.11552509,0.30
 085377,-0.00036436,0.00001067,-0.00041989,0.00159150,-0.00625336,-0.01
 144736,-0.00003919,-0.00004564,0.00017244,0.00003629,0.00003820,0.0002
 4337,0.00021454,-0.00077944,0.00027656,-0.02194981,-0.04030437,-0.0328
 3160,-0.00030017,-0.00027779,0.00039022,0.00035608,0.00065686,0.000837
 26,-0.00101679,-0.00050093,0.00106526,0.00002145,0.00005692,-0.0000423
 3,-0.00017538,0.00013553,-0.00026651,0.00012707,0.00001522,0.00000120,
 -0.00001792,-0.00001018,0.00001286,0.00010223,0.00003886,-0.00002245,0
 .00001449,0.00003238,-0.00003526,-0.00028378,0.00048836,-0.00007774,0.
 00376284,0.00322054,0.00428355,0.01792092,-0.00049656,0.00001649,-0.00
 048704,-0.00185458,-0.00967820,-0.01899832,-0.00005736,0.00001511,0.00
 016329,0.00005180,0.00011646,0.00021955,0.00217176,-0.00224110,-0.0005
 6254,-0.04168892,-0.13462749,-0.13420092,-0.00015173,0.00003577,0.0002
 8537,0.00090808,0.00163279,-0.00035640,-0.00291318,-0.00361252,0.00018
 906,0.00000921,0.00005966,-0.00002142,0.00001729,0.00007878,0.00004364
 ,0.00002732,-0.00005645,0.00001417,-0.00005350,-0.00000765,0.00002227,
 0.00008490,0.00002067,-0.00003063,0.00000450,-0.00001618,-0.00002340,-
 0.00162526,0.00054486,-0.00055119,0.00208807,0.00921873,0.01090600,0.0
 4347818,0.13850028,0.00007551,0.00003009,-0.00011285,0.00223781,0.0040
 2326,0.00558725,-0.00016170,-0.00009893,0.00009621,0.00004797,0.000055
 16,0.00009252,0.00005451,0.00035007,-0.00023548,-0.03632437,-0.1342593
 4,-0.26104562,0.00009544,0.00004889,0.00011138,-0.00060311,-0.00046554
 ,0.00104247,0.00032742,0.00129815,0.00098266,0.00002755,0.00001554,-0.
 00000952,-0.00006894,0.00009232,-0.00021315,0.00008132,0.00005567,-0.0
 0002576,-0.00000408,-0.00000824,0.00000381,0.00003377,0.00001429,-0.00
 003697,0.00000958,0.00002013,-0.00001207,0.00031416,-0.00007716,0.0004
 6369,-0.00400326,-0.01448288,-0.01352311,0.03786043,0.14338851,0.26683
 454\\-0.00000018,0.00000061,-0.00000033,0.00000327,0.00000423,0.000005
 48,-0.00000523,-0.00000538,-0.00000881,0.00000289,-0.00000102,0.000004
 88,0.00000288,-0.00000281,0.00000501,-0.00000183,0.00000631,-0.0000032
 7,-0.00000102,0.00000852,-0.00000192,0.00000510,0.00001126,0.00000833,
 0.00000578,0.00000083,0.00000979,-0.00000752,-0.00000306,-0.00001266,-
 0.00000753,-0.00000420,-0.00001262,-0.00000453,-0.00001334,-0.00000733
 ,0.00000067,0.00000129,0.00000110,0.00000373,-0.00000893,0.00000654,0.
 00000644,0.00000327,0.00001084,0.00000468,-0.00001109,0.00000818,-0.00
 000366,0.00000089,-0.00000615,-0.00000395,0.00001264,-0.00000707\\\@


 ART, GLORY, FREEDOM FAIL, BUT NATURE STILL IS FAIR.

                                           -- BYRON
 Job cpu time:  0 days  6 hours 32 minutes 28.9 seconds.
 File lengths (MBytes):  RWF=   2640 Int=      0 D2E=      0 Chk=     32 Scr=     32
 Normal termination of Gaussian 09 at Tue Mar 14 23:17:41 2017.
