 Entering Gaussian System, Link 0=/shared/apps/gaussian/G09_LINUX_LINDA/g09/g09
 Input=/gss_gpfs_scratch/westgroup/QMscratch/AFGPRWUFPLEMTF-UHFFFAOYSA-u1.gjf
 Output=/gss_gpfs_scratch/westgroup/QMscratch/AFGPRWUFPLEMTF-UHFFFAOYSA-u1.log
 Initial command:
 /shared/apps/gaussian/G09_LINUX_LINDA/g09/l1.exe /gss_gpfs_scratch/westgroup/rwest-autotst-1/Gau-32523.inp -scrdir=/gss_gpfs_scratch/westgroup/rwest-autotst-1/
 Entering Link 1 = /shared/apps/gaussian/G09_LINUX_LINDA/g09/l1.exe PID=     32543.
  
 Copyright (c) 1988,1990,1992,1993,1995,1998,2003,2009,2010,
            Gaussian, Inc.  All Rights Reserved.
  
 This is part of the Gaussian(R) 09 program.  It is based on
 the Gaussian(R) 03 system (copyright 2003, Gaussian, Inc.),
 the Gaussian(R) 98 system (copyright 1998, Gaussian, Inc.),
 the Gaussian(R) 94 system (copyright 1995, Gaussian, Inc.),
 the Gaussian 92(TM) system (copyright 1992, Gaussian, Inc.),
 the Gaussian 90(TM) system (copyright 1990, Gaussian, Inc.),
 the Gaussian 88(TM) system (copyright 1988, Gaussian, Inc.),
 the Gaussian 86(TM) system (copyright 1986, Carnegie Mellon
 University), and the Gaussian 82(TM) system (copyright 1983,
 Carnegie Mellon University). Gaussian is a federally registered
 trademark of Gaussian, Inc.
  
 This software contains proprietary and confidential information,
 including trade secrets, belonging to Gaussian, Inc.
  
 This software is provided under written license and may be
 used, copied, transmitted, or stored only in accord with that
 written license.
  
 The following legend is applicable only to US Government
 contracts under FAR:
  
                    RESTRICTED RIGHTS LEGEND
  
 Use, reproduction and disclosure by the US Government is
 subject to restrictions as set forth in subparagraphs (a)
 and (c) of the Commercial Computer Software - Restricted
 Rights clause in FAR 52.227-19.
  
 Gaussian, Inc.
 340 Quinnipiac St., Bldg. 40, Wallingford CT 06492
  
  
 ---------------------------------------------------------------
 Warning -- This program may not be used in any manner that
 competes with the business of Gaussian, Inc. or will provide
 assistance to any competitor of Gaussian, Inc.  The licensee
 of this program is prohibited from giving any competitor of
 Gaussian, Inc. access to this program.  By using this program,
 the user acknowledges that Gaussian, Inc. is engaged in the
 business of creating and licensing software in the field of
 computational chemistry and represents and warrants to the
 licensee that it is not a competitor of Gaussian, Inc. and that
 it will not use this program in any manner prohibited above.
 ---------------------------------------------------------------
  

 Cite this work as:
 Gaussian 09, Revision B.01,
 M. J. Frisch, G. W. Trucks, H. B. Schlegel, G. E. Scuseria, 
 M. A. Robb, J. R. Cheeseman, G. Scalmani, V. Barone, B. Mennucci, 
 G. A. Petersson, H. Nakatsuji, M. Caricato, X. Li, H. P. Hratchian, 
 A. F. Izmaylov, J. Bloino, G. Zheng, J. L. Sonnenberg, M. Hada, 
 M. Ehara, K. Toyota, R. Fukuda, J. Hasegawa, M. Ishida, T. Nakajima, 
 Y. Honda, O. Kitao, H. Nakai, T. Vreven, J. A. Montgomery, Jr., 
 J. E. Peralta, F. Ogliaro, M. Bearpark, J. J. Heyd, E. Brothers, 
 K. N. Kudin, V. N. Staroverov, T. Keith, R. Kobayashi, J. Normand, 
 K. Raghavachari, A. Rendell, J. C. Burant, S. S. Iyengar, J. Tomasi, 
 M. Cossi, N. Rega, J. M. Millam, M. Klene, J. E. Knox, J. B. Cross, 
 V. Bakken, C. Adamo, J. Jaramillo, R. Gomperts, R. E. Stratmann, 
 O. Yazyev, A. J. Austin, R. Cammi, C. Pomelli, J. W. Ochterski, 
 R. L. Martin, K. Morokuma, V. G. Zakrzewski, G. A. Voth, 
 P. Salvador, J. J. Dannenberg, S. Dapprich, A. D. Daniels, 
 O. Farkas, J. B. Foresman, J. V. Ortiz, J. Cioslowski, 
 and D. J. Fox, Gaussian, Inc., Wallingford CT, 2010.
 
 ******************************************
 Gaussian 09:  EM64L-G09RevB.01 12-Aug-2010
                 7-Mar-2017 
 ******************************************
 %nprocshared=20
 Will use up to   20 processors via shared memory.
 %mem=5GB
 --------------------------------------------------------------
 # m062x/6-311+g(2df,2p) opt=(verytight,gdiis) freq IOP(2/16=3)
 --------------------------------------------------------------

 Warning!  Use of Opt=GDIIS is deprecated since it is seldom a good choice.

 1/7=1,14=-1,18=20,19=11,26=3,38=1/1,3;
 2/9=110,12=2,16=3,17=6,18=5,40=1/2;
 3/5=4,6=6,7=214,11=2,16=1,25=1,30=1,71=1,74=-55/1,2,3;
 4//1;
 5/5=2,38=5/2;
 6/7=2,8=2,9=2,10=2,28=1/1;
 7//1,2,3,16;
 1/7=1,14=-1,18=20,19=11/3(2);
 2/9=110,16=3/2;
 99//99;
 2/9=110,16=3/2;
 3/5=4,6=6,7=214,11=2,16=1,25=1,30=1,71=1,74=-55/1,2,3;
 4/5=5,16=3/1;
 5/5=2,38=5/2;
 7//1,2,3,16;
 1/7=1,14=-1,18=20,19=11/3(-5);
 2/9=110,16=3/2;
 6/7=2,8=2,9=2,10=2,19=2,28=1/1;
 99/9=1/99;
 ---------------------------------
 InChI=1S/C2H5O/c1-3-2/h1H2,2H3/u1
 ---------------------------------
 Symbolic Z-matrix:
 Charge =  0 Multiplicity = 2
 C                    -1.0002   -0.0812    0.1891 
 C                     1.236     0.094    -0.0641 
 O                     0.0245    0.0304   -0.7654 
 H                    -1.0279    0.8102    0.8565 
 H                    -0.8928   -1.0139    0.7885 
 H                    -1.9734   -0.1335   -0.341 
 H                     1.75      1.0494   -0.2981 
 H                     1.8837   -0.7554   -0.3654 
 

 GradGradGradGradGradGradGradGradGradGradGradGradGradGradGradGradGradGrad
 Berny optimization.
 Initialization pass.
                           ----------------------------
                           !    Initial Parameters    !
                           ! (Angstroms and Degrees)  !
 --------------------------                            --------------------------
 ! Name  Definition              Value          Derivative Info.                !
 --------------------------------------------------------------------------------
 ! R1    R(1,3)                  1.4048         estimate D2E/DX2                !
 ! R2    R(1,4)                  1.1139         estimate D2E/DX2                !
 ! R3    R(1,5)                  1.1139         estimate D2E/DX2                !
 ! R4    R(1,6)                  1.1094         estimate D2E/DX2                !
 ! R5    R(2,3)                  1.4013         estimate D2E/DX2                !
 ! R6    R(2,7)                  1.1098         estimate D2E/DX2                !
 ! R7    R(2,8)                  1.1099         estimate D2E/DX2                !
 ! A1    A(3,1,4)              111.202          estimate D2E/DX2                !
 ! A2    A(3,1,5)              111.2113         estimate D2E/DX2                !
 ! A3    A(3,1,6)              108.599          estimate D2E/DX2                !
 ! A4    A(4,1,5)              110.4911         estimate D2E/DX2                !
 ! A5    A(4,1,6)              107.5893         estimate D2E/DX2                !
 ! A6    A(5,1,6)              107.5911         estimate D2E/DX2                !
 ! A7    A(3,2,7)              109.5091         estimate D2E/DX2                !
 ! A8    A(3,2,8)              109.5086         estimate D2E/DX2                !
 ! A9    A(7,2,8)              109.3483         estimate D2E/DX2                !
 ! A10   A(1,3,2)              107.109          estimate D2E/DX2                !
 ! D1    D(4,1,3,2)             61.7995         estimate D2E/DX2                !
 ! D2    D(5,1,3,2)            -61.7952         estimate D2E/DX2                !
 ! D3    D(6,1,3,2)            179.9983         estimate D2E/DX2                !
 ! D4    D(7,2,3,1)           -120.0566         estimate D2E/DX2                !
 ! D5    D(8,2,3,1)            120.0478         estimate D2E/DX2                !
 ! D6    D(3,2,7,8)           -119.9938         estimate D2E/DX2                !
 --------------------------------------------------------------------------------
 Trust Radius=3.00D-01 FncErr=1.00D-07 GrdErr=1.00D-06
 Number of steps in this run=     33 maximum allowed number of steps=    100.
 GradGradGradGradGradGradGradGradGradGradGradGradGradGradGradGradGradGrad

                          Input orientation:                          
 ---------------------------------------------------------------------
 Center     Atomic      Atomic             Coordinates (Angstroms)
 Number     Number       Type             X           Y           Z
 ---------------------------------------------------------------------
      1          6           0       -1.000200   -0.081200    0.189100
      2          6           0        1.236000    0.094000   -0.064100
      3          8           0        0.024500    0.030400   -0.765400
      4          1           0       -1.027900    0.810200    0.856500
      5          1           0       -0.892800   -1.013900    0.788500
      6          1           0       -1.973400   -0.133500   -0.341000
      7          1           0        1.750000    1.049400   -0.298100
      8          1           0        1.883700   -0.755400   -0.365400
 ---------------------------------------------------------------------
                    Distance matrix (angstroms):
                    1          2          3          4          5
     1  C    0.000000
     2  C    2.257298   0.000000
     3  O    1.404826   1.401285   0.000000
     4  H    1.113905   2.546702   2.084753   0.000000
     5  H    1.113887   2.546794   2.084852   1.830360   0.000000
     6  H    1.109441   3.229346   2.049044   1.794031   1.794038
     7  H    3.013174   1.109838   2.057688   3.017788   3.524528
     8  H    3.013120   1.109855   2.057694   3.524423   3.017824
                    6          7          8
     6  H    0.000000
     7  H    3.907019   0.000000
     8  H    3.906991   1.810996   0.000000
 Stoichiometry    C2H5O(2)
 Framework group  C1[X(C2H5O)]
 Deg. of freedom    18
 Full point group                 C1      NOp   1
 Largest Abelian subgroup         C1      NOp   1
 Largest concise Abelian subgroup C1      NOp   1
                         Standard orientation:                         
 ---------------------------------------------------------------------
 Center     Atomic      Atomic             Coordinates (Angstroms)
 Number     Number       Type             X           Y           Z
 ---------------------------------------------------------------------
      1          6           0       -1.105126   -0.204389    0.000005
      2          6           0        1.149541   -0.313364    0.000029
      3          8           0        0.064644    0.573540   -0.000043
      4          1           0       -1.168821   -0.836047    0.915284
      5          1           0       -1.168926   -0.836292   -0.915076
      6          1           0       -1.982041    0.475228   -0.000018
      7          1           0        1.768111   -0.142230    0.905471
      8          1           0        1.768039   -0.142458   -0.905525
 ---------------------------------------------------------------------
 Rotational constants (GHZ):     42.4547282     10.7688800      9.6905519
 Standard basis: 6-311+G(2df,2p) (5D, 7F)
 There are   147 symmetry adapted basis functions of A   symmetry.
 Integral buffers will be    131072 words long.
 Raffenetti 2 integral format.
 Two-electron integral symmetry is turned on.
   147 basis functions,   211 primitive gaussians,   162 cartesian basis functions
    13 alpha electrons       12 beta electrons
       nuclear repulsion energy        76.8504484953 Hartrees.
 NAtoms=    8 NActive=    8 NUniq=    8 SFac= 1.00D+00 NAtFMM=   50 NAOKFM=F Big=F
 One-electron integrals computed using PRISM.
 NBasis=   147 RedAO= T  NBF=   147
 NBsUse=   147 1.00D-06 NBFU=   147
 Harris functional with IExCor= 1009 diagonalized for initial guess.
 ExpMin= 4.38D-02 ExpMax= 8.59D+03 ExpMxC= 1.30D+03 IAcc=2 IRadAn=         0 AccDes= 0.00D+00
 HarFok:  IExCor= 1009 AccDes= 0.00D+00 IRadAn=         0 IDoV= 1
 ScaDFX=  1.000000  1.000000  1.000000  1.000000
 FoFCou: FMM=F IPFlag=           0 FMFlag=      100000 FMFlg1=           0
         NFxFlg=           0 DoJE=T BraDBF=F KetDBF=T FulRan=T
         Omega=  0.000000  0.000000  1.000000  0.000000  0.000000 ICntrl=     500 IOpCl=  0
         NMat0=    1 NMatS0=    1 NMatT0=    0 NMatD0=    1 NMtDS0=    0 NMtDT0=    0
         I1Cent=           4 NGrid=           0.
 Petite list used in FoFCou.
 Initial guess orbital symmetries:
 Alpha Orbitals:
       Occupied  (A) (A) (A) (A) (A) (A) (A) (A) (A) (A) (A) (A)
                 (A)
       Virtual   (A) (A) (A) (A) (A) (A) (A) (A) (A) (A) (A) (A)
                 (A) (A) (A) (A) (A) (A) (A) (A) (A) (A) (A) (A)
                 (A) (A) (A) (A) (A) (A) (A) (A) (A) (A) (A) (A)
                 (A) (A) (A) (A) (A) (A) (A) (A) (A) (A) (A) (A)
                 (A) (A) (A) (A) (A) (A) (A) (A) (A) (A) (A) (A)
                 (A) (A) (A) (A) (A) (A) (A) (A) (A) (A) (A) (A)
                 (A) (A) (A) (A) (A) (A) (A) (A) (A) (A) (A) (A)
                 (A) (A) (A) (A) (A) (A) (A) (A) (A) (A) (A) (A)
                 (A) (A) (A) (A) (A) (A) (A) (A) (A) (A) (A) (A)
                 (A) (A) (A) (A) (A) (A) (A) (A) (A) (A) (A) (A)
                 (A) (A) (A) (A) (A) (A) (A) (A) (A) (A) (A) (A)
                 (A) (A)
 Beta  Orbitals:
       Occupied  (A) (A) (A) (A) (A) (A) (A) (A) (A) (A) (A) (A)
       Virtual   (A) (A) (A) (A) (A) (A) (A) (A) (A) (A) (A) (A)
                 (A) (A) (A) (A) (A) (A) (A) (A) (A) (A) (A) (A)
                 (A) (A) (A) (A) (A) (A) (A) (A) (A) (A) (A) (A)
                 (A) (A) (A) (A) (A) (A) (A) (A) (A) (A) (A) (A)
                 (A) (A) (A) (A) (A) (A) (A) (A) (A) (A) (A) (A)
                 (A) (A) (A) (A) (A) (A) (A) (A) (A) (A) (A) (A)
                 (A) (A) (A) (A) (A) (A) (A) (A) (A) (A) (A) (A)
                 (A) (A) (A) (A) (A) (A) (A) (A) (A) (A) (A) (A)
                 (A) (A) (A) (A) (A) (A) (A) (A) (A) (A) (A) (A)
                 (A) (A) (A) (A) (A) (A) (A) (A) (A) (A) (A) (A)
                 (A) (A) (A) (A) (A) (A) (A) (A) (A) (A) (A) (A)
                 (A) (A) (A)
 The electronic state of the initial guess is 2-A.
 Initial guess <Sx>= 0.0000 <Sy>= 0.0000 <Sz>= 0.5000 <S**2>= 0.7500 S= 0.5000
 Requested convergence on RMS density matrix=1.00D-08 within 128 cycles.
 Requested convergence on MAX density matrix=1.00D-06.
 Requested convergence on             energy=1.00D-06.
 No special actions if energy rises.
 Keep R1 and R2 ints in memory in canonical form, NReq=176667760.
 SCF Done:  E(UM062X) =  -154.321815751     A.U. after   12 cycles
             Convg  =    0.9722D-08             -V/T =  2.0043
 <Sx>= 0.0000 <Sy>= 0.0000 <Sz>= 0.5000 <S**2>= 0.7538 S= 0.5019
 <L.S>= 0.000000000000E+00
 Annihilation of the first spin contaminant:
 S**2 before annihilation     0.7538,   after     0.7500

 **********************************************************************

            Population analysis using the SCF density.

 **********************************************************************

 Orbital symmetries:
 Alpha Orbitals:
       Occupied  (A) (A) (A) (A) (A) (A) (A) (A) (A) (A) (A) (A)
                 (A)
       Virtual   (A) (A) (A) (A) (A) (A) (A) (A) (A) (A) (A) (A)
                 (A) (A) (A) (A) (A) (A) (A) (A) (A) (A) (A) (A)
                 (A) (A) (A) (A) (A) (A) (A) (A) (A) (A) (A) (A)
                 (A) (A) (A) (A) (A) (A) (A) (A) (A) (A) (A) (A)
                 (A) (A) (A) (A) (A) (A) (A) (A) (A) (A) (A) (A)
                 (A) (A) (A) (A) (A) (A) (A) (A) (A) (A) (A) (A)
                 (A) (A) (A) (A) (A) (A) (A) (A) (A) (A) (A) (A)
                 (A) (A) (A) (A) (A) (A) (A) (A) (A) (A) (A) (A)
                 (A) (A) (A) (A) (A) (A) (A) (A) (A) (A) (A) (A)
                 (A) (A) (A) (A) (A) (A) (A) (A) (A) (A) (A) (A)
                 (A) (A) (A) (A) (A) (A) (A) (A) (A) (A) (A) (A)
                 (A) (A)
 Beta  Orbitals:
       Occupied  (A) (A) (A) (A) (A) (A) (A) (A) (A) (A) (A) (A)
       Virtual   (A) (A) (A) (A) (A) (A) (A) (A) (A) (A) (A) (A)
                 (A) (A) (A) (A) (A) (A) (A) (A) (A) (A) (A) (A)
                 (A) (A) (A) (A) (A) (A) (A) (A) (A) (A) (A) (A)
                 (A) (A) (A) (A) (A) (A) (A) (A) (A) (A) (A) (A)
                 (A) (A) (A) (A) (A) (A) (A) (A) (A) (A) (A) (A)
                 (A) (A) (A) (A) (A) (A) (A) (A) (A) (A) (A) (A)
                 (A) (A) (A) (A) (A) (A) (A) (A) (A) (A) (A) (A)
                 (A) (A) (A) (A) (A) (A) (A) (A) (A) (A) (A) (A)
                 (A) (A) (A) (A) (A) (A) (A) (A) (A) (A) (A) (A)
                 (A) (A) (A) (A) (A) (A) (A) (A) (A) (A) (A) (A)
                 (A) (A) (A) (A) (A) (A) (A) (A) (A) (A) (A) (A)
                 (A) (A) (A)
 The electronic state is 2-A.
 Alpha  occ. eigenvalues --  -19.64056 -10.60390 -10.58688  -1.17706  -0.81442
 Alpha  occ. eigenvalues --   -0.71699  -0.56189  -0.55875  -0.52912  -0.47223
 Alpha  occ. eigenvalues --   -0.42127  -0.34004  -0.30727
 Alpha virt. eigenvalues --    0.02262   0.03751   0.04661   0.04891   0.07527
 Alpha virt. eigenvalues --    0.08075   0.08309   0.13296   0.16296   0.17540
 Alpha virt. eigenvalues --    0.19898   0.21574   0.22561   0.23578   0.25163
 Alpha virt. eigenvalues --    0.26697   0.29048   0.32271   0.34293   0.42950
 Alpha virt. eigenvalues --    0.45222   0.45820   0.48386   0.52176   0.53744
 Alpha virt. eigenvalues --    0.54282   0.56821   0.57288   0.60884   0.64134
 Alpha virt. eigenvalues --    0.66170   0.66414   0.69090   0.74589   0.82786
 Alpha virt. eigenvalues --    0.87781   0.90310   0.93665   0.97743   1.02779
 Alpha virt. eigenvalues --    1.03438   1.05771   1.05856   1.11758   1.11814
 Alpha virt. eigenvalues --    1.18040   1.19063   1.21138   1.24221   1.24482
 Alpha virt. eigenvalues --    1.30893   1.32991   1.35487   1.37432   1.39078
 Alpha virt. eigenvalues --    1.43563   1.45839   1.49276   1.52121   1.56039
 Alpha virt. eigenvalues --    1.68593   1.98027   1.99980   2.01257   2.14687
 Alpha virt. eigenvalues --    2.33686   2.36852   2.45133   2.46787   2.49066
 Alpha virt. eigenvalues --    2.60089   2.87277   2.91774   2.94641   2.95107
 Alpha virt. eigenvalues --    2.98430   3.03893   3.05362   3.07814   3.09769
 Alpha virt. eigenvalues --    3.12298   3.13629   3.15155   3.22963   3.26025
 Alpha virt. eigenvalues --    3.30557   3.35012   3.42345   3.44123   3.51904
 Alpha virt. eigenvalues --    3.52283   3.54120   3.65506   3.71150   3.72974
 Alpha virt. eigenvalues --    3.79234   3.79770   3.82731   3.84001   3.84865
 Alpha virt. eigenvalues --    3.98245   4.05607   4.13240   4.15965   4.17211
 Alpha virt. eigenvalues --    4.23132   4.25904   4.28809   4.31913   4.32678
 Alpha virt. eigenvalues --    4.42853   4.86826   4.99519   5.16563   5.24654
 Alpha virt. eigenvalues --    5.27208   5.37884   5.40764   5.49440   5.53992
 Alpha virt. eigenvalues --    5.60144   5.80215   5.83325   6.09562   6.38841
 Alpha virt. eigenvalues --    6.64730   7.14264   7.19924   7.25299   7.52820
 Alpha virt. eigenvalues --    7.70936  24.21916  24.34465  50.12799
  Beta  occ. eigenvalues --  -19.63959 -10.59459 -10.58622  -1.16958  -0.80082
  Beta  occ. eigenvalues --   -0.69177  -0.55454  -0.54685  -0.51008  -0.46452
  Beta  occ. eigenvalues --   -0.41106  -0.33768
  Beta virt. eigenvalues --   -0.04892   0.02180   0.03521   0.04685   0.04717
  Beta virt. eigenvalues --    0.06988   0.08079   0.09339   0.12762   0.16218
  Beta virt. eigenvalues --    0.17591   0.20012   0.21955   0.23070   0.24159
  Beta virt. eigenvalues --    0.25045   0.26806   0.29622   0.31799   0.34664
  Beta virt. eigenvalues --    0.43087   0.45092   0.46612   0.49068   0.52498
  Beta virt. eigenvalues --    0.53607   0.54366   0.57219   0.58010   0.61653
  Beta virt. eigenvalues --    0.63931   0.65928   0.66307   0.70101   0.74632
  Beta virt. eigenvalues --    0.82863   0.87877   0.90400   0.94551   0.97031
  Beta virt. eigenvalues --    1.02988   1.03378   1.05605   1.05767   1.11524
  Beta virt. eigenvalues --    1.11836   1.17929   1.18816   1.20332   1.24517
  Beta virt. eigenvalues --    1.24697   1.31241   1.33366   1.35438   1.37709
  Beta virt. eigenvalues --    1.39129   1.43594   1.46252   1.50016   1.52352
  Beta virt. eigenvalues --    1.56242   1.68784   1.98453   2.01015   2.01482
  Beta virt. eigenvalues --    2.15113   2.34208   2.37283   2.45949   2.47933
  Beta virt. eigenvalues --    2.49370   2.60234   2.92296   2.94986   2.95113
  Beta virt. eigenvalues --    2.97846   3.03334   3.06451   3.06990   3.08977
  Beta virt. eigenvalues --    3.11199   3.13946   3.15739   3.17851   3.26662
  Beta virt. eigenvalues --    3.29474   3.36085   3.37388   3.42650   3.45469
  Beta virt. eigenvalues --    3.53148   3.55702   3.56694   3.68175   3.73353
  Beta virt. eigenvalues --    3.74675   3.80354   3.81425   3.83634   3.86207
  Beta virt. eigenvalues --    3.87044   3.98726   4.08139   4.13603   4.18164
  Beta virt. eigenvalues --    4.18608   4.24352   4.27003   4.30027   4.32405
  Beta virt. eigenvalues --    4.33317   4.43773   4.87263   5.03763   5.17443
  Beta virt. eigenvalues --    5.25039   5.27601   5.38032   5.44670   5.49461
  Beta virt. eigenvalues --    5.54489   5.60663   5.80475   5.84496   6.10078
  Beta virt. eigenvalues --    6.39770   6.65518   7.14717   7.20477   7.25068
  Beta virt. eigenvalues --    7.52984   7.71227  24.23399  24.34569  50.12718
          Condensed to atoms (all electrons):
              1          2          3          4          5          6
     1  C    4.912960  -0.077438   0.130528   0.429802   0.429792   0.422409
     2  C   -0.077438   5.404556   0.077790  -0.011040  -0.011032   0.014687
     3  O    0.130528   0.077790   8.185430  -0.039698  -0.039679  -0.052833
     4  H    0.429802  -0.011040  -0.039698   0.579012  -0.046334  -0.028351
     5  H    0.429792  -0.011032  -0.039679  -0.046334   0.578987  -0.028350
     6  H    0.422409   0.014687  -0.052833  -0.028351  -0.028350   0.555474
     7  H    0.005647   0.404615  -0.055027   0.003217  -0.001247  -0.000343
     8  H    0.005642   0.404621  -0.055030  -0.001247   0.003217  -0.000343
              7          8
     1  C    0.005647   0.005642
     2  C    0.404615   0.404621
     3  O   -0.055027  -0.055030
     4  H    0.003217  -0.001247
     5  H   -0.001247   0.003217
     6  H   -0.000343  -0.000343
     7  H    0.554988  -0.047176
     8  H   -0.047176   0.554995
 Mulliken atomic charges:
              1
     1  C   -0.259342
     2  C   -0.206760
     3  O   -0.151481
     4  H    0.114639
     5  H    0.114647
     6  H    0.117650
     7  H    0.135327
     8  H    0.135321
 Sum of Mulliken atomic charges =   0.00000
 Mulliken charges with hydrogens summed into heavy atoms:
              1
     1  C    0.087593
     2  C    0.063888
     3  O   -0.151481
 Sum of Mulliken charges with hydrogens summed into heavy atoms =   0.00000
          Atomic-Atomic Spin Densities.
              1          2          3          4          5          6
     1  C    0.027189  -0.002332   0.003030   0.000302   0.000302  -0.000351
     2  C   -0.002332   1.204861  -0.135526  -0.006672  -0.006674   0.003448
     3  O    0.003030  -0.135526   0.105607   0.004355   0.004354  -0.002240
     4  H    0.000302  -0.006672   0.004355  -0.003739   0.001947  -0.001602
     5  H    0.000302  -0.006674   0.004354   0.001947  -0.003736  -0.001602
     6  H   -0.000351   0.003448  -0.002240  -0.001602  -0.001602   0.011338
     7  H   -0.001208  -0.018447   0.002302   0.000522   0.000053  -0.000161
     8  H   -0.001208  -0.018447   0.002301   0.000052   0.000522  -0.000161
              7          8
     1  C   -0.001208  -0.001208
     2  C   -0.018447  -0.018447
     3  O    0.002302   0.002301
     4  H    0.000522   0.000052
     5  H    0.000053   0.000522
     6  H   -0.000161  -0.000161
     7  H   -0.005413   0.007793
     8  H    0.007793  -0.005412
 Mulliken atomic spin densities:
              1
     1  C    0.025725
     2  C    1.020212
     3  O   -0.015817
     4  H   -0.004834
     5  H   -0.004834
     6  H    0.008669
     7  H   -0.014560
     8  H   -0.014560
 Sum of Mulliken atomic spin densities =   1.00000
 Electronic spatial extent (au):  <R**2>=            173.8061
 Charge=              0.0000 electrons
 Dipole moment (field-independent basis, Debye):
    X=             -0.1352    Y=             -0.8252    Z=              0.0000  Tot=              0.8362
 Quadrupole moment (field-independent basis, Debye-Ang):
   XX=            -16.7269   YY=            -21.7372   ZZ=            -19.2535
   XY=              0.2745   XZ=              0.0001   YZ=              0.0003
 Traceless Quadrupole moment (field-independent basis, Debye-Ang):
   XX=              2.5123   YY=             -2.4980   ZZ=             -0.0143
   XY=              0.2745   XZ=              0.0001   YZ=              0.0003
 Octapole moment (field-independent basis, Debye-Ang**2):
  XXX=              0.2250  YYY=              3.4906  ZZZ=             -0.0002  XYY=             -1.7359
  XXY=              2.3284  XXZ=             -0.0003  XZZ=              0.7723  YZZ=              0.4454
  YYZ=             -0.0004  XYZ=              0.0001
 Hexadecapole moment (field-independent basis, Debye-Ang**3):
 XXXX=           -152.4713 YYYY=            -48.2725 ZZZZ=            -34.2135 XXXY=             -0.6517
 XXXZ=              0.0008 YYYX=              1.6061 YYYZ=              0.0006 ZZZX=             -0.0004
 ZZZY=              0.0003 XXYY=            -34.4422 XXZZ=            -30.2254 YYZZ=            -13.5807
 XXYZ=              0.0008 YYXZ=              0.0004 ZZXY=              1.4696
 N-N= 7.685044849526D+01 E-N=-7.665395073133D+02  KE= 2.297125794357D+02
                          Isotropic Fermi Contact Couplings
        Atom                 a.u.       MegaHertz       Gauss      10(-4) cm-1
     1  C(13)              0.06112      68.71602      24.51958      22.92120
     2  C(13)              0.41464     466.12947     166.32658     155.48405
     3  O(17)              0.00227      -1.37669      -0.49124      -0.45922
     4  H(1)              -0.00032      -1.43803      -0.51313      -0.47968
     5  H(1)              -0.00032      -1.43681      -0.51269      -0.47927
     6  H(1)               0.00191       8.52535       3.04206       2.84375
     7  H(1)              -0.00087      -3.87501      -1.38270      -1.29256
     8  H(1)              -0.00087      -3.87176      -1.38154      -1.29148
 --------------------------------------------------------
       Center         ----  Spin Dipole Couplings  ----
                      3XX-RR        3YY-RR        3ZZ-RR
 --------------------------------------------------------
     1   Atom        0.046513     -0.021727     -0.024786
     2   Atom       -0.275114      0.773900     -0.498786
     3   Atom       -0.188179      0.323656     -0.135477
     4   Atom        0.012515     -0.007894     -0.004621
     5   Atom        0.012514     -0.007892     -0.004623
     6   Atom        0.008701     -0.003006     -0.005694
     7   Atom       -0.015392     -0.019350      0.034742
     8   Atom       -0.015401     -0.019354      0.034755
 --------------------------------------------------------
                        XY            XZ            YZ
 --------------------------------------------------------
     1   Atom        0.000787      0.000002      0.000000
     2   Atom        0.563006     -0.000083     -0.000189
     3   Atom        0.057541     -0.000006     -0.000096
     4   Atom        0.002623     -0.011893     -0.003816
     5   Atom        0.002627      0.011891      0.003816
     6   Atom       -0.004193      0.000000      0.000000
     7   Atom        0.023758      0.055545      0.005603
     8   Atom        0.023742     -0.055546     -0.005591
 --------------------------------------------------------


 ---------------------------------------------------------------------------------
              Anisotropic Spin Dipole Couplings in Principal Axis System
 ---------------------------------------------------------------------------------

       Atom             a.u.   MegaHertz   Gauss  10(-4) cm-1        Axes

              Baa    -0.0248    -3.326    -1.187    -1.109  0.0000  0.0000  1.0000
     1 C(13)  Bbb    -0.0217    -2.917    -1.041    -0.973 -0.0115  0.9999  0.0000
              Bcc     0.0465     6.243     2.228     2.082  0.9999  0.0115  0.0000
 
              Baa    -0.5201   -69.789   -24.903   -23.279  0.9170 -0.3990  0.0000
     2 C(13)  Bbb    -0.4988   -66.932   -23.883   -22.326  0.0000  0.0001  1.0000
              Bcc     1.0189   136.722    48.786    45.605  0.3990  0.9170 -0.0001
 
              Baa    -0.1946    14.079     5.024     4.696  0.9939 -0.1104 -0.0001
     3 O(17)  Bbb    -0.1355     9.803     3.498     3.270  0.0001  0.0002  1.0000
              Bcc     0.3300   -23.882    -8.522    -7.966  0.1104  0.9939 -0.0002
 
              Baa    -0.0121    -6.430    -2.294    -2.145  0.3270  0.5188  0.7899
     4 H(1)   Bbb    -0.0072    -3.826    -1.365    -1.276 -0.3569  0.8417 -0.4051
              Bcc     0.0192    10.255     3.659     3.421  0.8750  0.1495 -0.4604
 
              Baa    -0.0120    -6.429    -2.294    -2.144 -0.3270 -0.5186  0.7900
     5 H(1)   Bbb    -0.0072    -3.825    -1.365    -1.276 -0.3569  0.8418  0.4049
              Bcc     0.0192    10.254     3.659     3.420  0.8750  0.1496  0.4604
 
              Baa    -0.0057    -3.038    -1.084    -1.013  0.0000  0.0001  1.0000
     6 H(1)   Bbb    -0.0044    -2.323    -0.829    -0.775  0.3058  0.9521 -0.0001
              Bcc     0.0100     5.361     1.913     1.788  0.9521 -0.3058  0.0000
 
              Baa    -0.0590   -31.456   -11.224   -10.492  0.7940 -0.4132 -0.4460
     7 H(1)   Bbb    -0.0151    -8.035    -2.867    -2.680  0.2504  0.8907 -0.3795
              Bcc     0.0740    39.490    14.091    13.173  0.5540  0.1896  0.8106
 
              Baa    -0.0590   -31.455   -11.224   -10.492  0.7940 -0.4131  0.4460
     8 H(1)   Bbb    -0.0151    -8.035    -2.867    -2.680  0.2504  0.8908  0.3792
              Bcc     0.0740    39.490    14.091    13.172 -0.5539 -0.1894  0.8107
 

 ---------------------------------------------------------------------------------

 Calling FoFJK, ICntrl=      2127 FMM=F ISym2X=0 I1Cent= 0 IOpClX= 1 NMat=1 NMatS=1 NMatT=0.
 ***** Axes restored to original set *****
 -------------------------------------------------------------------
 Center     Atomic                   Forces (Hartrees/Bohr)
 Number     Number              X              Y              Z
 -------------------------------------------------------------------
      1        6          -0.027581073   -0.002265257    0.006599442
      2        6           0.016404933    0.003384892   -0.058408866
      3        8           0.012660896    0.000033056    0.024039411
      4        1           0.001510058   -0.011906683   -0.005477232
      5        1          -0.000276673    0.012360630   -0.004576704
      6        1           0.012097299    0.000752803    0.003780990
      7        1          -0.007059599   -0.005852973    0.016845093
      8        1          -0.007755841    0.003493533    0.017197867
 -------------------------------------------------------------------
 Cartesian Forces:  Max     0.058408866 RMS     0.016437772

 GradGradGradGradGradGradGradGradGradGradGradGradGradGradGradGradGradGrad
 Berny optimization.
 Internal  Forces:  Max     0.028106648 RMS     0.010645690
 Search for a local minimum.
 Step number   1 out of a maximum of   33
 All quantities printed in internal units (Hartrees-Bohrs-Radians)
 Swaping is turned off.
 Second derivative matrix not updated -- first step.
 ITU=  0
     Eigenvalues ---    0.01628   0.01675   0.04383   0.10086   0.10524
     Eigenvalues ---    0.13079   0.16000   0.16000   0.16000   0.16000
     Eigenvalues ---    0.25000   0.32190   0.32192   0.32615   0.32617
     Eigenvalues ---    0.32659   0.44830   0.45408
 Quadratic step=6.093D-01 exceeds max=3.000D-01 adjusted using Lamda=-5.248D-02.
 Angle between NR and scaled steps=  11.32 degrees.
 Angle between quadratic step and forces=  33.64 degrees.
 Linear search not attempted -- option 19 set.
 Iteration  1 RMS(Cart)=  0.04713708 RMS(Int)=  0.00505234
 Iteration  2 RMS(Cart)=  0.00361552 RMS(Int)=  0.00388387
 Iteration  3 RMS(Cart)=  0.00001053 RMS(Int)=  0.00388386
 Iteration  4 RMS(Cart)=  0.00000009 RMS(Int)=  0.00388386
 Variable       Old X    -DE/DX   Delta X   Delta X   Delta X     New X
                                 (Linear)    (Quad)   (Total)
    R1        2.65474   0.01070   0.00000   0.02137   0.02137   2.67610
    R2        2.10498  -0.01285   0.00000  -0.03432  -0.03432   2.07066
    R3        2.10494  -0.01284   0.00000  -0.03429  -0.03429   2.07065
    R4        2.09654  -0.01245   0.00000  -0.03285  -0.03285   2.06369
    R5        2.64804  -0.01077   0.00000  -0.02127  -0.02127   2.62678
    R6        2.09729  -0.01186   0.00000  -0.03132  -0.03132   2.06597
    R7        2.09732  -0.01187   0.00000  -0.03135  -0.03135   2.06598
    A1        1.94084   0.00098   0.00000   0.00377   0.00378   1.94462
    A2        1.94100   0.00095   0.00000   0.00362   0.00363   1.94464
    A3        1.89541  -0.00298   0.00000  -0.01236  -0.01235   1.88306
    A4        1.92843  -0.00322   0.00000  -0.01810  -0.01810   1.91034
    A5        1.87779   0.00217   0.00000   0.01187   0.01189   1.88968
    A6        1.87782   0.00218   0.00000   0.01186   0.01188   1.88970
    A7        1.91130   0.01303   0.00000   0.09174   0.08335   1.99465
    A8        1.91129   0.00260   0.00000   0.06245   0.05084   1.96213
    A9        1.90849   0.00960   0.00000   0.08642   0.07690   1.98539
   A10        1.86940   0.02811   0.00000   0.09292   0.09292   1.96232
    D1        1.07860  -0.00139   0.00000  -0.00905  -0.00904   1.06956
    D2       -1.07853   0.00138   0.00000   0.00902   0.00901  -1.06952
    D3        3.14156   0.00001   0.00000   0.00003   0.00003  -3.14159
    D4       -2.09538   0.01066   0.00000   0.10012   0.10232  -1.99306
    D5        2.09523  -0.01067   0.00000  -0.10016  -0.10236   1.99287
    D6       -2.09429  -0.01700   0.00000  -0.18524  -0.19169  -2.28598
         Item               Value     Threshold  Converged?
 Maximum Force            0.028107     0.000002     NO 
 RMS     Force            0.010646     0.000001     NO 
 Maximum Displacement     0.141772     0.000006     NO 
 RMS     Displacement     0.046823     0.000004     NO 
 Predicted change in Energy=-9.002706D-03
 GradGradGradGradGradGradGradGradGradGradGradGradGradGradGradGradGradGrad

                          Input orientation:                          
 ---------------------------------------------------------------------
 Center     Atomic      Atomic             Coordinates (Angstroms)
 Number     Number       Type             X           Y           Z
 ---------------------------------------------------------------------
      1          6           0       -1.025128   -0.084348    0.202715
      2          6           0        1.274299    0.104696   -0.139122
      3          8           0        0.024018    0.028379   -0.741750
      4          1           0       -1.063365    0.788242    0.864367
      5          1           0       -0.925677   -0.994600    0.804542
      6          1           0       -1.967112   -0.138634   -0.347107
      7          1           0        1.784462    1.061083   -0.281549
      8          1           0        1.898403   -0.764818   -0.361996
 ---------------------------------------------------------------------
                    Distance matrix (angstroms):
                    1          2          3          4          5
     1  C    0.000000
     2  C    2.332371   0.000000
     3  O    1.416132   1.390031   0.000000
     4  H    1.095745   2.634179   2.083124   0.000000
     5  H    1.095740   2.634170   2.083129   1.789151   0.000000
     6  H    1.092056   3.257180   2.036722   1.772999   1.773009
     7  H    3.072510   1.093264   2.092229   3.081831   3.570753
     8  H    3.054336   1.093267   2.070433   3.562026   3.064154
                    6          7          8
     6  H    0.000000
     7  H    3.939280   0.000000
     8  H    3.915934   1.831220   0.000000
 Stoichiometry    C2H5O(2)
 Framework group  C1[X(C2H5O)]
 Deg. of freedom    18
 Full point group                 C1      NOp   1
 Largest Abelian subgroup         C1      NOp   1
 Largest concise Abelian subgroup C1      NOp   1
                         Standard orientation:                         
 ---------------------------------------------------------------------
 Center     Atomic      Atomic             Coordinates (Angstroms)
 Number     Number       Type             X           Y           Z
 ---------------------------------------------------------------------
      1          6           0        1.139521   -0.197390    0.002143
      2          6           0       -1.191617   -0.273220    0.002959
      3          8           0       -0.067105    0.543817   -0.007615
      4          1           0        1.223967   -0.836098   -0.884186
      5          1           0        1.223827   -0.812795    0.904813
      6          1           0        1.969376    0.512430   -0.007050
      7          1           0       -1.795365   -0.219003   -0.906862
      8          1           0       -1.772389   -0.171409    0.923595
 ---------------------------------------------------------------------
 Rotational constants (GHZ):     45.7131624     10.2457654      9.3977718
 Standard basis: 6-311+G(2df,2p) (5D, 7F)
 There are   147 symmetry adapted basis functions of A   symmetry.
 Integral buffers will be    131072 words long.
 Raffenetti 2 integral format.
 Two-electron integral symmetry is turned on.
   147 basis functions,   211 primitive gaussians,   162 cartesian basis functions
    13 alpha electrons       12 beta electrons
       nuclear repulsion energy        76.6505858992 Hartrees.
 NAtoms=    8 NActive=    8 NUniq=    8 SFac= 1.00D+00 NAtFMM=   50 NAOKFM=F Big=F
 One-electron integrals computed using PRISM.
 NBasis=   147 RedAO= T  NBF=   147
 NBsUse=   147 1.00D-06 NBFU=   147
 Initial guess read from the read-write file.
 B after Tr=     0.000000    0.000000    0.000000
         Rot=    1.000000    0.000000    0.000000    0.000000 Ang=   0.00 deg.
 Initial guess orbital symmetries:
 Alpha Orbitals:
       Occupied  (A) (A) (A) (A) (A) (A) (A) (A) (A) (A) (A) (A)
                 (A)
       Virtual   (A) (A) (A) (A) (A) (A) (A) (A) (A) (A) (A) (A)
                 (A) (A) (A) (A) (A) (A) (A) (A) (A) (A) (A) (A)
                 (A) (A) (A) (A) (A) (A) (A) (A) (A) (A) (A) (A)
                 (A) (A) (A) (A) (A) (A) (A) (A) (A) (A) (A) (A)
                 (A) (A) (A) (A) (A) (A) (A) (A) (A) (A) (A) (A)
                 (A) (A) (A) (A) (A) (A) (A) (A) (A) (A) (A) (A)
                 (A) (A) (A) (A) (A) (A) (A) (A) (A) (A) (A) (A)
                 (A) (A) (A) (A) (A) (A) (A) (A) (A) (A) (A) (A)
                 (A) (A) (A) (A) (A) (A) (A) (A) (A) (A) (A) (A)
                 (A) (A) (A) (A) (A) (A) (A) (A) (A) (A) (A) (A)
                 (A) (A) (A) (A) (A) (A) (A) (A) (A) (A) (A) (A)
                 (A) (A)
 Beta  Orbitals:
       Occupied  (A) (A) (A) (A) (A) (A) (A) (A) (A) (A) (A) (A)
       Virtual   (A) (A) (A) (A) (A) (A) (A) (A) (A) (A) (A) (A)
                 (A) (A) (A) (A) (A) (A) (A) (A) (A) (A) (A) (A)
                 (A) (A) (A) (A) (A) (A) (A) (A) (A) (A) (A) (A)
                 (A) (A) (A) (A) (A) (A) (A) (A) (A) (A) (A) (A)
                 (A) (A) (A) (A) (A) (A) (A) (A) (A) (A) (A) (A)
                 (A) (A) (A) (A) (A) (A) (A) (A) (A) (A) (A) (A)
                 (A) (A) (A) (A) (A) (A) (A) (A) (A) (A) (A) (A)
                 (A) (A) (A) (A) (A) (A) (A) (A) (A) (A) (A) (A)
                 (A) (A) (A) (A) (A) (A) (A) (A) (A) (A) (A) (A)
                 (A) (A) (A) (A) (A) (A) (A) (A) (A) (A) (A) (A)
                 (A) (A) (A) (A) (A) (A) (A) (A) (A) (A) (A) (A)
                 (A) (A) (A)
 Initial guess <Sx>= 0.0000 <Sy>= 0.0000 <Sz>= 0.5000 <S**2>= 0.7668 S= 0.5084
 Harris functional with IExCor= 1009 diagonalized for initial guess.
 ExpMin= 4.38D-02 ExpMax= 8.59D+03 ExpMxC= 1.30D+03 IAcc=2 IRadAn=         0 AccDes= 0.00D+00
 HarFok:  IExCor= 1009 AccDes= 0.00D+00 IRadAn=         0 IDoV= 1
 ScaDFX=  1.000000  1.000000  1.000000  1.000000
 FoFCou: FMM=F IPFlag=           0 FMFlag=      100000 FMFlg1=           0
         NFxFlg=           0 DoJE=T BraDBF=F KetDBF=T FulRan=T
         Omega=  0.000000  0.000000  1.000000  0.000000  0.000000 ICntrl=     500 IOpCl=  0
         NMat0=    1 NMatS0=    1 NMatT0=    0 NMatD0=    1 NMtDS0=    0 NMtDT0=    0
         I1Cent=           4 NGrid=           0.
 Petite list used in FoFCou.
 Requested convergence on RMS density matrix=1.00D-08 within 128 cycles.
 Requested convergence on MAX density matrix=1.00D-06.
 Requested convergence on             energy=1.00D-06.
 No special actions if energy rises.
 Keep R1 and R2 ints in memory in canonical form, NReq=176667767.
 SCF Done:  E(UM062X) =  -154.330393622     A.U. after   13 cycles
             Convg  =    0.7742D-08             -V/T =  2.0040
 <Sx>= 0.0000 <Sy>= 0.0000 <Sz>= 0.5000 <S**2>= 0.7540 S= 0.5020
 <L.S>= 0.000000000000E+00
 Annihilation of the first spin contaminant:
 S**2 before annihilation     0.7540,   after     0.7500
 Calling FoFJK, ICntrl=      2127 FMM=F ISym2X=0 I1Cent= 0 IOpClX= 1 NMat=1 NMatS=1 NMatT=0.
 ***** Axes restored to original set *****
 -------------------------------------------------------------------
 Center     Atomic                   Forces (Hartrees/Bohr)
 Number     Number              X              Y              Z
 -------------------------------------------------------------------
      1        6          -0.007711039   -0.000365613    0.000625886
      2        6          -0.001796399   -0.001915401   -0.029287407
      3        8           0.011533035    0.002190819    0.015121181
      4        1           0.001765119   -0.001957904   -0.000684433
      5        1           0.001526783    0.002194506   -0.000565195
      6        1           0.003483295    0.000297864   -0.000905089
      7        1          -0.005540519   -0.000850121    0.007213003
      8        1          -0.003260274    0.000405850    0.008482054
 -------------------------------------------------------------------
 Cartesian Forces:  Max     0.029287407 RMS     0.007866612

 GradGradGradGradGradGradGradGradGradGradGradGradGradGradGradGradGradGrad
 Berny optimization.
 Using GDIIS optimizer.
 Internal  Forces:  Max     0.015552633 RMS     0.004738422
 Search for a local minimum.
 Step number   2 out of a maximum of   33
 All quantities printed in internal units (Hartrees-Bohrs-Radians)
 Swaping is turned off.
 Update second derivatives using D2CorX and points    1    2
 DE= -8.58D-03 DEPred=-9.00D-03 R= 9.53D-01
 SS=  1.41D+00  RLast= 2.98D-01 DXNew= 5.0454D-01 8.9515D-01
 Trust test= 9.53D-01 RLast= 2.98D-01 DXMaxT set to 5.05D-01
 ITU=  1  0
     Eigenvalues ---    0.01628   0.01675   0.03968   0.10033   0.10548
     Eigenvalues ---    0.13671   0.15636   0.16000   0.16000   0.16667
     Eigenvalues ---    0.22772   0.30188   0.32191   0.32449   0.32617
     Eigenvalues ---    0.32717   0.43868   0.47916
 DIIS coeff's:      1.62703     -0.62703
 Cosine:  0.999 >  0.970
 Length:  0.982
 GDIIS step was calculated using  2 of the last  2 vectors.
 Iteration  1 RMS(Cart)=  0.04087384 RMS(Int)=  0.00747097
 Iteration  2 RMS(Cart)=  0.00401454 RMS(Int)=  0.00609729
 Iteration  3 RMS(Cart)=  0.00004092 RMS(Int)=  0.00609709
 Iteration  4 RMS(Cart)=  0.00000055 RMS(Int)=  0.00609709
 Variable       Old X    -DE/DX   Delta X   Delta X   Delta X     New X
                                  (DIIS)     (GDIIS)  (Total)
    R1        2.67610  -0.00034   0.01340  -0.01539  -0.00199   2.67411
    R2        2.07066  -0.00204  -0.02152   0.01342  -0.00810   2.06256
    R3        2.07065  -0.00199  -0.02150   0.01364  -0.00786   2.06279
    R4        2.06369  -0.00256  -0.02060   0.00989  -0.01071   2.05298
    R5        2.62678  -0.01555  -0.01333  -0.04166  -0.05499   2.57179
    R6        2.06597  -0.00426  -0.01964   0.00034  -0.01930   2.04667
    R7        2.06598  -0.00392  -0.01966   0.00208  -0.01758   2.04840
    A1        1.94462  -0.00084   0.00237  -0.01280  -0.01056   1.93407
    A2        1.94464  -0.00105   0.00228  -0.01489  -0.01274   1.93189
    A3        1.88306  -0.00270  -0.00774  -0.01526  -0.02309   1.85998
    A4        1.91034  -0.00020  -0.01135   0.00799  -0.00353   1.90680
    A5        1.88968   0.00248   0.00745   0.01831   0.02569   1.91537
    A6        1.88970   0.00250   0.00745   0.01827   0.02563   1.91532
    A7        1.99465   0.00050   0.05227  -0.01632   0.02082   2.01547
    A8        1.96213   0.00179   0.03188   0.04671   0.06079   2.02292
    A9        1.98539   0.00572   0.04822   0.05332   0.08595   2.07134
   A10        1.96232   0.00595   0.05826  -0.02823   0.03003   1.99236
    D1        1.06956  -0.00081  -0.00567  -0.00354  -0.00914   1.06042
    D2       -1.06952   0.00081   0.00565   0.00597   0.01157  -1.05795
    D3       -3.14159   0.00004   0.00002   0.00185   0.00186  -3.13973
    D4       -1.99306   0.00539   0.06416   0.06585   0.13179  -1.86127
    D5        1.99287  -0.00514  -0.06419  -0.04141  -0.10737   1.88550
    D6       -2.28598  -0.00873  -0.12020  -0.10490  -0.23283  -2.51881
         Item               Value     Threshold  Converged?
 Maximum Force            0.015553     0.000002     NO 
 RMS     Force            0.004738     0.000001     NO 
 Maximum Displacement     0.124962     0.000006     NO 
 RMS     Displacement     0.043484     0.000004     NO 
 Predicted change in Energy=-2.885111D-03
 GradGradGradGradGradGradGradGradGradGradGradGradGradGradGradGradGradGrad

                          Input orientation:                          
 ---------------------------------------------------------------------
 Center     Atomic      Atomic             Coordinates (Angstroms)
 Number     Number       Type             X           Y           Z
 ---------------------------------------------------------------------
      1          6           0       -1.020727   -0.081997    0.205830
      2          6           0        1.266047    0.097676   -0.205250
      3          8           0        0.019676    0.026751   -0.747153
      4          1           0       -1.034060    0.786839    0.866308
      5          1           0       -0.902504   -0.987235    0.804256
      6          1           0       -1.950170   -0.131324   -0.354478
      7          1           0        1.735900    1.072753   -0.243501
      8          1           0        1.885738   -0.783463   -0.325913
 ---------------------------------------------------------------------
                    Distance matrix (angstroms):
                    1          2          3          4          5
     1  C    0.000000
     2  C    2.330366   0.000000
     3  O    1.415077   1.360930   0.000000
     4  H    1.091460   2.629386   2.071558   0.000000
     5  H    1.091580   2.626546   2.070134   1.780027   0.000000
     6  H    1.086390   3.227811   2.014814   1.781180   1.781251
     7  H    3.022307   1.083052   2.072007   2.997683   3.507495
     8  H    3.036832   1.083967   2.077518   3.523132   3.015477
                    6          7          8
     6  H    0.000000
     7  H    3.879334   0.000000
     8  H    3.891053   1.864077   0.000000
 Stoichiometry    C2H5O(2)
 Framework group  C1[X(C2H5O)]
 Deg. of freedom    18
 Full point group                 C1      NOp   1
 Largest Abelian subgroup         C1      NOp   1
 Largest concise Abelian subgroup C1      NOp   1
                         Standard orientation:                         
 ---------------------------------------------------------------------
 Center     Atomic      Atomic             Coordinates (Angstroms)
 Number     Number       Type             X           Y           Z
 ---------------------------------------------------------------------
      1          6           0        1.139072   -0.198749    0.002649
      2          6           0       -1.190954   -0.238515    0.003086
      3          8           0       -0.071055    0.534709   -0.005902
      4          1           0        1.212402   -0.836308   -0.880203
      5          1           0        1.209142   -0.816738    0.899714
      6          1           0        1.943755    0.531104   -0.003900
      7          1           0       -1.733429   -0.283701   -0.933227
      8          1           0       -1.752141   -0.248443    0.930423
 ---------------------------------------------------------------------
 Rotational constants (GHZ):     46.6972129     10.3377903      9.5328739
 Standard basis: 6-311+G(2df,2p) (5D, 7F)
 There are   147 symmetry adapted basis functions of A   symmetry.
 Integral buffers will be    131072 words long.
 Raffenetti 2 integral format.
 Two-electron integral symmetry is turned on.
   147 basis functions,   211 primitive gaussians,   162 cartesian basis functions
    13 alpha electrons       12 beta electrons
       nuclear repulsion energy        77.2573540720 Hartrees.
 NAtoms=    8 NActive=    8 NUniq=    8 SFac= 1.00D+00 NAtFMM=   50 NAOKFM=F Big=F
 One-electron integrals computed using PRISM.
 NBasis=   147 RedAO= T  NBF=   147
 NBsUse=   147 1.00D-06 NBFU=   147
 Initial guess read from the read-write file.
 B after Tr=     0.000000    0.000000    0.000000
         Rot=    1.000000    0.000000    0.000000    0.000000 Ang=   0.00 deg.
 Initial guess orbital symmetries:
 Alpha Orbitals:
       Occupied  (A) (A) (A) (A) (A) (A) (A) (A) (A) (A) (A) (A)
                 (A)
       Virtual   (A) (A) (A) (A) (A) (A) (A) (A) (A) (A) (A) (A)
                 (A) (A) (A) (A) (A) (A) (A) (A) (A) (A) (A) (A)
                 (A) (A) (A) (A) (A) (A) (A) (A) (A) (A) (A) (A)
                 (A) (A) (A) (A) (A) (A) (A) (A) (A) (A) (A) (A)
                 (A) (A) (A) (A) (A) (A) (A) (A) (A) (A) (A) (A)
                 (A) (A) (A) (A) (A) (A) (A) (A) (A) (A) (A) (A)
                 (A) (A) (A) (A) (A) (A) (A) (A) (A) (A) (A) (A)
                 (A) (A) (A) (A) (A) (A) (A) (A) (A) (A) (A) (A)
                 (A) (A) (A) (A) (A) (A) (A) (A) (A) (A) (A) (A)
                 (A) (A) (A) (A) (A) (A) (A) (A) (A) (A) (A) (A)
                 (A) (A) (A) (A) (A) (A) (A) (A) (A) (A) (A) (A)
                 (A) (A)
 Beta  Orbitals:
       Occupied  (A) (A) (A) (A) (A) (A) (A) (A) (A) (A) (A) (A)
       Virtual   (A) (A) (A) (A) (A) (A) (A) (A) (A) (A) (A) (A)
                 (A) (A) (A) (A) (A) (A) (A) (A) (A) (A) (A) (A)
                 (A) (A) (A) (A) (A) (A) (A) (A) (A) (A) (A) (A)
                 (A) (A) (A) (A) (A) (A) (A) (A) (A) (A) (A) (A)
                 (A) (A) (A) (A) (A) (A) (A) (A) (A) (A) (A) (A)
                 (A) (A) (A) (A) (A) (A) (A) (A) (A) (A) (A) (A)
                 (A) (A) (A) (A) (A) (A) (A) (A) (A) (A) (A) (A)
                 (A) (A) (A) (A) (A) (A) (A) (A) (A) (A) (A) (A)
                 (A) (A) (A) (A) (A) (A) (A) (A) (A) (A) (A) (A)
                 (A) (A) (A) (A) (A) (A) (A) (A) (A) (A) (A) (A)
                 (A) (A) (A) (A) (A) (A) (A) (A) (A) (A) (A) (A)
                 (A) (A) (A)
 Initial guess <Sx>= 0.0000 <Sy>= 0.0000 <Sz>= 0.5000 <S**2>= 0.7541 S= 0.5020
 Harris functional with IExCor= 1009 diagonalized for initial guess.
 ExpMin= 4.38D-02 ExpMax= 8.59D+03 ExpMxC= 1.30D+03 IAcc=2 IRadAn=         0 AccDes= 0.00D+00
 HarFok:  IExCor= 1009 AccDes= 0.00D+00 IRadAn=         0 IDoV= 1
 ScaDFX=  1.000000  1.000000  1.000000  1.000000
 FoFCou: FMM=F IPFlag=           0 FMFlag=      100000 FMFlg1=           0
         NFxFlg=           0 DoJE=T BraDBF=F KetDBF=T FulRan=T
         Omega=  0.000000  0.000000  1.000000  0.000000  0.000000 ICntrl=     500 IOpCl=  0
         NMat0=    1 NMatS0=    1 NMatT0=    0 NMatD0=    1 NMtDS0=    0 NMtDT0=    0
         I1Cent=           4 NGrid=           0.
 Petite list used in FoFCou.
 Requested convergence on RMS density matrix=1.00D-08 within 128 cycles.
 Requested convergence on MAX density matrix=1.00D-06.
 Requested convergence on             energy=1.00D-06.
 No special actions if energy rises.
 Keep R1 and R2 ints in memory in canonical form, NReq=176667760.
 DSYEVD returned Info=       11099 IAlg= 4 N=   147 NDim=   147 NE2=     3378247 trying DSYEV.
 SCF Done:  E(UM062X) =  -154.333653980     A.U. after   11 cycles
             Convg  =    0.7239D-08             -V/T =  2.0034
 <Sx>= 0.0000 <Sy>= 0.0000 <Sz>= 0.5000 <S**2>= 0.7543 S= 0.5021
 <L.S>= 0.000000000000E+00
 Annihilation of the first spin contaminant:
 S**2 before annihilation     0.7543,   after     0.7500
 Calling FoFJK, ICntrl=      2127 FMM=F ISym2X=0 I1Cent= 0 IOpClX= 1 NMat=1 NMatS=1 NMatT=0.
 ***** Axes restored to original set *****
 -------------------------------------------------------------------
 Center     Atomic                   Forces (Hartrees/Bohr)
 Number     Number              X              Y              Z
 -------------------------------------------------------------------
      1        6          -0.001852040   -0.000330338   -0.000649894
      2        6           0.001587313    0.000647819   -0.008971946
      3        8           0.001754482   -0.000571376    0.002108843
      4        1          -0.000152093    0.000398106    0.000561498
      5        1          -0.000269679   -0.000323187    0.000564439
      6        1          -0.001004667   -0.000055110    0.000487727
      7        1           0.000343275    0.001193457    0.003209499
      8        1          -0.000406592   -0.000959372    0.002689835
 -------------------------------------------------------------------
 Cartesian Forces:  Max     0.008971946 RMS     0.002214116

 GradGradGradGradGradGradGradGradGradGradGradGradGradGradGradGradGradGrad
 Berny optimization.
 Using GDIIS optimizer.
 Internal  Forces:  Max     0.003597708 RMS     0.001458173
 Search for a local minimum.
 Step number   3 out of a maximum of   33
 All quantities printed in internal units (Hartrees-Bohrs-Radians)
 Swaping is turned off.
 Update second derivatives using D2CorX and points    2    3
 DE= -3.26D-03 DEPred=-2.89D-03 R= 1.13D+00
 SS=  1.41D+00  RLast= 3.19D-01 DXNew= 8.4853D-01 9.5734D-01
 Trust test= 1.13D+00 RLast= 3.19D-01 DXMaxT set to 8.49D-01
 ITU=  1  1  0
     Eigenvalues ---    0.01628   0.01668   0.02523   0.10146   0.10692
     Eigenvalues ---    0.14335   0.15956   0.15999   0.16037   0.16818
     Eigenvalues ---    0.21678   0.30910   0.32191   0.32459   0.32636
     Eigenvalues ---    0.32723   0.43395   0.49813
 DIIS coeff's:      1.14788      0.02847     -0.17636
 Cosine:  0.999 >  0.840
 Length:  0.821
 GDIIS step was calculated using  3 of the last  3 vectors.
 Iteration  1 RMS(Cart)=  0.02005706 RMS(Int)=  0.00344805
 Iteration  2 RMS(Cart)=  0.00084755 RMS(Int)=  0.00333333
 Iteration  3 RMS(Cart)=  0.00000055 RMS(Int)=  0.00333333
 Variable       Old X    -DE/DX   Delta X   Delta X   Delta X     New X
                                  (DIIS)     (GDIIS)  (Total)
    R1        2.67411   0.00307   0.00347   0.00198   0.00545   2.67956
    R2        2.06256   0.00066  -0.00725   0.01166   0.00441   2.06697
    R3        2.06279   0.00054  -0.00721   0.01124   0.00403   2.06682
    R4        2.05298   0.00061  -0.00738   0.01096   0.00358   2.05656
    R5        2.57179   0.00023  -0.01188   0.00449  -0.00739   2.56439
    R6        2.04667   0.00111  -0.00838   0.01197   0.00359   2.05026
    R7        2.04840   0.00025  -0.00813   0.00904   0.00091   2.04931
    A1        1.93407  -0.00004  -0.00089  -0.00214  -0.00306   1.93101
    A2        1.93189   0.00039  -0.00124   0.00114  -0.00014   1.93176
    A3        1.85998   0.00133  -0.00559   0.01286   0.00725   1.86723
    A4        1.90680  -0.00050  -0.00371   0.00116  -0.00260   1.90421
    A5        1.91537  -0.00057   0.00590  -0.00670  -0.00081   1.91455
    A6        1.91532  -0.00059   0.00588  -0.00634  -0.00047   1.91485
    A7        2.01547   0.00216   0.01778   0.01052   0.01969   2.03516
    A8        2.02292  -0.00055   0.01796   0.00877   0.01713   2.04005
    A9        2.07134   0.00076   0.02627   0.00684   0.02440   2.09574
   A10        1.99236   0.00280   0.02083  -0.01276   0.00807   2.00043
    D1        1.06042  -0.00019  -0.00295  -0.00098  -0.00390   1.05651
    D2       -1.05795   0.00021   0.00330  -0.00177   0.00151  -1.05644
    D3       -3.13973  -0.00009   0.00028  -0.00249  -0.00221   3.14124
    D4       -1.86127   0.00212   0.03754   0.03227   0.07038  -1.79089
    D5        1.88550  -0.00182  -0.03393  -0.01046  -0.04497   1.84053
    D6       -2.51881  -0.00360  -0.06824  -0.04473  -0.11652  -2.63533
         Item               Value     Threshold  Converged?
 Maximum Force            0.003598     0.000002     NO 
 RMS     Force            0.001458     0.000001     NO 
 Maximum Displacement     0.058920     0.000006     NO 
 RMS     Displacement     0.019961     0.000004     NO 
 Predicted change in Energy=-4.620025D-04
 GradGradGradGradGradGradGradGradGradGradGradGradGradGradGradGradGradGrad

                          Input orientation:                          
 ---------------------------------------------------------------------
 Center     Atomic      Atomic             Coordinates (Angstroms)
 Number     Number       Type             X           Y           Z
 ---------------------------------------------------------------------
      1          6           0       -1.019466   -0.082030    0.202721
      2          6           0        1.267477    0.097252   -0.236429
      3          8           0        0.017300    0.022738   -0.758923
      4          1           0       -1.024179    0.791290    0.861262
      5          1           0       -0.896036   -0.985292    0.806950
      6          1           0       -1.957983   -0.132782   -0.345890
      7          1           0        1.727656    1.079558   -0.215618
      8          1           0        1.885130   -0.790734   -0.313974
 ---------------------------------------------------------------------
                    Distance matrix (angstroms):
                    1          2          3          4          5
     1  C    0.000000
     2  C    2.335616   0.000000
     3  O    1.417963   1.357018   0.000000
     4  H    1.093795   2.634066   2.073729   0.000000
     5  H    1.093714   2.634640   2.074190   1.782025   0.000000
     6  H    1.088285   3.235505   2.023988   1.784129   1.784250
     7  H    3.011806   1.084953   2.082635   2.969068   3.491850
     8  H    3.034124   1.084447   2.085307   3.513980   3.004864
                    6          7          8
     6  H    0.000000
     7  H    3.882097   0.000000
     8  H    3.899159   1.879485   0.000000
 Stoichiometry    C2H5O(2)
 Framework group  C1[X(C2H5O)]
 Deg. of freedom    18
 Full point group                 C1      NOp   1
 Largest Abelian subgroup         C1      NOp   1
 Largest concise Abelian subgroup C1      NOp   1
                         Standard orientation:                         
 ---------------------------------------------------------------------
 Center     Atomic      Atomic             Coordinates (Angstroms)
 Number     Number       Type             X           Y           Z
 ---------------------------------------------------------------------
      1          6           0        1.140029   -0.199949    0.006397
      2          6           0       -1.195460   -0.224265    0.006785
      3          8           0       -0.071716    0.536157   -0.014542
      4          1           0        1.208111   -0.855364   -0.866634
      5          1           0        1.208573   -0.805354    0.914690
      6          1           0        1.952235    0.524108   -0.014312
      7          1           0       -1.716435   -0.347955   -0.936830
      8          1           0       -1.746168   -0.259411    0.940333
 ---------------------------------------------------------------------
 Rotational constants (GHZ):     46.5654623     10.3106901      9.5156601
 Standard basis: 6-311+G(2df,2p) (5D, 7F)
 There are   147 symmetry adapted basis functions of A   symmetry.
 Integral buffers will be    131072 words long.
 Raffenetti 2 integral format.
 Two-electron integral symmetry is turned on.
   147 basis functions,   211 primitive gaussians,   162 cartesian basis functions
    13 alpha electrons       12 beta electrons
       nuclear repulsion energy        77.1948921095 Hartrees.
 NAtoms=    8 NActive=    8 NUniq=    8 SFac= 1.00D+00 NAtFMM=   50 NAOKFM=F Big=F
 One-electron integrals computed using PRISM.
 NBasis=   147 RedAO= T  NBF=   147
 NBsUse=   147 1.00D-06 NBFU=   147
 Initial guess read from the read-write file.
 B after Tr=     0.000000    0.000000    0.000000
         Rot=    1.000000    0.000000    0.000000    0.000000 Ang=   0.00 deg.
 Initial guess orbital symmetries:
 Alpha Orbitals:
       Occupied  (A) (A) (A) (A) (A) (A) (A) (A) (A) (A) (A) (A)
                 (A)
       Virtual   (A) (A) (A) (A) (A) (A) (A) (A) (A) (A) (A) (A)
                 (A) (A) (A) (A) (A) (A) (A) (A) (A) (A) (A) (A)
                 (A) (A) (A) (A) (A) (A) (A) (A) (A) (A) (A) (A)
                 (A) (A) (A) (A) (A) (A) (A) (A) (A) (A) (A) (A)
                 (A) (A) (A) (A) (A) (A) (A) (A) (A) (A) (A) (A)
                 (A) (A) (A) (A) (A) (A) (A) (A) (A) (A) (A) (A)
                 (A) (A) (A) (A) (A) (A) (A) (A) (A) (A) (A) (A)
                 (A) (A) (A) (A) (A) (A) (A) (A) (A) (A) (A) (A)
                 (A) (A) (A) (A) (A) (A) (A) (A) (A) (A) (A) (A)
                 (A) (A) (A) (A) (A) (A) (A) (A) (A) (A) (A) (A)
                 (A) (A) (A) (A) (A) (A) (A) (A) (A) (A) (A) (A)
                 (A) (A)
 Beta  Orbitals:
       Occupied  (A) (A) (A) (A) (A) (A) (A) (A) (A) (A) (A) (A)
       Virtual   (A) (A) (A) (A) (A) (A) (A) (A) (A) (A) (A) (A)
                 (A) (A) (A) (A) (A) (A) (A) (A) (A) (A) (A) (A)
                 (A) (A) (A) (A) (A) (A) (A) (A) (A) (A) (A) (A)
                 (A) (A) (A) (A) (A) (A) (A) (A) (A) (A) (A) (A)
                 (A) (A) (A) (A) (A) (A) (A) (A) (A) (A) (A) (A)
                 (A) (A) (A) (A) (A) (A) (A) (A) (A) (A) (A) (A)
                 (A) (A) (A) (A) (A) (A) (A) (A) (A) (A) (A) (A)
                 (A) (A) (A) (A) (A) (A) (A) (A) (A) (A) (A) (A)
                 (A) (A) (A) (A) (A) (A) (A) (A) (A) (A) (A) (A)
                 (A) (A) (A) (A) (A) (A) (A) (A) (A) (A) (A) (A)
                 (A) (A) (A) (A) (A) (A) (A) (A) (A) (A) (A) (A)
                 (A) (A) (A)
 Initial guess <Sx>= 0.0000 <Sy>= 0.0000 <Sz>= 0.5000 <S**2>= 0.7543 S= 0.5022
 Harris functional with IExCor= 1009 diagonalized for initial guess.
 ExpMin= 4.38D-02 ExpMax= 8.59D+03 ExpMxC= 1.30D+03 IAcc=2 IRadAn=         0 AccDes= 0.00D+00
 HarFok:  IExCor= 1009 AccDes= 0.00D+00 IRadAn=         0 IDoV= 1
 ScaDFX=  1.000000  1.000000  1.000000  1.000000
 FoFCou: FMM=F IPFlag=           0 FMFlag=      100000 FMFlg1=           0
         NFxFlg=           0 DoJE=T BraDBF=F KetDBF=T FulRan=T
         Omega=  0.000000  0.000000  1.000000  0.000000  0.000000 ICntrl=     500 IOpCl=  0
         NMat0=    1 NMatS0=    1 NMatT0=    0 NMatD0=    1 NMtDS0=    0 NMtDT0=    0
         I1Cent=           4 NGrid=           0.
 Petite list used in FoFCou.
 Requested convergence on RMS density matrix=1.00D-08 within 128 cycles.
 Requested convergence on MAX density matrix=1.00D-06.
 Requested convergence on             energy=1.00D-06.
 No special actions if energy rises.
 Keep R1 and R2 ints in memory in canonical form, NReq=176667760.
 SCF Done:  E(UM062X) =  -154.334194076     A.U. after   12 cycles
             Convg  =    0.2339D-08             -V/T =  2.0036
 <Sx>= 0.0000 <Sy>= 0.0000 <Sz>= 0.5000 <S**2>= 0.7545 S= 0.5022
 <L.S>= 0.000000000000E+00
 Annihilation of the first spin contaminant:
 S**2 before annihilation     0.7545,   after     0.7500
 Calling FoFJK, ICntrl=      2127 FMM=F ISym2X=0 I1Cent= 0 IOpClX= 1 NMat=1 NMatS=1 NMatT=0.
 ***** Axes restored to original set *****
 -------------------------------------------------------------------
 Center     Atomic                   Forces (Hartrees/Bohr)
 Number     Number              X              Y              Z
 -------------------------------------------------------------------
      1        6          -0.000830149    0.000196629    0.000773625
      2        6           0.002625559    0.001218840   -0.004153836
      3        8          -0.000465822   -0.000958954    0.000835456
      4        1          -0.000219047   -0.000753264   -0.000399682
      5        1          -0.000251269    0.000729170   -0.000453478
      6        1           0.000692112    0.000073319    0.000422909
      7        1          -0.000612544   -0.000838807    0.001723816
      8        1          -0.000938839    0.000333067    0.001251190
 -------------------------------------------------------------------
 Cartesian Forces:  Max     0.004153836 RMS     0.001252354

 GradGradGradGradGradGradGradGradGradGradGradGradGradGradGradGradGradGrad
 Berny optimization.
 Using GDIIS optimizer.
 Internal  Forces:  Max     0.001759028 RMS     0.000739012
 Search for a local minimum.
 Step number   4 out of a maximum of   33
 All quantities printed in internal units (Hartrees-Bohrs-Radians)
 Swaping is turned off.
 Update second derivatives using D2CorX and points    2    3    4
 DE= -5.40D-04 DEPred=-4.62D-04 R= 1.17D+00
 SS=  1.41D+00  RLast= 1.49D-01 DXNew= 1.4270D+00 4.4632D-01
 Trust test= 1.17D+00 RLast= 1.49D-01 DXMaxT set to 8.49D-01
 ITU=  1  1  1  0
     Eigenvalues ---    0.01351   0.01629   0.01982   0.10214   0.10654
     Eigenvalues ---    0.14497   0.15980   0.16011   0.16189   0.16808
     Eigenvalues ---    0.20773   0.32186   0.32254   0.32465   0.32718
     Eigenvalues ---    0.33138   0.44400   0.50024
 DIIS coeff's:      1.25058     -0.18111      0.00977     -0.07925
 Cosine:  0.996 >  0.710
 Length:  0.631
 GDIIS step was calculated using  4 of the last  4 vectors.
 Iteration  1 RMS(Cart)=  0.01530751 RMS(Int)=  0.00219401
 Iteration  2 RMS(Cart)=  0.00041311 RMS(Int)=  0.00214689
 Iteration  3 RMS(Cart)=  0.00000022 RMS(Int)=  0.00214689
 Variable       Old X    -DE/DX   Delta X   Delta X   Delta X     New X
                                  (DIIS)     (GDIIS)  (Total)
    R1        2.67956   0.00065   0.00292  -0.00156   0.00136   2.68092
    R2        2.06697  -0.00084  -0.00218   0.00021  -0.00197   2.06500
    R3        2.06682  -0.00089  -0.00225   0.00007  -0.00218   2.06464
    R4        2.05656  -0.00081  -0.00245   0.00020  -0.00225   2.05431
    R5        2.56439   0.00059  -0.00736   0.00339  -0.00397   2.56042
    R6        2.05026  -0.00099  -0.00292  -0.00096  -0.00389   2.04638
    R7        2.04931  -0.00089  -0.00348  -0.00016  -0.00364   2.04567
    A1        1.93101   0.00036  -0.00120   0.00256   0.00134   1.93235
    A2        1.93176   0.00019  -0.00063   0.00073   0.00008   1.93184
    A3        1.86723  -0.00013  -0.00076  -0.00135  -0.00212   1.86511
    A4        1.90421  -0.00014  -0.00233   0.00238   0.00003   1.90424
    A5        1.91455  -0.00017   0.00252  -0.00243   0.00008   1.91464
    A6        1.91485  -0.00011   0.00260  -0.00204   0.00056   1.91541
    A7        2.03516   0.00103   0.01299   0.00289   0.01023   2.04539
    A8        2.04005  -0.00053   0.01254  -0.00013   0.00627   2.04631
    A9        2.09574   0.00042   0.01818   0.00171   0.01424   2.10998
   A10        2.00043   0.00093   0.01147  -0.00750   0.00397   2.00440
    D1        1.05651   0.00005  -0.00233  -0.00052  -0.00283   1.05368
    D2       -1.05644  -0.00014   0.00190  -0.00571  -0.00383  -1.06026
    D3        3.14124  -0.00004  -0.00042  -0.00283  -0.00326   3.13798
    D4       -1.79089   0.00129   0.03490   0.02596   0.06103  -1.72986
    D5        1.84053  -0.00068  -0.02684   0.01644  -0.01057   1.82996
    D6       -2.63533  -0.00176  -0.06057  -0.00931  -0.07195  -2.70729
         Item               Value     Threshold  Converged?
 Maximum Force            0.001759     0.000002     NO 
 RMS     Force            0.000739     0.000001     NO 
 Maximum Displacement     0.048431     0.000006     NO 
 RMS     Displacement     0.015349     0.000004     NO 
 Predicted change in Energy=-1.642143D-04
 GradGradGradGradGradGradGradGradGradGradGradGradGradGradGradGradGradGrad

                          Input orientation:                          
 ---------------------------------------------------------------------
 Center     Atomic      Atomic             Coordinates (Angstroms)
 Number     Number       Type             X           Y           Z
 ---------------------------------------------------------------------
      1          6           0       -1.017058   -0.080878    0.202697
      2          6           0        1.268363    0.094940   -0.255089
      3          8           0        0.015722    0.014694   -0.765233
      4          1           0       -1.018359    0.796227    0.854460
      5          1           0       -0.892884   -0.979100    0.812177
      6          1           0       -1.956154   -0.133824   -0.342345
      7          1           0        1.714024    1.079731   -0.189989
      8          1           0        1.886247   -0.791791   -0.316577
 ---------------------------------------------------------------------
                    Distance matrix (angstroms):
                    1          2          3          4          5
     1  C    0.000000
     2  C    2.337441   0.000000
     3  O    1.418681   1.354916   0.000000
     4  H    1.092753   2.636665   2.074493   0.000000
     5  H    1.092559   2.638865   2.073984   1.780258   0.000000
     6  H    1.087095   3.233799   2.022173   1.782356   1.782682
     7  H    2.993331   1.082897   2.085531   2.938906   3.469740
     8  H    3.033847   1.082521   2.085803   3.511391   3.005452
                    6          7          8
     6  H    0.000000
     7  H    3.868609   0.000000
     8  H    3.898414   1.883688   0.000000
 Stoichiometry    C2H5O(2)
 Framework group  C1[X(C2H5O)]
 Deg. of freedom    18
 Full point group                 C1      NOp   1
 Largest Abelian subgroup         C1      NOp   1
 Largest concise Abelian subgroup C1      NOp   1
                         Standard orientation:                         
 ---------------------------------------------------------------------
 Center     Atomic      Atomic             Coordinates (Angstroms)
 Number     Number       Type             X           Y           Z
 ---------------------------------------------------------------------
      1          6           0        1.139496   -0.200896    0.013384
      2          6           0       -1.197897   -0.215922    0.012898
      3          8           0       -0.071811    0.536283   -0.030864
      4          1           0        1.207016   -0.884830   -0.836196
      5          1           0        1.208511   -0.774578    0.940644
      6          1           0        1.950309    0.521769   -0.032585
      7          1           0       -1.693466   -0.420139   -0.928044
      8          1           0       -1.747478   -0.231581    0.945404
 ---------------------------------------------------------------------
 Rotational constants (GHZ):     46.5382154     10.3168753      9.5198827
 Standard basis: 6-311+G(2df,2p) (5D, 7F)
 There are   147 symmetry adapted basis functions of A   symmetry.
 Integral buffers will be    131072 words long.
 Raffenetti 2 integral format.
 Two-electron integral symmetry is turned on.
   147 basis functions,   211 primitive gaussians,   162 cartesian basis functions
    13 alpha electrons       12 beta electrons
       nuclear repulsion energy        77.2339073321 Hartrees.
 NAtoms=    8 NActive=    8 NUniq=    8 SFac= 1.00D+00 NAtFMM=   50 NAOKFM=F Big=F
 One-electron integrals computed using PRISM.
 NBasis=   147 RedAO= T  NBF=   147
 NBsUse=   147 1.00D-06 NBFU=   147
 Initial guess read from the read-write file.
 B after Tr=     0.000000    0.000000    0.000000
         Rot=    1.000000    0.000000    0.000000    0.000000 Ang=   0.00 deg.
 Initial guess orbital symmetries:
 Alpha Orbitals:
       Occupied  (A) (A) (A) (A) (A) (A) (A) (A) (A) (A) (A) (A)
                 (A)
       Virtual   (A) (A) (A) (A) (A) (A) (A) (A) (A) (A) (A) (A)
                 (A) (A) (A) (A) (A) (A) (A) (A) (A) (A) (A) (A)
                 (A) (A) (A) (A) (A) (A) (A) (A) (A) (A) (A) (A)
                 (A) (A) (A) (A) (A) (A) (A) (A) (A) (A) (A) (A)
                 (A) (A) (A) (A) (A) (A) (A) (A) (A) (A) (A) (A)
                 (A) (A) (A) (A) (A) (A) (A) (A) (A) (A) (A) (A)
                 (A) (A) (A) (A) (A) (A) (A) (A) (A) (A) (A) (A)
                 (A) (A) (A) (A) (A) (A) (A) (A) (A) (A) (A) (A)
                 (A) (A) (A) (A) (A) (A) (A) (A) (A) (A) (A) (A)
                 (A) (A) (A) (A) (A) (A) (A) (A) (A) (A) (A) (A)
                 (A) (A) (A) (A) (A) (A) (A) (A) (A) (A) (A) (A)
                 (A) (A)
 Beta  Orbitals:
       Occupied  (A) (A) (A) (A) (A) (A) (A) (A) (A) (A) (A) (A)
       Virtual   (A) (A) (A) (A) (A) (A) (A) (A) (A) (A) (A) (A)
                 (A) (A) (A) (A) (A) (A) (A) (A) (A) (A) (A) (A)
                 (A) (A) (A) (A) (A) (A) (A) (A) (A) (A) (A) (A)
                 (A) (A) (A) (A) (A) (A) (A) (A) (A) (A) (A) (A)
                 (A) (A) (A) (A) (A) (A) (A) (A) (A) (A) (A) (A)
                 (A) (A) (A) (A) (A) (A) (A) (A) (A) (A) (A) (A)
                 (A) (A) (A) (A) (A) (A) (A) (A) (A) (A) (A) (A)
                 (A) (A) (A) (A) (A) (A) (A) (A) (A) (A) (A) (A)
                 (A) (A) (A) (A) (A) (A) (A) (A) (A) (A) (A) (A)
                 (A) (A) (A) (A) (A) (A) (A) (A) (A) (A) (A) (A)
                 (A) (A) (A) (A) (A) (A) (A) (A) (A) (A) (A) (A)
                 (A) (A) (A)
 Initial guess <Sx>= 0.0000 <Sy>= 0.0000 <Sz>= 0.5000 <S**2>= 0.7545 S= 0.5022
 Harris functional with IExCor= 1009 diagonalized for initial guess.
 ExpMin= 4.38D-02 ExpMax= 8.59D+03 ExpMxC= 1.30D+03 IAcc=2 IRadAn=         0 AccDes= 0.00D+00
 HarFok:  IExCor= 1009 AccDes= 0.00D+00 IRadAn=         0 IDoV= 1
 ScaDFX=  1.000000  1.000000  1.000000  1.000000
 FoFCou: FMM=F IPFlag=           0 FMFlag=      100000 FMFlg1=           0
         NFxFlg=           0 DoJE=T BraDBF=F KetDBF=T FulRan=T
         Omega=  0.000000  0.000000  1.000000  0.000000  0.000000 ICntrl=     500 IOpCl=  0
         NMat0=    1 NMatS0=    1 NMatT0=    0 NMatD0=    1 NMtDS0=    0 NMtDT0=    0
         I1Cent=           4 NGrid=           0.
 Petite list used in FoFCou.
 Requested convergence on RMS density matrix=1.00D-08 within 128 cycles.
 Requested convergence on MAX density matrix=1.00D-06.
 Requested convergence on             energy=1.00D-06.
 No special actions if energy rises.
 Keep R1 and R2 ints in memory in canonical form, NReq=176667760.
 SCF Done:  E(UM062X) =  -154.334387674     A.U. after   12 cycles
             Convg  =    0.2466D-08             -V/T =  2.0035
 <Sx>= 0.0000 <Sy>= 0.0000 <Sz>= 0.5000 <S**2>= 0.7545 S= 0.5023
 <L.S>= 0.000000000000E+00
 Annihilation of the first spin contaminant:
 S**2 before annihilation     0.7545,   after     0.7500
 Calling FoFJK, ICntrl=      2127 FMM=F ISym2X=0 I1Cent= 0 IOpClX= 1 NMat=1 NMatS=1 NMatT=0.
 ***** Axes restored to original set *****
 -------------------------------------------------------------------
 Center     Atomic                   Forces (Hartrees/Bohr)
 Number     Number              X              Y              Z
 -------------------------------------------------------------------
      1        6          -0.000097264    0.000457205    0.000117481
      2        6           0.001682184    0.000692247   -0.002069908
      3        8          -0.001057125   -0.001156457    0.000214483
      4        1          -0.000095437   -0.000143174   -0.000056396
      5        1          -0.000088354    0.000113506   -0.000135241
      6        1          -0.000051654    0.000048181    0.000151027
      7        1          -0.000088250    0.000015975    0.001270988
      8        1          -0.000204100   -0.000027483    0.000507566
 -------------------------------------------------------------------
 Cartesian Forces:  Max     0.002069908 RMS     0.000717337

 GradGradGradGradGradGradGradGradGradGradGradGradGradGradGradGradGradGrad
 Berny optimization.
 Using GDIIS optimizer.
 Internal  Forces:  Max     0.001219262 RMS     0.000456905
 Search for a local minimum.
 Step number   5 out of a maximum of   33
 All quantities printed in internal units (Hartrees-Bohrs-Radians)
 Swaping is turned off.
 Update second derivatives using D2CorX and points    2    3    4    5
 DE= -1.94D-04 DEPred=-1.64D-04 R= 1.18D+00
 SS=  1.41D+00  RLast= 9.73D-02 DXNew= 1.4270D+00 2.9202D-01
 Trust test= 1.18D+00 RLast= 9.73D-02 DXMaxT set to 8.49D-01
 ITU=  1  1  1  1  0
     Eigenvalues ---    0.00563   0.01629   0.02665   0.10188   0.10664
     Eigenvalues ---    0.14919   0.15978   0.16025   0.16282   0.16495
     Eigenvalues ---    0.21467   0.32189   0.32387   0.32506   0.32717
     Eigenvalues ---    0.34548   0.44672   0.48279
 Cosine: -0.687 <  0.670
 Cut down GDIIS permanently because of the cosine check. E 8
 DIIS coeff's:      0.60517      0.87136     -0.36169     -0.11484
 Cosine:  0.915 >  0.710
 Length:  0.374
 GDIIS step was calculated using  4 of the last  5 vectors.
 Iteration  1 RMS(Cart)=  0.01703293 RMS(Int)=  0.00214501
 Iteration  2 RMS(Cart)=  0.00041311 RMS(Int)=  0.00209385
 Iteration  3 RMS(Cart)=  0.00000014 RMS(Int)=  0.00209385
 Variable       Old X    -DE/DX   Delta X   Delta X   Delta X     New X
                                  (DIIS)     (GDIIS)  (Total)
    R1        2.68092   0.00026   0.00183  -0.00037   0.00146   2.68238
    R2        2.06500  -0.00014   0.00195  -0.00224  -0.00029   2.06472
    R3        2.06464  -0.00018   0.00188  -0.00239  -0.00051   2.06413
    R4        2.05431  -0.00003   0.00137  -0.00181  -0.00045   2.05386
    R5        2.56042   0.00122  -0.00827   0.00571  -0.00256   2.55785
    R6        2.04638   0.00005   0.00103  -0.00236  -0.00133   2.04505
    R7        2.04567  -0.00012  -0.00015  -0.00167  -0.00182   2.04385
    A1        1.93235   0.00009  -0.00320   0.00347   0.00025   1.93260
    A2        1.93184   0.00002  -0.00156   0.00138  -0.00020   1.93164
    A3        1.86511   0.00018   0.00164  -0.00139   0.00024   1.86535
    A4        1.90424  -0.00003  -0.00166   0.00151  -0.00017   1.90407
    A5        1.91464  -0.00016   0.00253  -0.00282  -0.00030   1.91433
    A6        1.91541  -0.00010   0.00250  -0.00230   0.00019   1.91560
    A7        2.04539   0.00067   0.00774   0.00599   0.00814   2.05353
    A8        2.04631  -0.00031   0.01267  -0.00196   0.00477   2.05108
    A9        2.10998   0.00008   0.01588   0.00043   0.01073   2.12071
   A10        2.00440   0.00032   0.00573  -0.00259   0.00314   2.00753
    D1        1.05368  -0.00003  -0.00179  -0.00176  -0.00354   1.05014
    D2       -1.06026  -0.00007   0.00356  -0.00691  -0.00336  -1.06362
    D3        3.13798  -0.00006   0.00044  -0.00407  -0.00362   3.13436
    D4       -1.72986   0.00114   0.02458   0.04021   0.06485  -1.66501
    D5        1.82996   0.00003  -0.02959   0.02926  -0.00039   1.82957
    D6       -2.70729  -0.00106  -0.05386  -0.01084  -0.06646  -2.77374
         Item               Value     Threshold  Converged?
 Maximum Force            0.001219     0.000002     NO 
 RMS     Force            0.000457     0.000001     NO 
 Maximum Displacement     0.054990     0.000006     NO 
 RMS     Displacement     0.017082     0.000004     NO 
 Predicted change in Energy=-1.184253D-04
[...]
     5   1    -0.21   0.32   0.29    -0.19   0.08   0.00     0.40  -0.13  -0.04
     6   1    -0.02   0.05  -0.50    -0.01   0.05  -0.28    -0.07  -0.35   0.00
     7   1    -0.06  -0.09  -0.45     0.18   0.13   0.52    -0.51  -0.04   0.06
     8   1     0.00  -0.04   0.21    -0.01   0.09  -0.70     0.01  -0.40  -0.15
                     4                      5                      6
                     A                      A                      A
 Frequencies --   587.3212              1006.9798              1148.2826
 Red. masses --     1.2964                 3.5923                 1.2620
 Frc consts  --     0.2635                 2.1462                 0.9804
 IR Inten    --    49.8418                31.2549                 5.9789
  Atom  AN      X      Y      Z        X      Y      Z        X      Y      Z
     1   6    -0.01   0.00  -0.01     0.31   0.14   0.01     0.04  -0.09   0.00
     2   6     0.01   0.02   0.16    -0.22   0.05   0.02    -0.01   0.11   0.00
     3   8    -0.01   0.00  -0.03    -0.10  -0.20  -0.02     0.01  -0.03   0.00
     4   1    -0.02   0.01  -0.01     0.18   0.13   0.01    -0.25   0.08  -0.05
     5   1    -0.01   0.00  -0.01     0.17   0.12   0.01    -0.37  -0.02   0.04
     6   1     0.00   0.01   0.01     0.41   0.24   0.02     0.43   0.34   0.00
     7   1     0.02  -0.17  -0.64     0.10   0.00  -0.08    -0.52   0.17   0.09
     8   1     0.09  -0.02  -0.73    -0.48   0.47   0.04     0.25  -0.32  -0.06
                     7                      8                      9
                     A                      A                      A
 Frequencies --  1183.2512              1268.2886              1324.5015
 Red. masses --     1.2786                 1.6142                 4.9219
 Frc consts  --     1.0547                 1.5299                 5.0873
 IR Inten    --     2.8892                19.5955               190.6774
  Atom  AN      X      Y      Z        X      Y      Z        X      Y      Z
     1   6     0.00   0.00   0.14    -0.01   0.13   0.01     0.22   0.04   0.00
     2   6     0.00  -0.01   0.00     0.08   0.08  -0.01     0.26  -0.17  -0.03
     3   8     0.00   0.01  -0.06    -0.06  -0.12   0.00    -0.37   0.12   0.02
     4   1     0.55   0.39  -0.13     0.30  -0.08   0.08    -0.33   0.13   0.00
     5   1    -0.47  -0.37  -0.23     0.34  -0.02  -0.09    -0.33   0.11   0.05
     6   1    -0.08  -0.02  -0.30    -0.39  -0.29  -0.01     0.18   0.02  -0.02
     7   1     0.02  -0.01  -0.01    -0.47   0.15   0.09     0.34  -0.17   0.03
     8   1    -0.01   0.02   0.02     0.33  -0.35  -0.07     0.38  -0.37   0.01
                    10                     11                     12
                     A                      A                      A
 Frequencies --  1465.3283              1503.7190              1506.9659
 Red. masses --     1.1079                 1.0620                 1.1345
 Frc consts  --     1.4016                 1.4149                 1.5180
 IR Inten    --     2.5880                 7.9709                 4.2014
  Atom  AN      X      Y      Z        X      Y      Z        X      Y      Z
     1   6     0.06   0.02   0.00    -0.02  -0.01  -0.05    -0.04  -0.06   0.02
     2   6     0.05  -0.03   0.00     0.03  -0.02   0.00     0.06  -0.04   0.00
     3   8     0.03   0.01   0.01    -0.01   0.00  -0.01    -0.03   0.00   0.01
     4   1    -0.36  -0.07   0.09     0.53  -0.06  -0.06     0.08   0.51  -0.28
     5   1    -0.38  -0.04  -0.07    -0.31   0.25   0.20     0.41   0.28   0.32
     6   1    -0.28  -0.34  -0.02     0.08  -0.02   0.68     0.06   0.11  -0.25
     7   1    -0.50   0.01  -0.01    -0.14   0.00   0.00    -0.34  -0.01   0.00
     8   1    -0.23   0.45  -0.06    -0.05   0.12  -0.01    -0.12   0.28  -0.05
                    13                     14                     15
                     A                      A                      A
 Frequencies --  1516.8091              3036.3162              3100.7024
 Red. masses --     1.1320                 1.0358                 1.1038
 Frc consts  --     1.5345                 5.6261                 6.2523
 IR Inten    --    21.0178                44.2645                32.5135
  Atom  AN      X      Y      Z        X      Y      Z        X      Y      Z
     1   6     0.05  -0.02  -0.01    -0.02  -0.04   0.01     0.01  -0.01   0.09
     2   6    -0.06   0.05   0.00     0.00   0.00   0.00     0.00   0.00   0.00
     3   8     0.03  -0.03  -0.01     0.00   0.00   0.00     0.00   0.00   0.00
     4   1    -0.18   0.41  -0.19     0.05   0.25   0.51    -0.06  -0.36  -0.69
     5   1    -0.24   0.37   0.32     0.02   0.51  -0.57     0.02   0.42  -0.44
     6   1    -0.33  -0.42   0.02     0.23  -0.21  -0.03    -0.07   0.07   0.03
     7   1     0.28   0.02   0.01    -0.01  -0.03   0.01     0.00   0.02   0.00
     8   1     0.12  -0.27   0.04     0.01   0.01   0.00    -0.01  -0.01   0.00
                    16                     17                     18
                     A                      A                      A
 Frequencies --  3135.9961              3168.7642              3281.2391
 Red. masses --     1.0480                 1.1005                 1.1219
 Frc consts  --     6.0727                 6.5107                 7.1169
 IR Inten    --    18.5528                11.6807                 5.9334
  Atom  AN      X      Y      Z        X      Y      Z        X      Y      Z
     1   6     0.00   0.00   0.00    -0.06   0.07   0.02     0.00   0.00   0.00
     2   6     0.03  -0.05   0.02     0.00   0.00   0.00     0.07   0.08  -0.01
     3   8     0.00   0.00   0.00     0.00   0.00   0.00     0.00   0.00   0.00
     4   1     0.01   0.02   0.03    -0.03  -0.10  -0.23     0.00   0.00   0.00
     5   1     0.01   0.01  -0.01    -0.01  -0.11   0.14     0.00   0.00   0.00
     6   1     0.01  -0.01   0.00     0.69  -0.64  -0.11     0.00  -0.01   0.00
     7   1     0.06   0.81  -0.20     0.00   0.00   0.00    -0.04  -0.50   0.14
     8   1    -0.46  -0.28  -0.02     0.01   0.00   0.00    -0.73  -0.43  -0.06

 -------------------
 - Thermochemistry -
 -------------------
 Temperature   298.150 Kelvin.  Pressure   1.00000 Atm.
 Atom     1 has atomic number  6 and mass  12.00000
 Atom     2 has atomic number  6 and mass  12.00000
 Atom     3 has atomic number  8 and mass  15.99491
 Atom     4 has atomic number  1 and mass   1.00783
 Atom     5 has atomic number  1 and mass   1.00783
 Atom     6 has atomic number  1 and mass   1.00783
 Atom     7 has atomic number  1 and mass   1.00783
 Atom     8 has atomic number  1 and mass   1.00783
 Molecular mass:    45.03404 amu.
 Principal axes and moments of inertia in atomic units:
                           1         2         3
     Eigenvalues --    37.83892 166.60759 192.18772
           X            0.99996   0.00394   0.00788
           Y           -0.00363   0.99925  -0.03861
           Z           -0.00802   0.03858   0.99922
 This molecule is an asymmetric top.
 Rotational symmetry number  1.
 Rotational temperatures (Kelvin)      2.28901     0.51987     0.45067
 Rotational constants (GHZ):          47.69537    10.83229     9.39051
 Zero-point vibrational energy     174354.3 (Joules/Mol)
                                   41.67167 (Kcal/Mol)
 Warning -- explicit consideration of   4 degrees of freedom as
           vibrations may cause significant error
 Vibrational temperatures:    259.13   418.52   639.25   845.02  1448.82
          (Kelvin)           1652.12  1702.43  1824.78  1905.66  2108.28
                             2163.51  2168.19  2182.35  4368.58  4461.21
                             4511.99  4559.14  4720.97
 
 Zero-point correction=                           0.066408 (Hartree/Particle)
 Thermal correction to Energy=                    0.070818
 Thermal correction to Enthalpy=                  0.071762
 Thermal correction to Gibbs Free Energy=         0.040494
 Sum of electronic and zero-point Energies=           -154.276946
 Sum of electronic and thermal Energies=              -154.272537
 Sum of electronic and thermal Enthalpies=            -154.271592
 Sum of electronic and thermal Free Energies=         -154.302861
 
                     E (Thermal)             CV                S
                      KCal/Mol        Cal/Mol-Kelvin    Cal/Mol-Kelvin
 Total                   44.439             13.382             65.809
 Electronic               0.000              0.000              1.377
 Translational            0.889              2.981             37.340
 Rotational               0.889              2.981             21.721
 Vibrational             42.661              7.420              5.371
 Vibration     1          0.629              1.867              2.327
 Vibration     2          0.687              1.691              1.469
 Vibration     3          0.804              1.373              0.813
 Vibration     4          0.944              1.059              0.472
                       Q            Log10(Q)             Ln(Q)
 Total Bot       0.236715D-18        -18.625775        -42.887431
 Total V=0       0.831255D+12         11.919734         27.446203
 Vib (Bot)       0.799655D-30        -30.097097        -69.301128
 Vib (Bot)    1  0.111514D+01          0.047328          0.108977
 Vib (Bot)    2  0.657102D+00         -0.182367         -0.419916
 Vib (Bot)    3  0.387751D+00         -0.411447         -0.947391
 Vib (Bot)    4  0.257548D+00         -0.589142         -1.356549
 Vib (V=0)       0.280809D+01          0.448412          1.032506
 Vib (V=0)    1  0.172210D+01          0.236059          0.543545
 Vib (V=0)    2  0.132570D+01          0.122446          0.281942
 Vib (V=0)    3  0.113273D+01          0.054128          0.124633
 Vib (V=0)    4  0.106243D+01          0.026302          0.060562
 Electronic      0.200000D+01          0.301030          0.693147
 Translational   0.118786D+08          7.074767         16.290252
 Rotational      0.124602D+05          4.095526          9.430297
 ***** Axes restored to original set *****
 -------------------------------------------------------------------
 Center     Atomic                   Forces (Hartrees/Bohr)
 Number     Number              X              Y              Z
 -------------------------------------------------------------------
      1        6          -0.000003001   -0.000008393   -0.000013341
      2        6           0.000003962    0.000010422    0.000017328
      3        8           0.000013579   -0.000004732    0.000002402
      4        1          -0.000014407   -0.000008797   -0.000022045
      5        1          -0.000011558   -0.000000564   -0.000008783
      6        1           0.000007042   -0.000020836   -0.000023952
      7        1          -0.000011865    0.000019164    0.000018345
      8        1           0.000016249    0.000013736    0.000030046
 -------------------------------------------------------------------
 Cartesian Forces:  Max     0.000030046 RMS     0.000014626

 GradGradGradGradGradGradGradGradGradGradGradGradGradGradGradGradGradGrad
 Berny optimization.
 Internal  Forces:  Max     0.000000506 RMS     0.000000132
 Search for a local minimum.
 Step number   1 out of a maximum of    2
 All quantities printed in internal units (Hartrees-Bohrs-Radians)
 Swaping is turned off.
 Second derivative matrix not updated -- analytic derivatives used.
 ITU=  0
     Eigenvalues ---    0.00389   0.00741   0.01180   0.08697   0.08715
     Eigenvalues ---    0.10401   0.13569   0.16665   0.18415   0.18747
     Eigenvalues ---    0.24165   0.33243   0.33835   0.35258   0.35731
     Eigenvalues ---    0.37023   0.41481   0.49073
 Angle between quadratic step and forces=  69.33 degrees.
 Linear search not attempted -- option 19 set.
 Iteration  1 RMS(Cart)=  0.00000463 RMS(Int)=  0.00000000
 Iteration  2 RMS(Cart)=  0.00000000 RMS(Int)=  0.00000000
 Variable       Old X    -DE/DX   Delta X   Delta X   Delta X     New X
                                 (Linear)    (Quad)   (Total)
    R1        2.66816   0.00000   0.00000   0.00000   0.00000   2.66816
    R2        2.06360   0.00000   0.00000   0.00000   0.00000   2.06360
    R3        2.06584   0.00000   0.00000   0.00000   0.00000   2.06584
    R4        2.05215   0.00000   0.00000   0.00000   0.00000   2.05215
    R5        2.54431   0.00000   0.00000   0.00000   0.00000   2.54431
    R6        2.04706   0.00000   0.00000   0.00000   0.00000   2.04706
    R7        2.03650   0.00000   0.00000   0.00000   0.00000   2.03651
    A1        1.92739   0.00000   0.00000   0.00000   0.00000   1.92739
    A2        1.92858   0.00000   0.00000   0.00000   0.00000   1.92858
    A3        1.87185   0.00000   0.00000   0.00000   0.00000   1.87185
    A4        1.90789   0.00000   0.00000   0.00000   0.00000   1.90789
    A5        1.91564   0.00000   0.00000   0.00000   0.00000   1.91565
    A6        1.91221   0.00000   0.00000   0.00000   0.00000   1.91221
    A7        2.06264   0.00000   0.00000   0.00000   0.00000   2.06264
    A8        1.99323   0.00000   0.00000   0.00000   0.00000   1.99323
    A9        2.11937   0.00000   0.00000   0.00000   0.00000   2.11937
   A10        2.00199   0.00000   0.00000   0.00000   0.00000   2.00199
    D1        1.08664   0.00000   0.00000   0.00000   0.00000   1.08665
    D2       -1.02643   0.00000   0.00000   0.00000   0.00000  -1.02642
    D3       -3.10975   0.00000   0.00000   0.00000   0.00000  -3.10975
    D4        0.42863   0.00000   0.00000   0.00001   0.00001   0.42864
    D5        3.09553   0.00000   0.00000   0.00001   0.00001   3.09554
    D6        2.63113   0.00000   0.00000   0.00000   0.00000   2.63113
         Item               Value     Threshold  Converged?
 Maximum Force            0.000001     0.000002     YES
 RMS     Force            0.000000     0.000001     YES
 Maximum Displacement     0.000014     0.000006     NO 
 RMS     Displacement     0.000005     0.000004     NO 
 Predicted change in Energy=-1.456232D-12
 GradGradGradGradGradGradGradGradGradGradGradGradGradGradGradGradGradGrad


 Test job not archived.
 1\1\GINC-COMPUTE-3-041\Freq\UM062X\6-311+G(2df,2p)\C2H5O1(2)\ROOT\07-M
 ar-2017\0\\#N Geom=AllCheck Guess=TCheck SCRF=Check Test GenChk UM062X
 /6-311+G(2df,2p) Freq\\InChI=1S/C2H5O/c1-3-2/h1H2,2H3/u1\\0,2\C,-0.999
 9322408,0.03404589,0.1576851806\C,1.2724335859,0.0338697626,-0.3237157
 607\O,0.0402247744,-0.3325603106,-0.723912957\H,-1.0548302813,1.120627
 4933,0.2515808112\H,-0.8380437068,-0.4064692825,1.1450144188\H,-1.9267
 191056,-0.3454350212,-0.2622550754\H,1.4425524339,0.1847677638,0.73540
 25456\H,2.0642145404,-0.2888462954,-0.9796991632\\Version=EM64L-G09Rev
 B.01\State=2-A\HF=-154.3433543\S2=0.754519\S2-1=0.\S2A=0.750015\RMSD=5
 .312e-09\RMSF=1.463e-05\ZeroPoint=0.066408\Thermal=0.0708177\Dipole=-0
 .246916,0.0581245,0.4844139\DipoleDeriv=0.6743959,-0.0584499,-0.191014
 8,-0.1511918,0.3460466,0.0345919,-0.3535643,0.0149482,0.4567278,0.8005
 485,0.1994198,0.0743228,0.2568261,-0.2304568,0.1463448,0.2427362,0.184
 4583,0.1959834,-1.3958782,-0.1262156,0.1046446,-0.1993026,-0.3438604,-
 0.1249692,0.0320001,-0.1529318,-0.555421,0.0149703,-0.0457151,0.017602
 ,0.0926588,-0.1334363,-0.035059,0.067024,0.0188556,0.0338498,0.0029538
 ,0.0448237,-0.0655938,0.0273379,0.0130468,0.0827888,0.0717678,0.05797,
 -0.1084538,-0.0771379,-0.0273493,-0.0075529,-0.0565228,0.060256,-0.029
 4121,-0.0580421,-0.0360981,0.0367027,0.0100876,0.0012922,0.0514207,-0.
 0267529,0.1575213,0.0018263,-0.0473636,-0.032028,-0.0915322,-0.0299401
 ,0.0121943,0.0161714,0.0569474,0.1308827,-0.0761115,0.045442,-0.055174
 3,0.0321433\Polar=37.5647904,0.28288,28.8000914,-1.5547983,-0.2425245,
 28.4143872\PG=C01 [X(C2H5O1)]\NImag=0\\0.57004653,0.03328463,0.5758472
 9,0.06158153,-0.00668077,0.54610327,-0.05394616,-0.01006913,-0.0047243
 5,0.63873465,0.00866822,0.00024131,0.00239857,0.02432150,0.11018636,0.
 02573276,0.00828113,0.00470280,-0.04378568,0.17559489,0.61327912,-0.16
 641781,0.04181124,0.09604218,-0.33250441,-0.09173013,-0.09868502,0.598
 32748,0.02336265,-0.08011274,-0.03909978,-0.08139816,-0.04771029,-0.06
 289081,0.04124351,0.11790804,0.05894617,-0.04243849,-0.15357398,-0.051
 78794,-0.04976298,-0.11479881,-0.03033276,0.11231920,0.29115268,-0.051
 10561,-0.00022224,-0.00323221,0.00618222,0.00278174,0.00201709,-0.0146
 3797,0.03071538,0.01049201,0.05526102,0.00540119,-0.31018922,-0.014185
 52,-0.00111688,0.00107440,-0.00005147,0.00874814,-0.00512906,-0.008691
 75,-0.01255162,0.33523237,-0.00157314,-0.01034872,-0.05186582,-0.00305
 000,-0.00024759,-0.00029714,0.01228585,-0.02739374,-0.00694007,-0.0074
 2597,0.02195544,0.05527450,-0.05993944,0.01920138,-0.04806902,0.005638
 12,0.00115713,0.00455175,-0.00787993,-0.00997798,0.03292801,0.00124274
 ,-0.00107244,-0.00065150,0.06284947,0.01863797,-0.09880009,0.09880110,
 -0.00062520,-0.00032205,0.00027356,0.00011844,0.00764725,-0.01330798,0
 .00664393,-0.01185273,0.02924078,-0.02225563,0.09760872,-0.04185645,0.
 09565329,-0.24802755,-0.00409157,-0.00088552,-0.00006421,0.01249066,0.
 00316078,-0.02808555,-0.00083575,-0.00057369,0.00385731,0.03602990,-0.
 10341576,0.28015120,-0.24034476,-0.08106788,-0.09160698,-0.00106211,0.
 00195540,0.00445779,-0.03141112,-0.00743163,-0.00565670,0.00354117,0.0
 0004453,0.00018453,-0.00213710,-0.00177332,-0.00278796,0.27245258,-0.0
 8845306,-0.08907907,-0.04060623,0.00133375,0.00031543,-0.00115150,0.01
 219062,0.00427826,0.00403239,-0.02692011,-0.00871327,-0.01353122,0.012
 83620,0.00582138,0.00578783,0.08855519,0.08718880,-0.10439609,-0.04220
 414,-0.09913774,0.00222324,-0.00121430,-0.00281516,0.02859846,0.008437
 28,0.00813501,-0.00049908,0.00091361,0.00007920,-0.02326867,-0.0115443
 0,-0.00903492,0.09584007,0.04539778,0.10170624,0.00359092,-0.00084341,
 -0.00568012,-0.06061993,-0.00663370,-0.02448232,-0.01583933,-0.0058786
 4,-0.03340973,-0.00030569,0.00031386,0.00014246,0.00025851,-0.00058797
 ,0.00074702,0.00007292,0.00004669,0.00040029,0.06497395,0.00116666,-0.
 00001222,0.00034589,-0.00868386,-0.01682440,-0.03494490,-0.00347469,0.
 00139628,-0.01226273,0.00008860,-0.00056126,0.00011527,0.00000248,0.00
 001336,0.00063806,0.00008194,-0.00030909,0.00003819,0.01211805,0.01573
 694,0.00297697,-0.00101509,0.00168935,-0.03319543,-0.05667875,-0.32970
 228,-0.00733214,0.00038302,-0.00603539,-0.00045629,0.00046236,-0.00000
 487,-0.00124708,0.00018142,0.00061732,-0.00001160,0.00008858,0.0004745
 5,0.04430425,0.05420009,0.34068919,-0.00188368,-0.00209459,-0.00431102
 ,-0.20242238,0.05947984,0.13019363,-0.02963691,0.00936488,0.01882094,-
 0.00017789,0.00023322,0.00008777,-0.00003236,-0.00015822,0.00030415,-0
 .00111159,0.00041071,0.00110178,0.00786865,-0.00129918,-0.00503868,0.2
 2739616,-0.00206825,0.00210473,-0.00097326,0.07623798,-0.04696077,-0.0
 8511089,-0.00890714,0.00172226,0.01011234,-0.00053568,0.00013876,0.000
 20979,0.00010887,-0.00011584,-0.00036499,-0.00036423,0.00049755,0.0001
 7588,0.00146512,0.00056039,0.00237837,-0.06593666,0.04205292,-0.001411
 74,-0.00124721,0.00010966,0.13841172,-0.06920430,-0.17030433,-0.013067
 24,0.00508405,0.01014610,-0.00005979,0.00017103,-0.00010311,-0.0002733
 8,-0.00022883,0.00058640,-0.00041915,-0.00001764,0.00059282,0.01797815
 ,-0.00812986,-0.00772786,-0.14115856,0.07357276,0.16670032\\0.00000300
 ,0.00000839,0.00001334,-0.00000396,-0.00001042,-0.00001733,-0.00001358
 ,0.00000473,-0.00000240,0.00001441,0.00000880,0.00002205,0.00001156,0.
 00000056,0.00000878,-0.00000704,0.00002084,0.00002395,0.00001186,-0.00
 001916,-0.00001835,-0.00001625,-0.00001374,-0.00003005\\\@


 AS FAR AS THE LAWS OF MATHEMATICS REFER TO REALITY,
 THEY ARE NOT CERTAIN; AND AS FAR AS THEY ARE CERTAIN,
 THEY DO NOT REFER TO REALITY.

                                         -- ALBERT EINSTEIN
 Job cpu time:  0 days  0 hours 26 minutes  2.2 seconds.
 File lengths (MBytes):  RWF=   1440 Int=      0 D2E=      0 Chk=     32 Scr=     32
 Normal termination of Gaussian 09 at Tue Mar  7 16:14:40 2017.
