 Entering Gaussian System, Link 0=/shared/apps/gaussian/G09_LINUX_LINDA/g09/g09
 Input=/gss_gpfs_scratch/westgroup/QMscratch/AGFMQEQTOYDNLY-UHFFFAOYSA-u2.gjf
 Output=/gss_gpfs_scratch/westgroup/QMscratch/AGFMQEQTOYDNLY-UHFFFAOYSA-u2.log
 Initial command:
 /shared/apps/gaussian/G09_LINUX_LINDA/g09/l1.exe /gss_gpfs_scratch/westgroup/rwest-autotst-1/Gau-27743.inp -scrdir=/gss_gpfs_scratch/westgroup/rwest-autotst-1/
 Entering Link 1 = /shared/apps/gaussian/G09_LINUX_LINDA/g09/l1.exe PID=     27744.
  
 Copyright (c) 1988,1990,1992,1993,1995,1998,2003,2009,2010,
            Gaussian, Inc.  All Rights Reserved.
  
 This is part of the Gaussian(R) 09 program.  It is based on
 the Gaussian(R) 03 system (copyright 2003, Gaussian, Inc.),
 the Gaussian(R) 98 system (copyright 1998, Gaussian, Inc.),
 the Gaussian(R) 94 system (copyright 1995, Gaussian, Inc.),
 the Gaussian 92(TM) system (copyright 1992, Gaussian, Inc.),
 the Gaussian 90(TM) system (copyright 1990, Gaussian, Inc.),
 the Gaussian 88(TM) system (copyright 1988, Gaussian, Inc.),
 the Gaussian 86(TM) system (copyright 1986, Carnegie Mellon
 University), and the Gaussian 82(TM) system (copyright 1983,
 Carnegie Mellon University). Gaussian is a federally registered
 trademark of Gaussian, Inc.
  
 This software contains proprietary and confidential information,
 including trade secrets, belonging to Gaussian, Inc.
  
 This software is provided under written license and may be
 used, copied, transmitted, or stored only in accord with that
 written license.
  
 The following legend is applicable only to US Government
 contracts under FAR:
  
                    RESTRICTED RIGHTS LEGEND
  
 Use, reproduction and disclosure by the US Government is
 subject to restrictions as set forth in subparagraphs (a)
 and (c) of the Commercial Computer Software - Restricted
 Rights clause in FAR 52.227-19.
  
 Gaussian, Inc.
 340 Quinnipiac St., Bldg. 40, Wallingford CT 06492
  
  
 ---------------------------------------------------------------
 Warning -- This program may not be used in any manner that
 competes with the business of Gaussian, Inc. or will provide
 assistance to any competitor of Gaussian, Inc.  The licensee
 of this program is prohibited from giving any competitor of
 Gaussian, Inc. access to this program.  By using this program,
 the user acknowledges that Gaussian, Inc. is engaged in the
 business of creating and licensing software in the field of
 computational chemistry and represents and warrants to the
 licensee that it is not a competitor of Gaussian, Inc. and that
 it will not use this program in any manner prohibited above.
 ---------------------------------------------------------------
  

 Cite this work as:
 Gaussian 09, Revision B.01,
 M. J. Frisch, G. W. Trucks, H. B. Schlegel, G. E. Scuseria, 
 M. A. Robb, J. R. Cheeseman, G. Scalmani, V. Barone, B. Mennucci, 
 G. A. Petersson, H. Nakatsuji, M. Caricato, X. Li, H. P. Hratchian, 
 A. F. Izmaylov, J. Bloino, G. Zheng, J. L. Sonnenberg, M. Hada, 
 M. Ehara, K. Toyota, R. Fukuda, J. Hasegawa, M. Ishida, T. Nakajima, 
 Y. Honda, O. Kitao, H. Nakai, T. Vreven, J. A. Montgomery, Jr., 
 J. E. Peralta, F. Ogliaro, M. Bearpark, J. J. Heyd, E. Brothers, 
 K. N. Kudin, V. N. Staroverov, T. Keith, R. Kobayashi, J. Normand, 
 K. Raghavachari, A. Rendell, J. C. Burant, S. S. Iyengar, J. Tomasi, 
 M. Cossi, N. Rega, J. M. Millam, M. Klene, J. E. Knox, J. B. Cross, 
 V. Bakken, C. Adamo, J. Jaramillo, R. Gomperts, R. E. Stratmann, 
 O. Yazyev, A. J. Austin, R. Cammi, C. Pomelli, J. W. Ochterski, 
 R. L. Martin, K. Morokuma, V. G. Zakrzewski, G. A. Voth, 
 P. Salvador, J. J. Dannenberg, S. Dapprich, A. D. Daniels, 
 O. Farkas, J. B. Foresman, J. V. Ortiz, J. Cioslowski, 
 and D. J. Fox, Gaussian, Inc., Wallingford CT, 2010.
 
 ******************************************
 Gaussian 09:  EM64L-G09RevB.01 12-Aug-2010
                14-Mar-2017 
 ******************************************
 %nprocshared=20
 Will use up to   20 processors via shared memory.
 %mem=5GB
 --------------------------------------------------------------
 # m062x/6-311+g(2df,2p) opt=(verytight,gdiis) freq IOP(2/16=3)
 --------------------------------------------------------------

 Warning!  Use of Opt=GDIIS is deprecated since it is seldom a good choice.

 1/7=1,14=-1,18=20,19=11,26=3,38=1/1,3;
 2/9=110,12=2,16=3,17=6,18=5,40=1/2;
 3/5=4,6=6,7=214,11=2,16=1,25=1,30=1,71=1,74=-55/1,2,3;
 4//1;
 5/5=2,38=5/2;
 6/7=2,8=2,9=2,10=2,28=1/1;
 7//1,2,3,16;
 1/7=1,14=-1,18=20,19=11/3(2);
 2/9=110,16=3/2;
 99//99;
 2/9=110,16=3/2;
 3/5=4,6=6,7=214,11=2,16=1,25=1,30=1,71=1,74=-55/1,2,3;
 4/5=5,16=3/1;
 5/5=2,38=5/2;
 7//1,2,3,16;
 1/7=1,14=-1,18=20,19=11/3(-5);
 2/9=110,16=3/2;
 6/7=2,8=2,9=2,10=2,19=2,28=1/1;
 99/9=1/99;
 --------------------------------------------
 InChI=1S/C6H11O/c1-3-4-5-6(2)7/h2-5H2,1H3/u2
 --------------------------------------------
 Symbolic Z-matrix:
 Charge =  0 Multiplicity = 2
 C                    -0.3246   -0.2698   -0.0586 
 C                    -1.5752    0.4293    0.4866 
 C                     0.9398    0.2413    0.6409 
 C                    -2.8366   -0.078    -0.206 
 C                     2.1655   -0.4325    0.0919 
 C                     3.2045    0.3641   -0.6285 
 H                    -1.6641    0.2406    1.5788 
 H                    -1.4927    1.5262    0.3243 
 H                    -0.2419   -0.0779   -1.1515 
 H                    -0.4185   -1.3668    0.102 
 H                     0.8771    0.0397    1.7324 
 H                     1.0208    1.3413    0.4976 
 H                    -2.9572   -1.1694   -0.0374 
 H                    -2.7842    0.1212   -1.2976 
 H                    -3.7241    0.4453    0.2081 
 O                     2.3218   -1.635     0.2408 
 H                     3.3127   -0.0071   -1.6691 
 H                     4.1769    0.2874   -0.0986 
 

 GradGradGradGradGradGradGradGradGradGradGradGradGradGradGradGradGradGrad
 Berny optimization.
 Initialization pass.
                           ----------------------------
                           !    Initial Parameters    !
                           ! (Angstroms and Degrees)  !
 --------------------------                            --------------------------
 ! Name  Definition              Value          Derivative Info.                !
 --------------------------------------------------------------------------------
 ! R1    R(1,2)                  1.533          estimate D2E/DX2                !
 ! R2    R(1,3)                  1.5327         estimate D2E/DX2                !
 ! R3    R(1,9)                  1.1127         estimate D2E/DX2                !
 ! R4    R(1,10)                 1.1127         estimate D2E/DX2                !
 ! R5    R(2,4)                  1.5258         estimate D2E/DX2                !
 ! R6    R(2,7)                  1.1119         estimate D2E/DX2                !
 ! R7    R(2,8)                  1.1119         estimate D2E/DX2                !
 ! R8    R(3,5)                  1.5026         estimate D2E/DX2                !
 ! R9    R(3,11)                 1.1117         estimate D2E/DX2                !
 ! R10   R(3,12)                 1.1122         estimate D2E/DX2                !
 ! R11   R(4,13)                 1.1109         estimate D2E/DX2                !
 ! R12   R(4,14)                 1.1109         estimate D2E/DX2                !
 ! R13   R(4,15)                 1.1104         estimate D2E/DX2                !
 ! R14   R(5,6)                  1.4943         estimate D2E/DX2                !
 ! R15   R(5,16)                 1.2217         estimate D2E/DX2                !
 ! R16   R(6,17)                 1.1101         estimate D2E/DX2                !
 ! R17   R(6,18)                 1.1101         estimate D2E/DX2                !
 ! A1    A(2,1,3)              111.0146         estimate D2E/DX2                !
 ! A2    A(2,1,9)              109.348          estimate D2E/DX2                !
 ! A3    A(2,1,10)             109.235          estimate D2E/DX2                !
 ! A4    A(3,1,9)              109.2345         estimate D2E/DX2                !
 ! A5    A(3,1,10)             109.4212         estimate D2E/DX2                !
 ! A6    A(9,1,10)             108.5468         estimate D2E/DX2                !
 ! A7    A(1,2,4)              111.1839         estimate D2E/DX2                !
 ! A8    A(1,2,7)              109.7044         estimate D2E/DX2                !
 ! A9    A(1,2,8)              109.7214         estimate D2E/DX2                !
 ! A10   A(4,2,7)              108.865          estimate D2E/DX2                !
 ! A11   A(4,2,8)              108.8486         estimate D2E/DX2                !
 ! A12   A(7,2,8)              108.4646         estimate D2E/DX2                !
 ! A13   A(1,3,5)              110.8944         estimate D2E/DX2                !
 ! A14   A(1,3,11)             109.9426         estimate D2E/DX2                !
 ! A15   A(1,3,12)             109.3334         estimate D2E/DX2                !
 ! A16   A(5,3,11)             108.8693         estimate D2E/DX2                !
 ! A17   A(5,3,12)             109.6949         estimate D2E/DX2                !
 ! A18   A(11,3,12)            108.0558         estimate D2E/DX2                !
 ! A19   A(2,4,13)             110.3339         estimate D2E/DX2                !
 ! A20   A(2,4,14)             110.3301         estimate D2E/DX2                !
 ! A21   A(2,4,15)             109.5593         estimate D2E/DX2                !
 ! A22   A(13,4,14)            109.2947         estimate D2E/DX2                !
 ! A23   A(13,4,15)            108.6405         estimate D2E/DX2                !
 ! A24   A(14,4,15)            108.6421         estimate D2E/DX2                !
 ! A25   A(3,5,6)              120.2823         estimate D2E/DX2                !
 ! A26   A(3,5,16)             120.0796         estimate D2E/DX2                !
 ! A27   A(6,5,16)             119.6363         estimate D2E/DX2                !
 ! A28   A(5,6,17)             109.9631         estimate D2E/DX2                !
 ! A29   A(5,6,18)             110.005          estimate D2E/DX2                !
 ! A30   A(17,6,18)            109.8151         estimate D2E/DX2                !
 ! D1    D(3,1,2,4)           -179.9278         estimate D2E/DX2                !
 ! D2    D(3,1,2,7)            -59.4543         estimate D2E/DX2                !
 ! D3    D(3,1,2,8)             59.6082         estimate D2E/DX2                !
 ! D4    D(9,1,2,4)             59.4801         estimate D2E/DX2                !
 ! D5    D(9,1,2,7)            179.9536         estimate D2E/DX2                !
 ! D6    D(9,1,2,8)            -60.9839         estimate D2E/DX2                !
 ! D7    D(10,1,2,4)           -59.1771         estimate D2E/DX2                !
 ! D8    D(10,1,2,7)            61.2963         estimate D2E/DX2                !
 ! D9    D(10,1,2,8)          -179.6412         estimate D2E/DX2                !
 ! D10   D(2,1,3,5)           -179.2533         estimate D2E/DX2                !
 ! D11   D(2,1,3,11)            60.2976         estimate D2E/DX2                !
 ! D12   D(2,1,3,12)           -58.1737         estimate D2E/DX2                !
 ! D13   D(9,1,3,5)            -58.5941         estimate D2E/DX2                !
 ! D14   D(9,1,3,11)          -179.0432         estimate D2E/DX2                !
 ! D15   D(9,1,3,12)            62.4855         estimate D2E/DX2                !
 ! D16   D(10,1,3,5)            60.1061         estimate D2E/DX2                !
 ! D17   D(10,1,3,11)          -60.3429         estimate D2E/DX2                !
 ! D18   D(10,1,3,12)         -178.8143         estimate D2E/DX2                !
 ! D19   D(1,2,4,13)            60.4601         estimate D2E/DX2                !
 ! D20   D(1,2,4,14)           -60.4104         estimate D2E/DX2                !
 ! D21   D(1,2,4,15)          -179.975          estimate D2E/DX2                !
 ! D22   D(7,2,4,13)           -60.5076         estimate D2E/DX2                !
 ! D23   D(7,2,4,14)           178.6219         estimate D2E/DX2                !
 ! D24   D(7,2,4,15)            59.0573         estimate D2E/DX2                !
 ! D25   D(8,2,4,13)          -178.5619         estimate D2E/DX2                !
 ! D26   D(8,2,4,14)            60.5675         estimate D2E/DX2                !
 ! D27   D(8,2,4,15)           -58.997          estimate D2E/DX2                !
 ! D28   D(1,3,5,6)            115.8272         estimate D2E/DX2                !
 ! D29   D(1,3,5,16)           -64.6751         estimate D2E/DX2                !
 ! D30   D(11,3,5,6)          -123.0887         estimate D2E/DX2                !
 ! D31   D(11,3,5,16)           56.4091         estimate D2E/DX2                !
 ! D32   D(12,3,5,6)            -5.039          estimate D2E/DX2                !
 ! D33   D(12,3,5,16)          174.4587         estimate D2E/DX2                !
 ! D34   D(3,5,6,17)          -119.5083         estimate D2E/DX2                !
 ! D35   D(3,5,6,18)           119.4233         estimate D2E/DX2                !
 ! D36   D(16,5,6,17)           60.9917         estimate D2E/DX2                !
 ! D37   D(16,5,6,18)          -60.0766         estimate D2E/DX2                !
 --------------------------------------------------------------------------------
 Trust Radius=3.00D-01 FncErr=1.00D-07 GrdErr=1.00D-06
 Number of steps in this run=     94 maximum allowed number of steps=    108.
 GradGradGradGradGradGradGradGradGradGradGradGradGradGradGradGradGradGrad

                          Input orientation:                          
 ---------------------------------------------------------------------
 Center     Atomic      Atomic             Coordinates (Angstroms)
 Number     Number       Type             X           Y           Z
 ---------------------------------------------------------------------
      1          6           0       -0.324600   -0.269800   -0.058600
      2          6           0       -1.575200    0.429300    0.486600
      3          6           0        0.939800    0.241300    0.640900
      4          6           0       -2.836600   -0.078000   -0.206000
      5          6           0        2.165500   -0.432500    0.091900
      6          6           0        3.204500    0.364100   -0.628500
      7          1           0       -1.664100    0.240600    1.578800
      8          1           0       -1.492700    1.526200    0.324300
      9          1           0       -0.241900   -0.077900   -1.151500
     10          1           0       -0.418500   -1.366800    0.102000
     11          1           0        0.877100    0.039700    1.732400
     12          1           0        1.020800    1.341300    0.497600
     13          1           0       -2.957200   -1.169400   -0.037400
     14          1           0       -2.784200    0.121200   -1.297600
     15          1           0       -3.724100    0.445300    0.208100
     16          8           0        2.321800   -1.635000    0.240800
     17          1           0        3.312700   -0.007100   -1.669100
     18          1           0        4.176900    0.287400   -0.098600
 ---------------------------------------------------------------------
                    Distance matrix (angstroms):
                    1          2          3          4          5
     1  C    0.000000
     2  C    1.532966   0.000000
     3  C    1.532720   2.526733   0.000000
     4  C    2.523620   1.525837   3.883348   0.000000
     5  C    2.499944   3.858928   1.502580   5.023487   0.000000
     6  C    3.630587   4.908486   2.599100   6.071972   1.494346
     7  H    2.176200   1.111941   2.767662   2.159114   4.162904
     8  H    2.176393   1.111907   2.769162   2.158875   4.156073
     9  H    1.112697   2.172168   2.170484   2.761601   2.732647
    10  H    1.112663   2.170679   2.172873   2.757368   2.747740
    11  H    2.178888   2.778053   1.111731   4.190801   2.138735
    12  H    2.171429   2.751560   1.112248   4.170012   2.149720
    13  H    2.782142   2.177233   4.199616   1.110911   5.177045
    14  H    2.781660   2.177149   4.200046   1.110863   5.170766
    15  H    3.484121   2.166931   4.688379   1.110395   5.955789
    16  O    2.992799   4.416827   2.364425   5.406752   1.221723
    17  H    3.986562   5.359949   3.320912   6.321359   2.144331
    18  H    4.536031   5.783533   3.320813   7.023833   2.144825
                    6          7          8          9         10
     6  C    0.000000
     7  H    5.347026   0.000000
     8  H    4.931733   1.804416   0.000000
     9  H    3.513768   3.094937   2.513090   0.000000
    10  H    4.081149   2.513204   3.093990   1.806575   0.000000
    11  H    3.331047   2.553752   3.131833   3.095621   2.512972
    12  H    2.644157   3.096647   2.526243   2.515566   3.092230
    13  H    6.377113   2.504458   3.088988   3.131365   2.550176
    14  H    6.030856   3.089103   2.504507   2.554266   3.125630
    15  H    6.979398   2.482805   2.482135   3.774648   3.771201
    16  O    2.351859   4.603859   4.954853   3.306905   2.756890
    17  H    1.110110   5.948004   5.423700   3.592785   4.348268
    18  H    1.110062   6.077264   5.818748   4.557174   4.888182
                   11         12         13         14         15
    11  H    0.000000
    12  H    1.799873   0.000000
    13  H    4.392718   4.734377   0.000000
    14  H    4.753174   4.380572   1.812093   0.000000
    15  H    4.864056   4.837427   1.804345   1.804324   0.000000
    16  O    2.667705   3.258360   5.306790   5.614459   6.393874
    17  H    4.183843   3.430099   6.582175   6.109555   7.296924
    18  H    3.781877   3.380403   7.281579   7.065560   7.908527
                   16         17         18
    16  O    0.000000
    17  H    2.698084   0.000000
    18  H    2.692993   1.816602   0.000000
 Stoichiometry    C6H11O(2)
 Framework group  C1[X(C6H11O)]
 Deg. of freedom    48
 Full point group                 C1      NOp   1
 Largest Abelian subgroup         C1      NOp   1
 Largest concise Abelian subgroup C1      NOp   1
                         Standard orientation:                         
 ---------------------------------------------------------------------
 Center     Atomic      Atomic             Coordinates (Angstroms)
 Number     Number       Type             X           Y           Z
 ---------------------------------------------------------------------
      1          6           0       -0.744855    0.145164    0.176901
      2          6           0       -2.080195   -0.371141   -0.371077
      3          6           0        0.433027   -0.414622   -0.628372
      4          6           0       -3.255748    0.185276    0.426829
      5          6           0        1.741190    0.078677   -0.077814
      6          6           0        2.720904   -0.882964    0.512504
      7          1           0       -2.191628   -0.067090   -1.434819
      8          1           0       -2.103422   -1.481533   -0.317910
      9          1           0       -0.639883   -0.161521    1.241335
     10          1           0       -0.732884    1.256597    0.125985
     11          1           0        0.348977   -0.100418   -1.691461
     12          1           0        0.407259   -1.526050   -0.594318
     13          1           0       -3.271198    1.294559    0.368719
     14          1           0       -3.181689   -0.125557    1.490743
     15          1           0       -4.207199   -0.205335    0.008330
     16          8           0        2.013054    1.269049   -0.119184
     17          1           0        2.906448   -0.629315    1.577201
     18          1           0        3.674837   -0.849078   -0.054156
 ---------------------------------------------------------------------
 Rotational constants (GHZ):      6.9464777      1.0682621      1.0161104
 Standard basis: 6-311+G(2df,2p) (5D, 7F)
 There are   337 symmetry adapted basis functions of A   symmetry.
 Integral buffers will be    131072 words long.
 Raffenetti 2 integral format.
 Two-electron integral symmetry is turned on.
   337 basis functions,   485 primitive gaussians,   372 cartesian basis functions
    28 alpha electrons       27 beta electrons
       nuclear repulsion energy       289.7480699521 Hartrees.
 NAtoms=   18 NActive=   18 NUniq=   18 SFac= 1.00D+00 NAtFMM=   50 NAOKFM=F Big=F
 One-electron integrals computed using PRISM.
 NBasis=   337 RedAO= T  NBF=   337
 NBsUse=   337 1.00D-06 NBFU=   337
 Harris functional with IExCor= 1009 diagonalized for initial guess.
 ExpMin= 4.38D-02 ExpMax= 8.59D+03 ExpMxC= 1.30D+03 IAcc=2 IRadAn=         0 AccDes= 0.00D+00
 HarFok:  IExCor= 1009 AccDes= 0.00D+00 IRadAn=         0 IDoV= 1
 ScaDFX=  1.000000  1.000000  1.000000  1.000000
 FoFCou: FMM=F IPFlag=           0 FMFlag=      100000 FMFlg1=           0
         NFxFlg=           0 DoJE=T BraDBF=F KetDBF=T FulRan=T
         Omega=  0.000000  0.000000  1.000000  0.000000  0.000000 ICntrl=     500 IOpCl=  0
         NMat0=    1 NMatS0=    1 NMatT0=    0 NMatD0=    1 NMtDS0=    0 NMtDT0=    0
         I1Cent=           4 NGrid=           0.
 Petite list used in FoFCou.
 Initial guess orbital symmetries:
 Alpha Orbitals:
       Occupied  (A) (A) (A) (A) (A) (A) (A) (A) (A) (A) (A) (A)
                 (A) (A) (A) (A) (A) (A) (A) (A) (A) (A) (A) (A)
                 (A) (A) (A) (A)
       Virtual   (A) (A) (A) (A) (A) (A) (A) (A) (A) (A) (A) (A)
                 (A) (A) (A) (A) (A) (A) (A) (A) (A) (A) (A) (A)
                 (A) (A) (A) (A) (A) (A) (A) (A) (A) (A) (A) (A)
                 (A) (A) (A) (A) (A) (A) (A) (A) (A) (A) (A) (A)
                 (A) (A) (A) (A) (A) (A) (A) (A) (A) (A) (A) (A)
                 (A) (A) (A) (A) (A) (A) (A) (A) (A) (A) (A) (A)
                 (A) (A) (A) (A) (A) (A) (A) (A) (A) (A) (A) (A)
                 (A) (A) (A) (A) (A) (A) (A) (A) (A) (A) (A) (A)
                 (A) (A) (A) (A) (A) (A) (A) (A) (A) (A) (A) (A)
                 (A) (A) (A) (A) (A) (A) (A) (A) (A) (A) (A) (A)
                 (A) (A) (A) (A) (A) (A) (A) (A) (A) (A) (A) (A)
                 (A) (A) (A) (A) (A) (A) (A) (A) (A) (A) (A) (A)
                 (A) (A) (A) (A) (A) (A) (A) (A) (A) (A) (A) (A)
                 (A) (A) (A) (A) (A) (A) (A) (A) (A) (A) (A) (A)
                 (A) (A) (A) (A) (A) (A) (A) (A) (A) (A) (A) (A)
                 (A) (A) (A) (A) (A) (A) (A) (A) (A) (A) (A) (A)
                 (A) (A) (A) (A) (A) (A) (A) (A) (A) (A) (A) (A)
                 (A) (A) (A) (A) (A) (A) (A) (A) (A) (A) (A) (A)
                 (A) (A) (A) (A) (A) (A) (A) (A) (A) (A) (A) (A)
                 (A) (A) (A) (A) (A) (A) (A) (A) (A) (A) (A) (A)
                 (A) (A) (A) (A) (A) (A) (A) (A) (A) (A) (A) (A)
                 (A) (A) (A) (A) (A) (A) (A) (A) (A) (A) (A) (A)
                 (A) (A) (A) (A) (A) (A) (A) (A) (A) (A) (A) (A)
                 (A) (A) (A) (A) (A) (A) (A) (A) (A) (A) (A) (A)
                 (A) (A) (A) (A) (A) (A) (A) (A) (A) (A) (A) (A)
                 (A) (A) (A) (A) (A) (A) (A) (A) (A)
 Beta  Orbitals:
       Occupied  (A) (A) (A) (A) (A) (A) (A) (A) (A) (A) (A) (A)
                 (A) (A) (A) (A) (A) (A) (A) (A) (A) (A) (A) (A)
                 (A) (A) (A)
       Virtual   (A) (A) (A) (A) (A) (A) (A) (A) (A) (A) (A) (A)
                 (A) (A) (A) (A) (A) (A) (A) (A) (A) (A) (A) (A)
                 (A) (A) (A) (A) (A) (A) (A) (A) (A) (A) (A) (A)
                 (A) (A) (A) (A) (A) (A) (A) (A) (A) (A) (A) (A)
                 (A) (A) (A) (A) (A) (A) (A) (A) (A) (A) (A) (A)
                 (A) (A) (A) (A) (A) (A) (A) (A) (A) (A) (A) (A)
                 (A) (A) (A) (A) (A) (A) (A) (A) (A) (A) (A) (A)
                 (A) (A) (A) (A) (A) (A) (A) (A) (A) (A) (A) (A)
                 (A) (A) (A) (A) (A) (A) (A) (A) (A) (A) (A) (A)
                 (A) (A) (A) (A) (A) (A) (A) (A) (A) (A) (A) (A)
                 (A) (A) (A) (A) (A) (A) (A) (A) (A) (A) (A) (A)
                 (A) (A) (A) (A) (A) (A) (A) (A) (A) (A) (A) (A)
                 (A) (A) (A) (A) (A) (A) (A) (A) (A) (A) (A) (A)
                 (A) (A) (A) (A) (A) (A) (A) (A) (A) (A) (A) (A)
                 (A) (A) (A) (A) (A) (A) (A) (A) (A) (A) (A) (A)
                 (A) (A) (A) (A) (A) (A) (A) (A) (A) (A) (A) (A)
                 (A) (A) (A) (A) (A) (A) (A) (A) (A) (A) (A) (A)
                 (A) (A) (A) (A) (A) (A) (A) (A) (A) (A) (A) (A)
                 (A) (A) (A) (A) (A) (A) (A) (A) (A) (A) (A) (A)
                 (A) (A) (A) (A) (A) (A) (A) (A) (A) (A) (A) (A)
                 (A) (A) (A) (A) (A) (A) (A) (A) (A) (A) (A) (A)
                 (A) (A) (A) (A) (A) (A) (A) (A) (A) (A) (A) (A)
                 (A) (A) (A) (A) (A) (A) (A) (A) (A) (A) (A) (A)
                 (A) (A) (A) (A) (A) (A) (A) (A) (A) (A) (A) (A)
                 (A) (A) (A) (A) (A) (A) (A) (A) (A) (A) (A) (A)
                 (A) (A) (A) (A) (A) (A) (A) (A) (A) (A)
 The electronic state of the initial guess is 2-A.
 Initial guess <Sx>= 0.0000 <Sy>= 0.0000 <Sz>= 0.5000 <S**2>= 0.7500 S= 0.5000
 Requested convergence on RMS density matrix=1.00D-08 within 128 cycles.
 Requested convergence on MAX density matrix=1.00D-06.
 Requested convergence on             energy=1.00D-06.
 No special actions if energy rises.
 SCF Done:  E(UM062X) =  -310.358196294     A.U. after   16 cycles
             Convg  =    0.9120D-08             -V/T =  2.0050
 <Sx>= 0.0000 <Sy>= 0.0000 <Sz>= 0.5000 <S**2>= 0.7547 S= 0.5023
 <L.S>= 0.000000000000E+00
 Annihilation of the first spin contaminant:
 S**2 before annihilation     0.7547,   after     0.7500

 **********************************************************************

            Population analysis using the SCF density.

 **********************************************************************

 Orbital symmetries:
 Alpha Orbitals:
       Occupied  (A) (A) (A) (A) (A) (A) (A) (A) (A) (A) (A) (A)
                 (A) (A) (A) (A) (A) (A) (A) (A) (A) (A) (A) (A)
                 (A) (A) (A) (A)
       Virtual   (A) (A) (A) (A) (A) (A) (A) (A) (A) (A) (A) (A)
                 (A) (A) (A) (A) (A) (A) (A) (A) (A) (A) (A) (A)
                 (A) (A) (A) (A) (A) (A) (A) (A) (A) (A) (A) (A)
                 (A) (A) (A) (A) (A) (A) (A) (A) (A) (A) (A) (A)
                 (A) (A) (A) (A) (A) (A) (A) (A) (A) (A) (A) (A)
                 (A) (A) (A) (A) (A) (A) (A) (A) (A) (A) (A) (A)
                 (A) (A) (A) (A) (A) (A) (A) (A) (A) (A) (A) (A)
                 (A) (A) (A) (A) (A) (A) (A) (A) (A) (A) (A) (A)
                 (A) (A) (A) (A) (A) (A) (A) (A) (A) (A) (A) (A)
                 (A) (A) (A) (A) (A) (A) (A) (A) (A) (A) (A) (A)
                 (A) (A) (A) (A) (A) (A) (A) (A) (A) (A) (A) (A)
                 (A) (A) (A) (A) (A) (A) (A) (A) (A) (A) (A) (A)
                 (A) (A) (A) (A) (A) (A) (A) (A) (A) (A) (A) (A)
                 (A) (A) (A) (A) (A) (A) (A) (A) (A) (A) (A) (A)
                 (A) (A) (A) (A) (A) (A) (A) (A) (A) (A) (A) (A)
                 (A) (A) (A) (A) (A) (A) (A) (A) (A) (A) (A) (A)
                 (A) (A) (A) (A) (A) (A) (A) (A) (A) (A) (A) (A)
                 (A) (A) (A) (A) (A) (A) (A) (A) (A) (A) (A) (A)
                 (A) (A) (A) (A) (A) (A) (A) (A) (A) (A) (A) (A)
                 (A) (A) (A) (A) (A) (A) (A) (A) (A) (A) (A) (A)
                 (A) (A) (A) (A) (A) (A) (A) (A) (A) (A) (A) (A)
                 (A) (A) (A) (A) (A) (A) (A) (A) (A) (A) (A) (A)
                 (A) (A) (A) (A) (A) (A) (A) (A) (A) (A) (A) (A)
                 (A) (A) (A) (A) (A) (A) (A) (A) (A) (A) (A) (A)
                 (A) (A) (A) (A) (A) (A) (A) (A) (A) (A) (A) (A)
                 (A) (A) (A) (A) (A) (A) (A) (A) (A)
 Beta  Orbitals:
       Occupied  (A) (A) (A) (A) (A) (A) (A) (A) (A) (A) (A) (A)
                 (A) (A) (A) (A) (A) (A) (A) (A) (A) (A) (A) (A)
                 (A) (A) (A)
       Virtual   (A) (A) (A) (A) (A) (A) (A) (A) (A) (A) (A) (A)
                 (A) (A) (A) (A) (A) (A) (A) (A) (A) (A) (A) (A)
                 (A) (A) (A) (A) (A) (A) (A) (A) (A) (A) (A) (A)
                 (A) (A) (A) (A) (A) (A) (A) (A) (A) (A) (A) (A)
                 (A) (A) (A) (A) (A) (A) (A) (A) (A) (A) (A) (A)
                 (A) (A) (A) (A) (A) (A) (A) (A) (A) (A) (A) (A)
                 (A) (A) (A) (A) (A) (A) (A) (A) (A) (A) (A) (A)
                 (A) (A) (A) (A) (A) (A) (A) (A) (A) (A) (A) (A)
                 (A) (A) (A) (A) (A) (A) (A) (A) (A) (A) (A) (A)
                 (A) (A) (A) (A) (A) (A) (A) (A) (A) (A) (A) (A)
                 (A) (A) (A) (A) (A) (A) (A) (A) (A) (A) (A) (A)
                 (A) (A) (A) (A) (A) (A) (A) (A) (A) (A) (A) (A)
                 (A) (A) (A) (A) (A) (A) (A) (A) (A) (A) (A) (A)
                 (A) (A) (A) (A) (A) (A) (A) (A) (A) (A) (A) (A)
                 (A) (A) (A) (A) (A) (A) (A) (A) (A) (A) (A) (A)
                 (A) (A) (A) (A) (A) (A) (A) (A) (A) (A) (A) (A)
                 (A) (A) (A) (A) (A) (A) (A) (A) (A) (A) (A) (A)
                 (A) (A) (A) (A) (A) (A) (A) (A) (A) (A) (A) (A)
                 (A) (A) (A) (A) (A) (A) (A) (A) (A) (A) (A) (A)
                 (A) (A) (A) (A) (A) (A) (A) (A) (A) (A) (A) (A)
                 (A) (A) (A) (A) (A) (A) (A) (A) (A) (A) (A) (A)
                 (A) (A) (A) (A) (A) (A) (A) (A) (A) (A) (A) (A)
                 (A) (A) (A) (A) (A) (A) (A) (A) (A) (A) (A) (A)
                 (A) (A) (A) (A) (A) (A) (A) (A) (A) (A) (A) (A)
                 (A) (A) (A) (A) (A) (A) (A) (A) (A) (A) (A) (A)
                 (A) (A) (A) (A) (A) (A) (A) (A) (A) (A)
 The electronic state is 2-A.
 Alpha  occ. eigenvalues --  -19.62229 -10.63616 -10.57335 -10.54858 -10.54665
 Alpha  occ. eigenvalues --  -10.54080 -10.53168  -1.17116  -0.91267  -0.85935
 Alpha  occ. eigenvalues --   -0.81980  -0.73714  -0.66649  -0.61280  -0.56277
 Alpha  occ. eigenvalues --   -0.53814  -0.52853  -0.52579  -0.49517  -0.47803
 Alpha  occ. eigenvalues --   -0.45218  -0.43416  -0.41739  -0.40101  -0.39903
 Alpha  occ. eigenvalues --   -0.39159  -0.34661  -0.31355
 Alpha virt. eigenvalues --    0.00352   0.01676   0.02422   0.03059   0.03813
 Alpha virt. eigenvalues --    0.04427   0.05225   0.06310   0.06743   0.06873
 Alpha virt. eigenvalues --    0.07301   0.08096   0.08886   0.09839   0.09966
 Alpha virt. eigenvalues --    0.11537   0.12512   0.12761   0.13746   0.14572
 Alpha virt. eigenvalues --    0.17347   0.17588   0.18216   0.18309   0.19726
 Alpha virt. eigenvalues --    0.20345   0.21058   0.21928   0.22183   0.23278
 Alpha virt. eigenvalues --    0.24263   0.24627   0.25631   0.26437   0.27936
 Alpha virt. eigenvalues --    0.28136   0.28856   0.29179   0.30092   0.30679
 Alpha virt. eigenvalues --    0.31591   0.33048   0.34493   0.35966   0.38175
 Alpha virt. eigenvalues --    0.41053   0.42408   0.42676   0.44668   0.46151
 Alpha virt. eigenvalues --    0.48756   0.49379   0.49827   0.50438   0.52706
 Alpha virt. eigenvalues --    0.53088   0.53352   0.54145   0.56355   0.56535
 Alpha virt. eigenvalues --    0.57516   0.58249   0.59230   0.59975   0.61202
 Alpha virt. eigenvalues --    0.62605   0.63062   0.63754   0.64902   0.66043
 Alpha virt. eigenvalues --    0.66346   0.67728   0.68028   0.68859   0.69842
 Alpha virt. eigenvalues --    0.72288   0.73022   0.75322   0.76719   0.79287
 Alpha virt. eigenvalues --    0.80349   0.80583   0.82587   0.85376   0.86832
 Alpha virt. eigenvalues --    0.87344   0.89488   0.90384   0.92176   0.95493
 Alpha virt. eigenvalues --    0.95875   0.97978   0.99336   1.03830   1.03935
 Alpha virt. eigenvalues --    1.06836   1.09330   1.10398   1.11292   1.12655
 Alpha virt. eigenvalues --    1.13285   1.14473   1.15649   1.17177   1.17733
 Alpha virt. eigenvalues --    1.18899   1.19709   1.21702   1.21818   1.22574
 Alpha virt. eigenvalues --    1.24662   1.25861   1.26679   1.27512   1.28585
 Alpha virt. eigenvalues --    1.29891   1.30649   1.32853   1.33287   1.35000
 Alpha virt. eigenvalues --    1.37494   1.39093   1.40557   1.42548   1.43571
 Alpha virt. eigenvalues --    1.43633   1.44951   1.46402   1.46863   1.48249
 Alpha virt. eigenvalues --    1.49511   1.50533   1.53953   1.55064   1.55801
 Alpha virt. eigenvalues --    1.56495   1.56839   1.58813   1.60781   1.62467
 Alpha virt. eigenvalues --    1.63434   1.66343   1.68186   1.68872   1.71766
 Alpha virt. eigenvalues --    1.75370   1.77178   1.81489   1.83173   1.96506
 Alpha virt. eigenvalues --    2.14210   2.32316   2.41080   2.44323   2.47608
 Alpha virt. eigenvalues --    2.49112   2.50246   2.55113   2.58059   2.61686
 Alpha virt. eigenvalues --    2.63568   2.65221   2.66138   2.72169   2.74884
 Alpha virt. eigenvalues --    2.75975   2.77672   2.79482   2.80148   2.82399
 Alpha virt. eigenvalues --    2.83949   2.84810   2.85681   2.87207   2.88920
 Alpha virt. eigenvalues --    2.90592   2.92458   2.94012   2.95030   2.97164
 Alpha virt. eigenvalues --    2.98082   3.02871   3.04925   3.06550   3.07878
 Alpha virt. eigenvalues --    3.09393   3.09803   3.13558   3.14740   3.16358
 Alpha virt. eigenvalues --    3.17921   3.19599   3.21593   3.23604   3.25251
 Alpha virt. eigenvalues --    3.27801   3.29432   3.30884   3.32692   3.33990
 Alpha virt. eigenvalues --    3.35282   3.35723   3.36143   3.37060   3.38033
 Alpha virt. eigenvalues --    3.39822   3.42786   3.44685   3.49836   3.52869
 Alpha virt. eigenvalues --    3.54430   3.56631   3.58182   3.59131   3.60043
 Alpha virt. eigenvalues --    3.63179   3.64175   3.64863   3.67212   3.69088
 Alpha virt. eigenvalues --    3.69836   3.71990   3.75816   3.79009   3.80159
 Alpha virt. eigenvalues --    3.82394   3.83734   3.85678   3.86250   3.88412
 Alpha virt. eigenvalues --    3.90789   3.91704   3.95255   3.96150   3.96662
 Alpha virt. eigenvalues --    3.97620   3.99539   4.00441   4.03074   4.06543
 Alpha virt. eigenvalues --    4.06941   4.10153   4.12212   4.14409   4.15351
 Alpha virt. eigenvalues --    4.17869   4.18121   4.19269   4.22035   4.22774
 Alpha virt. eigenvalues --    4.27586   4.28526   4.30377   4.31155   4.34482
 Alpha virt. eigenvalues --    4.37301   4.40124   4.41602   4.42852   4.43851
 Alpha virt. eigenvalues --    4.47561   4.49411   4.49727   4.51738   4.54321
 Alpha virt. eigenvalues --    4.56573   4.57825   4.59577   4.60496   4.64516
 Alpha virt. eigenvalues --    4.69738   4.75447   4.80684   4.83454   4.96536
 Alpha virt. eigenvalues --    5.07731   5.11666   5.13315   5.17339   5.21262
 Alpha virt. eigenvalues --    5.35512   5.38865   5.41591   5.43025   5.46431
 Alpha virt. eigenvalues --    5.50346   5.51484   5.52541   5.53010   5.56416
 Alpha virt. eigenvalues --    5.57554   5.59713   5.60718   5.71494   6.23970
 Alpha virt. eigenvalues --    6.58935   6.87696   6.91061   7.06646   7.26361
 Alpha virt. eigenvalues --    7.46471   7.65158  24.15348  24.20571  24.30184
 Alpha virt. eigenvalues --   24.37305  24.42105  24.70114  50.28540
  Beta  occ. eigenvalues --  -19.62074 -10.63642 -10.56467 -10.54852 -10.54664
  Beta  occ. eigenvalues --  -10.54081 -10.53168  -1.16611  -0.91171  -0.85096
  Beta  occ. eigenvalues --   -0.79750  -0.73279  -0.66614  -0.60555  -0.56115
  Beta  occ. eigenvalues --   -0.52981  -0.52302  -0.51661  -0.49082  -0.47515
  Beta  occ. eigenvalues --   -0.45007  -0.43070  -0.41469  -0.40068  -0.39650
  Beta  occ. eigenvalues --   -0.39032  -0.32521
  Beta virt. eigenvalues --   -0.06415   0.00450   0.01679   0.02365   0.02937
  Beta virt. eigenvalues --    0.03855   0.04441   0.05081   0.06343   0.06769
  Beta virt. eigenvalues --    0.07042   0.07378   0.08137   0.09358   0.09689
  Beta virt. eigenvalues --    0.09899   0.11516   0.12431   0.12836   0.13734
  Beta virt. eigenvalues --    0.14376   0.17124   0.17410   0.17701   0.18337
  Beta virt. eigenvalues --    0.19829   0.20355   0.21060   0.21983   0.22315
  Beta virt. eigenvalues --    0.23465   0.24443   0.24519   0.25717   0.26661
  Beta virt. eigenvalues --    0.27730   0.28108   0.28822   0.29220   0.30254
  Beta virt. eigenvalues --    0.30616   0.31657   0.33039   0.34806   0.36001
  Beta virt. eigenvalues --    0.38210   0.41096   0.42515   0.42655   0.44968
  Beta virt. eigenvalues --    0.45898   0.48487   0.49362   0.49733   0.50655
  Beta virt. eigenvalues --    0.52743   0.53179   0.53476   0.54273   0.56363
  Beta virt. eigenvalues --    0.56623   0.57687   0.58882   0.59784   0.60052
  Beta virt. eigenvalues --    0.61417   0.62293   0.63348   0.64129   0.64923
  Beta virt. eigenvalues --    0.65999   0.67132   0.67762   0.67895   0.68805
  Beta virt. eigenvalues --    0.69834   0.71589   0.73118   0.75279   0.76617
  Beta virt. eigenvalues --    0.79553   0.80381   0.80586   0.82620   0.85301
  Beta virt. eigenvalues --    0.86731   0.87454   0.89497   0.90245   0.91896
  Beta virt. eigenvalues --    0.94625   0.95629   0.97870   0.99225   1.03696
  Beta virt. eigenvalues --    1.03957   1.06736   1.09421   1.10413   1.11289
  Beta virt. eigenvalues --    1.12690   1.13360   1.14470   1.15695   1.17292
  Beta virt. eigenvalues --    1.17762   1.18935   1.19760   1.21762   1.21884
  Beta virt. eigenvalues --    1.22645   1.24684   1.25923   1.26836   1.27766
  Beta virt. eigenvalues --    1.28731   1.29912   1.30870   1.32947   1.33440
  Beta virt. eigenvalues --    1.35229   1.37639   1.39380   1.40634   1.42617
  Beta virt. eigenvalues --    1.43516   1.43635   1.44973   1.46566   1.46929
  Beta virt. eigenvalues --    1.48310   1.49522   1.50513   1.54073   1.54909
  Beta virt. eigenvalues --    1.56418   1.56493   1.57194   1.58835   1.60783
  Beta virt. eigenvalues --    1.62493   1.63474   1.66390   1.68218   1.68850
  Beta virt. eigenvalues --    1.71877   1.75524   1.77340   1.81795   1.83575
  Beta virt. eigenvalues --    1.96799   2.14432   2.33057   2.41316   2.44928
  Beta virt. eigenvalues --    2.47882   2.49289   2.50375   2.55933   2.58206
  Beta virt. eigenvalues --    2.61894   2.63899   2.65465   2.66281   2.72358
  Beta virt. eigenvalues --    2.75834   2.77133   2.78666   2.79597   2.80586
  Beta virt. eigenvalues --    2.83433   2.85745   2.85849   2.86274   2.87553
  Beta virt. eigenvalues --    2.89945   2.91575   2.92958   2.95270   2.97820
  Beta virt. eigenvalues --    2.97969   2.99445   3.03588   3.05512   3.07448
  Beta virt. eigenvalues --    3.08551   3.10302   3.11141   3.13802   3.16080
  Beta virt. eigenvalues --    3.17348   3.19450   3.20536   3.23377   3.25455
  Beta virt. eigenvalues --    3.26107   3.28497   3.30710   3.32159   3.33582
  Beta virt. eigenvalues --    3.34621   3.35366   3.36713   3.37054   3.37614
  Beta virt. eigenvalues --    3.39575   3.40643   3.44619   3.45975   3.51504
  Beta virt. eigenvalues --    3.54059   3.55517   3.57956   3.59239   3.59653
  Beta virt. eigenvalues --    3.60340   3.63346   3.64499   3.66247   3.67607
  Beta virt. eigenvalues --    3.69848   3.70440   3.74643   3.76226   3.79760
  Beta virt. eigenvalues --    3.80523   3.83363   3.84219   3.85783   3.87364
  Beta virt. eigenvalues --    3.89412   3.90988   3.92203   3.96009   3.96750
  Beta virt. eigenvalues --    3.97526   3.98711   4.00248   4.00676   4.03620
  Beta virt. eigenvalues --    4.07896   4.08485   4.11642   4.12443   4.15001
  Beta virt. eigenvalues --    4.15484   4.18145   4.18462   4.19426   4.22404
  Beta virt. eigenvalues --    4.24453   4.28182   4.28771   4.30903   4.32036
  Beta virt. eigenvalues --    4.34946   4.37741   4.40892   4.42377   4.43281
  Beta virt. eigenvalues --    4.44814   4.47671   4.49543   4.50136   4.52072
  Beta virt. eigenvalues --    4.54695   4.56828   4.57906   4.59767   4.60753
  Beta virt. eigenvalues --    4.65679   4.70388   4.76483   4.81243   4.83970
  Beta virt. eigenvalues --    4.97361   5.09436   5.11984   5.13537   5.18138
  Beta virt. eigenvalues --    5.21468   5.35728   5.39055   5.43868   5.45946
  Beta virt. eigenvalues --    5.47451   5.50354   5.52206   5.53095   5.53681
  Beta virt. eigenvalues --    5.56432   5.57989   5.59756   5.61400   5.71958
  Beta virt. eigenvalues --    6.23905   6.59501   6.88003   6.91372   7.06769
  Beta virt. eigenvalues --    7.26439   7.46843   7.65354  24.15781  24.21629
  Beta virt. eigenvalues --   24.30222  24.37320  24.42120  24.70216  50.28419
          Condensed to atoms (all electrons):
              1          2          3          4          5          6
     1  C    6.285019  -0.445291  -0.640280   0.207012   0.060898   0.116484
     2  C   -0.445291   5.704378   0.425447  -0.024300  -0.100796   0.000715
     3  C   -0.640280   0.425447   6.091318  -0.158228  -0.116355  -0.150353
     4  C    0.207012  -0.024300  -0.158228   5.473204  -0.077066   0.004494
     5  C    0.060898  -0.100796  -0.116355  -0.077066   5.582324   0.116932
     6  C    0.116484   0.000715  -0.150353   0.004494   0.116932   5.568866
     7  H   -0.046406   0.445447  -0.003512  -0.050694   0.005754   0.000725
     8  H   -0.023086   0.431814  -0.014680  -0.047444   0.005635  -0.000791
     9  H    0.450478  -0.059763  -0.047244  -0.004416   0.007536  -0.001128
    10  H    0.463448  -0.051793  -0.050089  -0.006571   0.000130   0.002288
    11  H    0.007376  -0.021167   0.418599   0.003918  -0.032339  -0.011321
    12  H   -0.041581   0.001607   0.475446   0.006561  -0.107511   0.017129
    13  H   -0.034225   0.004924   0.003860   0.395705   0.000417  -0.000091
    14  H   -0.036918   0.009840   0.002073   0.393248  -0.000023   0.000491
    15  H    0.046283  -0.068933   0.000743   0.401025   0.001169  -0.000078
    16  O   -0.041595   0.002155  -0.108721   0.004574   0.444302  -0.073119
    17  H   -0.004742  -0.000584  -0.013970  -0.000114  -0.008631   0.399049
    18  H   -0.003065  -0.000735  -0.016079  -0.000053   0.008585   0.391962
              7          8          9         10         11         12
     1  C   -0.046406  -0.023086   0.450478   0.463448   0.007376  -0.041581
     2  C    0.445447   0.431814  -0.059763  -0.051793  -0.021167   0.001607
     3  C   -0.003512  -0.014680  -0.047244  -0.050089   0.418599   0.475446
     4  C   -0.050694  -0.047444  -0.004416  -0.006571   0.003918   0.006561
     5  C    0.005754   0.005635   0.007536   0.000130  -0.032339  -0.107511
     6  C    0.000725  -0.000791  -0.001128   0.002288  -0.011321   0.017129
     7  H    0.531994  -0.033049   0.005377  -0.005779   0.001713  -0.000551
     8  H   -0.033049   0.537033  -0.006526   0.004779  -0.000300   0.001041
     9  H    0.005377  -0.006526   0.517002  -0.026063   0.004043  -0.004810
    10  H   -0.005779   0.004779  -0.026063   0.478924  -0.005144   0.004549
    11  H    0.001713  -0.000300   0.004043  -0.005144   0.492349  -0.028347
    12  H   -0.000551   0.001041  -0.004810   0.004549  -0.028347   0.514148
    13  H   -0.007850   0.006127  -0.000538   0.002385  -0.000007  -0.000038
    14  H    0.006049  -0.008115   0.002650  -0.000441  -0.000014   0.000013
    15  H   -0.004326  -0.004508  -0.000088  -0.000048  -0.000006  -0.000013
    16  O   -0.000031  -0.000148  -0.000012   0.002710  -0.009489   0.005802
    17  H   -0.000001   0.000002  -0.000235   0.000055  -0.000172   0.000800
    18  H    0.000000   0.000000  -0.000044  -0.000001  -0.000426  -0.000099
             13         14         15         16         17         18
     1  C   -0.034225  -0.036918   0.046283  -0.041595  -0.004742  -0.003065
     2  C    0.004924   0.009840  -0.068933   0.002155  -0.000584  -0.000735
     3  C    0.003860   0.002073   0.000743  -0.108721  -0.013970  -0.016079
     4  C    0.395705   0.393248   0.401025   0.004574  -0.000114  -0.000053
     5  C    0.000417  -0.000023   0.001169   0.444302  -0.008631   0.008585
     6  C   -0.000091   0.000491  -0.000078  -0.073119   0.399049   0.391962
     7  H   -0.007850   0.006049  -0.004326  -0.000031  -0.000001   0.000000
     8  H    0.006127  -0.008115  -0.004508  -0.000148   0.000002   0.000000
     9  H   -0.000538   0.002650  -0.000088  -0.000012  -0.000235  -0.000044
    10  H    0.002385  -0.000441  -0.000048   0.002710   0.000055  -0.000001
    11  H   -0.000007  -0.000014  -0.000006  -0.009489  -0.000172  -0.000426
    12  H   -0.000038   0.000013  -0.000013   0.005802   0.000800  -0.000099
    13  H    0.550584  -0.033401  -0.023758  -0.000049   0.000000   0.000000
    14  H   -0.033401   0.554854  -0.023871   0.000005   0.000000   0.000000
    15  H   -0.023758  -0.023871   0.539295   0.000002   0.000000   0.000000
    16  O   -0.000049   0.000005   0.000002   8.158424  -0.008385  -0.010262
    17  H    0.000000   0.000000   0.000000  -0.008385   0.497170  -0.024738
    18  H    0.000000   0.000000   0.000000  -0.010262  -0.024738   0.489488
 Mulliken atomic charges:
              1
     1  C   -0.319808
     2  C   -0.252962
     3  C   -0.097973
     4  C   -0.520856
     5  C    0.209039
     6  C   -0.382255
     7  H    0.155139
     8  H    0.152216
     9  H    0.163782
    10  H    0.186659
    11  H    0.180733
    12  H    0.155854
    13  H    0.135956
    14  H    0.133564
    15  H    0.137113
    16  O   -0.366164
    17  H    0.164497
    18  H    0.165466
 Sum of Mulliken atomic charges =   0.00000
 Mulliken charges with hydrogens summed into heavy atoms:
              1
     1  C    0.030633
     2  C    0.054392
     3  C    0.238614
     4  C   -0.114224
     5  C    0.209039
     6  C   -0.052292
    16  O   -0.366164
 Sum of Mulliken charges with hydrogens summed into heavy atoms =   0.00000
          Atomic-Atomic Spin Densities.
              1          2          3          4          5          6
     1  C    0.000795   0.001209   0.017332   0.021065  -0.115894   0.060048
     2  C    0.001209   0.015117  -0.004879  -0.018223   0.014330  -0.003297
     3  C    0.017332  -0.004879   0.003313  -0.013431   0.071369  -0.049357
     4  C    0.021065  -0.018223  -0.013431   0.015582  -0.008425   0.002293
     5  C   -0.115894   0.014330   0.071369  -0.008425   0.080684  -0.089224
     6  C    0.060048  -0.003297  -0.049357   0.002293  -0.089224   1.190023
     7  H    0.001097  -0.000052  -0.001340   0.000391  -0.000111  -0.000003
     8  H   -0.000413  -0.000912   0.001219   0.000106   0.000203  -0.000113
     9  H    0.001867   0.002056  -0.003068  -0.000044  -0.002819   0.001772
    10  H    0.016318  -0.008907  -0.010708   0.001929   0.004821  -0.001811
    11  H   -0.013100   0.005581   0.013477  -0.000421  -0.013898   0.006006
    12  H    0.048607  -0.015009  -0.040385   0.002399   0.017923  -0.015221
    13  H   -0.000600   0.000693   0.000335  -0.000438  -0.000034   0.000010
    14  H    0.000047   0.000097  -0.000064  -0.000113   0.000059  -0.000019
    15  H    0.000210  -0.000328  -0.000039   0.000135   0.000023  -0.000007
    16  O    0.025322  -0.003385  -0.012364   0.001046  -0.026915  -0.027046
    17  H   -0.000457  -0.000289  -0.006374   0.000010   0.011700  -0.010868
    18  H   -0.000581  -0.000058  -0.004737  -0.000022   0.011222  -0.010504
              7          8          9         10         11         12
     1  C    0.001097  -0.000413   0.001867   0.016318  -0.013100   0.048607
     2  C   -0.000052  -0.000912   0.002056  -0.008907   0.005581  -0.015009
     3  C   -0.001340   0.001219  -0.003068  -0.010708   0.013477  -0.040385
     4  C    0.000391   0.000106  -0.000044   0.001929  -0.000421   0.002399
     5  C   -0.000111   0.000203  -0.002819   0.004821  -0.013898   0.017923
     6  C   -0.000003  -0.000113   0.001772  -0.001811   0.006006  -0.015221
     7  H   -0.000011  -0.000022  -0.000016   0.000045  -0.000013   0.000083
     8  H   -0.000022   0.000251  -0.000079   0.000058  -0.000101   0.000319
     9  H   -0.000016  -0.000079   0.000447  -0.000381   0.000229  -0.000236
    10  H    0.000045   0.000058  -0.000381  -0.001814  -0.000053  -0.000319
    11  H   -0.000013  -0.000101   0.000229  -0.000053   0.004790  -0.000223
    12  H    0.000083   0.000319  -0.000236  -0.000319  -0.000223  -0.006545
    13  H   -0.000013  -0.000002   0.000012  -0.000010   0.000004  -0.000001
    14  H   -0.000005   0.000003  -0.000031  -0.000005   0.000000  -0.000004
    15  H    0.000013   0.000001  -0.000005  -0.000001  -0.000001   0.000000
    16  O    0.000024   0.000000   0.000072  -0.000154   0.000136   0.000861
    17  H    0.000000   0.000001  -0.000033   0.000031  -0.000052   0.000245
    18  H    0.000000   0.000000  -0.000017   0.000010  -0.000136   0.000256
             13         14         15         16         17         18
     1  C   -0.000600   0.000047   0.000210   0.025322  -0.000457  -0.000581
     2  C    0.000693   0.000097  -0.000328  -0.003385  -0.000289  -0.000058
     3  C    0.000335  -0.000064  -0.000039  -0.012364  -0.006374  -0.004737
     4  C   -0.000438  -0.000113   0.000135   0.001046   0.000010  -0.000022
     5  C   -0.000034   0.000059   0.000023  -0.026915   0.011700   0.011222
     6  C    0.000010  -0.000019  -0.000007  -0.027046  -0.010868  -0.010504
     7  H   -0.000013  -0.000005   0.000013   0.000024   0.000000   0.000000
     8  H   -0.000002   0.000003   0.000001   0.000000   0.000001   0.000000
     9  H    0.000012  -0.000031  -0.000005   0.000072  -0.000033  -0.000017
    10  H   -0.000010  -0.000005  -0.000001  -0.000154   0.000031   0.000010
    11  H    0.000004   0.000000  -0.000001   0.000136  -0.000052  -0.000136
    12  H   -0.000001  -0.000004   0.000000   0.000861   0.000245   0.000256
    13  H    0.000055  -0.000001  -0.000009  -0.000004   0.000000   0.000000
    14  H   -0.000001  -0.000008   0.000011  -0.000001   0.000000   0.000000
    15  H   -0.000009   0.000011   0.000020   0.000000   0.000000   0.000000
    16  O   -0.000004  -0.000001   0.000000   0.089069  -0.003533  -0.003239
    17  H    0.000000   0.000000   0.000000  -0.003533  -0.019531   0.002408
    18  H    0.000000   0.000000   0.000000  -0.003239   0.002408  -0.020516
 Mulliken atomic spin densities:
              1
     1  C    0.062872
     2  C   -0.016255
     3  C   -0.039700
     4  C    0.003839
     5  C   -0.044985
     6  C    1.052679
     7  H    0.000066
     8  H    0.000518
     9  H   -0.000274
    10  H   -0.000950
    11  H    0.002224
    12  H   -0.007251
    13  H   -0.000002
    14  H   -0.000033
    15  H    0.000022
    16  O    0.039889
    17  H   -0.026743
    18  H   -0.025915
 Sum of Mulliken atomic spin densities =   1.00000
 Electronic spatial extent (au):  <R**2>=           1198.2534
 Charge=              0.0000 electrons
 Dipole moment (field-independent basis, Debye):
    X=             -0.9348    Y=             -2.1209    Z=              0.0479  Tot=              2.3183
 Quadrupole moment (field-independent basis, Debye-Ang):
   XX=            -45.1120   YY=            -49.6939   ZZ=            -43.5065
   XY=             -4.7311   XZ=              0.9808   YZ=              0.0737
 Traceless Quadrupole moment (field-independent basis, Debye-Ang):
   XX=              0.9921   YY=             -3.5898   ZZ=              2.5977
   XY=             -4.7311   XZ=              0.9808   YZ=              0.0737
 Octapole moment (field-independent basis, Debye-Ang**2):
  XXX=             13.7214  YYY=              3.4055  ZZZ=             -0.0829  XYY=             -9.7168
  XXY=            -10.4485  XXZ=             -0.8150  XZZ=              5.0478  YZZ=              1.7286
  YYZ=             -0.6819  XYZ=              1.6714
 Hexadecapole moment (field-independent basis, Debye-Ang**3):
 XXXX=          -1303.6929 YYYY=           -192.7349 ZZZZ=           -125.8474 XXXY=            -12.4597
 XXXZ=              9.4224 YYYX=              7.2611 YYYZ=              2.7355 ZZZX=              3.4974
 ZZZY=             -3.4235 XXYY=           -278.1063 XXZZ=           -239.1146 YYZZ=            -56.7668
 XXYZ=              0.5966 YYXZ=             -1.9085 ZZXY=              3.9727
 N-N= 2.897480699521D+02 E-N=-1.945222599665D+03  KE= 4.624559337639D+02
                          Isotropic Fermi Contact Couplings
        Atom                 a.u.       MegaHertz       Gauss      10(-4) cm-1
     1  C(13)              0.00063       0.71365       0.25465       0.23805
     2  C(13)             -0.00009      -0.10262      -0.03662      -0.03423
     3  C(13)              0.00179       2.01387       0.71860       0.67176
     4  C(13)             -0.00003      -0.03221      -0.01149      -0.01074
     5  C(13)             -0.00840      -9.44793      -3.37126      -3.15149
     6  C(13)              0.36180     406.73775     145.13414     135.67311
     7  H(1)               0.00001       0.04549       0.01623       0.01517
     8  H(1)               0.00000      -0.00820      -0.00293      -0.00273
     9  H(1)               0.00002       0.09704       0.03463       0.03237
    10  H(1)               0.00005       0.24017       0.08570       0.08011
    11  H(1)               0.00068       3.04209       1.08549       1.01473
    12  H(1)               0.00169       7.54628       2.69270       2.51717
    13  H(1)               0.00001       0.02934       0.01047       0.00979
    14  H(1)               0.00000      -0.00052      -0.00019      -0.00017
    15  H(1)               0.00001       0.03411       0.01217       0.01138
    16  O(17)              0.03547     -21.49897      -7.67137      -7.17128
    17  H(1)              -0.00710     -31.75647     -11.33150     -10.59282
    18  H(1)              -0.00722     -32.27785     -11.51754     -10.76673
 --------------------------------------------------------
       Center         ----  Spin Dipole Couplings  ----
                      3XX-RR        3YY-RR        3ZZ-RR
 --------------------------------------------------------
     1   Atom        0.005050     -0.002232     -0.002818
     2   Atom        0.002447     -0.001137     -0.001310
     3   Atom        0.004151      0.003555     -0.007706
     4   Atom        0.001273     -0.000577     -0.000697
     5   Atom        0.001651      0.017891     -0.019543
     6   Atom       -0.322968      0.831934     -0.508966
     7   Atom        0.001515     -0.000873     -0.000642
     8   Atom        0.002548     -0.001276     -0.001272
     9   Atom        0.004934     -0.002246     -0.002688
    10   Atom        0.002368     -0.000135     -0.002233
    11   Atom        0.000784     -0.002396      0.001612
    12   Atom        0.010292     -0.005035     -0.005257
    13   Atom        0.000925     -0.000334     -0.000591
    14   Atom        0.001246     -0.000616     -0.000630
    15   Atom        0.000871     -0.000421     -0.000450
    16   Atom        0.022019      0.040761     -0.062780
    17   Atom       -0.052158     -0.013610      0.065768
    18   Atom        0.040488     -0.016241     -0.024247
 --------------------------------------------------------
                        XY            XZ            YZ
 --------------------------------------------------------
     1   Atom       -0.002728     -0.000378     -0.000153
     2   Atom       -0.000391      0.000552     -0.000140
     3   Atom       -0.014052      0.010291     -0.008156
     4   Atom       -0.000367     -0.000005     -0.000029
     5   Atom       -0.015018      0.016046     -0.012978
     6   Atom        0.511316      0.019886      0.060895
     7   Atom       -0.000499      0.001018     -0.000206
     8   Atom        0.000272      0.000615      0.000025
     9   Atom       -0.002492     -0.002051      0.000512
    10   Atom       -0.002533      0.000264     -0.000205
    11   Atom       -0.002132      0.004547     -0.002123
    12   Atom        0.002098      0.010548      0.000829
    13   Atom       -0.000580      0.000007     -0.000007
    14   Atom       -0.000318     -0.000362      0.000052
    15   Atom       -0.000166      0.000083     -0.000013
    16   Atom       -0.168799      0.088651     -0.101956
    17   Atom        0.020346      0.018733      0.021830
    18   Atom        0.011845     -0.058544      0.005816
 --------------------------------------------------------


 ---------------------------------------------------------------------------------
              Anisotropic Spin Dipole Couplings in Principal Axis System
 ---------------------------------------------------------------------------------

       Atom             a.u.   MegaHertz   Gauss  10(-4) cm-1        Axes

              Baa    -0.0033    -0.442    -0.158    -0.147  0.2903  0.8189  0.4951
     1 C(13)  Bbb    -0.0027    -0.359    -0.128    -0.120 -0.1270 -0.4798  0.8681
              Bcc     0.0060     0.801     0.286     0.267  0.9485 -0.3148 -0.0353
 
              Baa    -0.0014    -0.190    -0.068    -0.063 -0.1008  0.3289  0.9390
     2 C(13)  Bbb    -0.0012    -0.155    -0.055    -0.052  0.1499  0.9380 -0.3125
              Bcc     0.0026     0.345     0.123     0.115  0.9835 -0.1092  0.1439
 
              Baa    -0.0137    -1.832    -0.654    -0.611 -0.4975  0.0048  0.8674
     3 C(13)  Bbb    -0.0097    -1.308    -0.467    -0.436  0.5514  0.7737  0.3119
              Bcc     0.0234     3.140     1.120     1.047  0.6697 -0.6335  0.3876
 
              Baa    -0.0007    -0.095    -0.034    -0.032  0.0782  0.4100  0.9087
     4 C(13)  Bbb    -0.0006    -0.085    -0.030    -0.028  0.1707  0.8925 -0.4174
              Bcc     0.0013     0.180     0.064     0.060  0.9822 -0.1878  0.0002
 
              Baa    -0.0287    -3.848    -1.373    -1.284 -0.4191  0.1158  0.9005
     5 C(13)  Bbb    -0.0053    -0.715    -0.255    -0.239  0.7367  0.6232  0.2627
              Bcc     0.0340     4.564     1.628     1.522 -0.5308  0.7735 -0.3465
 
              Baa    -0.5182   -69.534   -24.812   -23.194  0.8445 -0.3385  0.4150
     6 C(13)  Bbb    -0.5103   -68.473   -24.433   -22.840 -0.4018  0.1118  0.9089
              Bcc     1.0284   138.007    49.244    46.034  0.3541  0.9343  0.0416
 
              Baa    -0.0010    -0.559    -0.199    -0.186 -0.3528  0.0888  0.9315
     7 H(1)   Bbb    -0.0010    -0.519    -0.185    -0.173  0.2031  0.9790 -0.0164
              Bcc     0.0020     1.078     0.385     0.360  0.9134 -0.1834  0.3634
 
              Baa    -0.0014    -0.732    -0.261    -0.244 -0.1660  0.2159  0.9622
     8 H(1)   Bbb    -0.0013    -0.689    -0.246    -0.230 -0.0330  0.9740 -0.2242
              Bcc     0.0027     1.421     0.507     0.474  0.9856  0.0690  0.1545
 
              Baa    -0.0033    -1.736    -0.619    -0.579  0.3335  0.3885  0.8590
     9 H(1)   Bbb    -0.0030    -1.580    -0.564    -0.527  0.1576  0.8754 -0.4570
              Bcc     0.0062     3.316     1.183     1.106  0.9295 -0.2878 -0.2307
 
              Baa    -0.0023    -1.202    -0.429    -0.401 -0.0116  0.0826  0.9965
    10 H(1)   Bbb    -0.0017    -0.911    -0.325    -0.304  0.5299  0.8456 -0.0640
              Bcc     0.0040     2.113     0.754     0.705  0.8480 -0.5274  0.0536
 
              Baa    -0.0035    -1.874    -0.669    -0.625  0.6586  0.6909 -0.2982
    11 H(1)   Bbb    -0.0032    -1.728    -0.617    -0.576 -0.3895  0.6521  0.6504
              Bcc     0.0068     3.602     1.285     1.202  0.6438 -0.3122  0.6986
 
              Baa    -0.0106    -5.652    -2.017    -1.885 -0.4535  0.0384  0.8904
    12 H(1)   Bbb    -0.0053    -2.811    -1.003    -0.938 -0.0780  0.9935 -0.0826
              Bcc     0.0159     8.463     3.020     2.823  0.8878  0.1069  0.4476
 
              Baa    -0.0006    -0.316    -0.113    -0.105  0.0394  0.1142  0.9927
    13 H(1)   Bbb    -0.0006    -0.299    -0.107    -0.100  0.3614  0.9245 -0.1207
              Bcc     0.0012     0.615     0.219     0.205  0.9316 -0.3636  0.0049
 
              Baa    -0.0007    -0.373    -0.133    -0.124  0.2139  0.2260  0.9503
    14 H(1)   Bbb    -0.0007    -0.356    -0.127    -0.119  0.1118  0.9608 -0.2537
              Bcc     0.0014     0.729     0.260     0.243  0.9704 -0.1605 -0.1802
 
              Baa    -0.0005    -0.243    -0.087    -0.081 -0.0365  0.1972  0.9797
    15 H(1)   Bbb    -0.0004    -0.236    -0.084    -0.079  0.1346  0.9724 -0.1907
              Bcc     0.0009     0.479     0.171     0.160  0.9902 -0.1249  0.0620
 
              Baa    -0.1391    10.064     3.591     3.357  0.6354  0.7334  0.2417
    16 O(17)  Bbb    -0.1183     8.559     3.054     2.855 -0.4477  0.0948  0.8891
              Bcc     0.2574   -18.624    -6.645    -6.212 -0.6292  0.6732 -0.3886
 
              Baa    -0.0616   -32.843   -11.719   -10.955  0.9298 -0.3604 -0.0750
    17 H(1)   Bbb    -0.0141    -7.530    -2.687    -2.512  0.3201  0.8921 -0.3189
              Bcc     0.0757    40.373    14.406    13.467  0.1818  0.2725  0.9448
 
              Baa    -0.0615   -32.806   -11.706   -10.943  0.5042 -0.2387  0.8299
    18 H(1)   Bbb    -0.0141    -7.528    -2.686    -2.511  0.0536  0.9678  0.2458
              Bcc     0.0756    40.333    14.392    13.454  0.8619  0.0795 -0.5008
 

 ---------------------------------------------------------------------------------

 Calling FoFJK, ICntrl=      2127 FMM=F ISym2X=0 I1Cent= 0 IOpClX= 1 NMat=1 NMatS=1 NMatT=0.
 ***** Axes restored to original set *****
 -------------------------------------------------------------------
 Center     Atomic                   Forces (Hartrees/Bohr)
 Number     Number              X              Y              Z
 -------------------------------------------------------------------
      1        6          -0.003573646   -0.003073764    0.000078967
      2        6          -0.000322990    0.001986552    0.000591466
      3        6          -0.002132460    0.013981497    0.005483402
      4        6          -0.008570945    0.000490664   -0.000483962
      5        6          -0.002718377   -0.019359982    0.011785125
      6        6           0.019987403   -0.033439429   -0.006894212
      7        1           0.003130947    0.004387000   -0.011294641
      8        1           0.000506599   -0.011525592    0.004621483
      9        1          -0.001546572   -0.004193154    0.011280093
     10        1           0.002931152    0.012812581   -0.004234494
     11        1           0.001194267    0.001095686   -0.012146768
     12        1          -0.000897049   -0.011903548    0.002804149
     13        1           0.000083859    0.012712923   -0.003835968
     14        1          -0.002246532   -0.003972633    0.012331301
     15        1           0.008216761   -0.008006521   -0.007136685
     16        8           0.000526187    0.022264688   -0.006240058
     17        1          -0.002614254    0.014441470    0.009442175
     18        1          -0.011954349    0.011301563   -0.006151372
 -------------------------------------------------------------------
 Cartesian Forces:  Max     0.033439429 RMS     0.009666861

 GradGradGradGradGradGradGradGradGradGradGradGradGradGradGradGradGradGrad
 Berny optimization.
 Internal  Forces:  Max     0.022607813 RMS     0.006146098
 Search for a local minimum.
 Step number   1 out of a maximum of   94
 All quantities printed in internal units (Hartrees-Bohrs-Radians)
 Swaping is turned off.
 Second derivative matrix not updated -- first step.
 ITU=  0
     Eigenvalues ---    0.00330   0.00333   0.00424   0.00732   0.00775
     Eigenvalues ---    0.00841   0.03731   0.03748   0.04331   0.04901
     Eigenvalues ---    0.04923   0.05332   0.05467   0.05671   0.05790
     Eigenvalues ---    0.07982   0.08039   0.09121   0.11944   0.11978
     Eigenvalues ---    0.12645   0.16000   0.16000   0.16000   0.16000
     Eigenvalues ---    0.16000   0.21948   0.21949   0.21958   0.24999
     Eigenvalues ---    0.25000   0.29151   0.29174   0.29811   0.32108
     Eigenvalues ---    0.32316   0.32320   0.32363   0.32395   0.32399
     Eigenvalues ---    0.32417   0.32504   0.32509   0.32558   0.32588
     Eigenvalues ---    0.32593   0.32978   0.94624
 Quadratic step=5.076D-01 exceeds max=3.000D-01 adjusted using Lamda=-2.987D-02.
 Angle between NR and scaled steps=  23.54 degrees.
 Angle between quadratic step and forces=  40.26 degrees.
 Linear search not attempted -- option 19 set.
 Iteration  1 RMS(Cart)=  0.03394835 RMS(Int)=  0.00375396
 Iteration  2 RMS(Cart)=  0.00330712 RMS(Int)=  0.00238174
 Iteration  3 RMS(Cart)=  0.00003238 RMS(Int)=  0.00238161
 Iteration  4 RMS(Cart)=  0.00000053 RMS(Int)=  0.00238161
 Variable       Old X    -DE/DX   Delta X   Delta X   Delta X     New X
                                 (Linear)    (Quad)   (Total)
    R1        2.89689  -0.00429   0.00000  -0.01335  -0.01335   2.88354
    R2        2.89642  -0.00027   0.00000  -0.00085  -0.00085   2.89557
    R3        2.10269  -0.01192   0.00000  -0.03376  -0.03376   2.06894
    R4        2.10263  -0.01349   0.00000  -0.03821  -0.03821   2.06442
    R5        2.88341   0.00127   0.00000   0.00388   0.00388   2.88729
    R6        2.10126  -0.01209   0.00000  -0.03416  -0.03416   2.06710
    R7        2.10120  -0.01201   0.00000  -0.03393  -0.03393   2.06727
    R8        2.83947   0.00407   0.00000   0.01161   0.01161   2.85107
    R9        2.10087  -0.01219   0.00000  -0.03444  -0.03444   2.06643
   R10        2.10184  -0.01220   0.00000  -0.03451  -0.03451   2.06733
   R11        2.09932  -0.01308   0.00000  -0.03686  -0.03686   2.06246
   R12        2.09923  -0.01294   0.00000  -0.03645  -0.03645   2.06278
   R13        2.09834  -0.01300   0.00000  -0.03658  -0.03658   2.06177
   R14        2.82390   0.00141   0.00000   0.00391   0.00391   2.82781
   R15        2.30872  -0.02261   0.00000  -0.02316  -0.02316   2.28556
   R16        2.09780  -0.01393   0.00000  -0.03916  -0.03916   2.05864
   R17        2.09771  -0.01419   0.00000  -0.03988  -0.03988   2.05783
    A1        1.93757   0.00437   0.00000   0.02179   0.02171   1.95928
    A2        1.90848  -0.00151   0.00000  -0.00413  -0.00420   1.90428
    A3        1.90651   0.00025   0.00000   0.00726   0.00730   1.91381
    A4        1.90650  -0.00037   0.00000   0.00186   0.00178   1.90828
    A5        1.90976  -0.00224   0.00000  -0.01110  -0.01125   1.89851
    A6        1.89450  -0.00061   0.00000  -0.01655  -0.01658   1.87792
    A7        1.94053   0.00325   0.00000   0.01758   0.01752   1.95805
    A8        1.91470  -0.00190   0.00000  -0.01195  -0.01214   1.90257
    A9        1.91500  -0.00135   0.00000  -0.00712  -0.00734   1.90766
   A10        1.90005   0.00058   0.00000   0.01006   0.01013   1.91018
   A11        1.89977   0.00030   0.00000   0.00928   0.00929   1.90906
   A12        1.89306  -0.00095   0.00000  -0.01846  -0.01862   1.87444
   A13        1.93547   0.00065   0.00000   0.00281   0.00274   1.93821
   A14        1.91886  -0.00028   0.00000  -0.00523  -0.00526   1.91360
   A15        1.90823   0.00037   0.00000   0.00757   0.00751   1.91574
   A16        1.90013  -0.00131   0.00000  -0.01327  -0.01328   1.88685
   A17        1.91454   0.00055   0.00000   0.00878   0.00872   1.92326
   A18        1.88593   0.00001   0.00000  -0.00078  -0.00073   1.88520
   A19        1.92569   0.00163   0.00000   0.00740   0.00731   1.93300
   A20        1.92562   0.00178   0.00000   0.00815   0.00806   1.93368
   A21        1.91217   0.00482   0.00000   0.02779   0.02759   1.93976
   A22        1.90755  -0.00272   0.00000  -0.01893  -0.01892   1.88863
   A23        1.89614  -0.00279   0.00000  -0.01231  -0.01249   1.88364
   A24        1.89616  -0.00288   0.00000  -0.01281  -0.01300   1.88316
   A25        2.09932  -0.00061   0.00000  -0.00212  -0.00226   2.09706
   A26        2.09578   0.00572   0.00000   0.02049   0.02034   2.11613
   A27        2.08805  -0.00510   0.00000  -0.01814  -0.01828   2.06977
   A28        1.91922   0.01356   0.00000   0.10178   0.09196   2.01117
   A29        1.91995   0.01233   0.00000   0.09528   0.08543   2.00538
   A30        1.91663  -0.00006   0.00000   0.05838   0.04429   1.96093
    D1       -3.14033   0.00040   0.00000   0.00377   0.00373  -3.13660
    D2       -1.03767   0.00196   0.00000   0.01977   0.01963  -1.01805
    D3        1.04036  -0.00117   0.00000  -0.01445  -0.01442   1.02594
    D4        1.03812  -0.00093   0.00000  -0.00969  -0.00968   1.02844
    D5        3.14078   0.00064   0.00000   0.00632   0.00621  -3.13619
    D6       -1.06437  -0.00250   0.00000  -0.02791  -0.02783  -1.09220
    D7       -1.03284   0.00055   0.00000   0.00852   0.00859  -1.02424
    D8        1.06982   0.00211   0.00000   0.02453   0.02449   1.09431
    D9       -3.13533  -0.00103   0.00000  -0.00969  -0.00956   3.13830
   D10       -3.12856  -0.00070   0.00000  -0.01353  -0.01360   3.14103
   D11        1.05239   0.00070   0.00000   0.00468   0.00462   1.05701
   D12       -1.01532   0.00064   0.00000   0.00418   0.00414  -1.01118
   D13       -1.02266  -0.00005   0.00000  -0.00365  -0.00365  -1.02631
   D14       -3.12489   0.00135   0.00000   0.01456   0.01456  -3.11033
   D15        1.09058   0.00128   0.00000   0.01406   0.01409   1.10467
   D16        1.04905  -0.00233   0.00000  -0.02920  -0.02916   1.01989
   D17       -1.05318  -0.00093   0.00000  -0.01098  -0.01094  -1.06412
   D18       -3.12090  -0.00099   0.00000  -0.01148  -0.01142  -3.13231
   D19        1.05523  -0.00076   0.00000  -0.00859  -0.00864   1.04658
   D20       -1.05436   0.00042   0.00000   0.00493   0.00499  -1.04937
   D21       -3.14116  -0.00016   0.00000  -0.00175  -0.00176   3.14027
   D22       -1.05606  -0.00082   0.00000  -0.01143  -0.01154  -1.06759
   D23        3.11754   0.00035   0.00000   0.00210   0.00210   3.11964
   D24        1.03074  -0.00023   0.00000  -0.00459  -0.00465   1.02610
   D25       -3.11649  -0.00018   0.00000  -0.00027  -0.00027  -3.11676
   D26        1.05710   0.00099   0.00000   0.01325   0.01337   1.07047
   D27       -1.02969   0.00041   0.00000   0.00657   0.00662  -1.02307
   D28        2.02157  -0.00005   0.00000  -0.00958  -0.00971   2.01185
   D29       -1.12879   0.00112   0.00000   0.02207   0.02221  -1.10658
   D30       -2.14830  -0.00085   0.00000  -0.02297  -0.02308  -2.17138
   D31        0.98452   0.00032   0.00000   0.00869   0.00885   0.99337
   D32       -0.08795  -0.00129   0.00000  -0.02663  -0.02680  -0.11475
   D33        3.04488  -0.00012   0.00000   0.00502   0.00513   3.05001
   D34       -2.08581   0.00879   0.00000   0.11257   0.11692  -1.96889
   D35        2.08433  -0.00780   0.00000  -0.08688  -0.09166   1.99267
   D36        1.06451   0.00757   0.00000   0.08086   0.08565   1.15015
   D37       -1.04853  -0.00902   0.00000  -0.11858  -0.12294  -1.17147
         Item               Value     Threshold  Converged?
 Maximum Force            0.022608     0.000002     NO 
 RMS     Force            0.006146     0.000001     NO 
 Maximum Displacement     0.126589     0.000006     NO 
 RMS     Displacement     0.032762     0.000004     NO 
 Predicted change in Energy=-8.087686D-03
 GradGradGradGradGradGradGradGradGradGradGradGradGradGradGradGradGradGrad

                          Input orientation:                          
 ---------------------------------------------------------------------
 Center     Atomic      Atomic             Coordinates (Angstroms)
 Number     Number       Type             X           Y           Z
 ---------------------------------------------------------------------
      1          6           0       -0.325577   -0.263851   -0.043336
      2          6           0       -1.579323    0.431703    0.478874
      3          6           0        0.946466    0.235183    0.650008
      4          6           0       -2.847408   -0.072080   -0.208596
      5          6           0        2.167916   -0.470068    0.114353
      6          6           0        3.215909    0.299565   -0.626342
      7          1           0       -1.657762    0.262690    1.556750
      8          1           0       -1.485907    1.510436    0.322875
      9          1           0       -0.242514   -0.091056   -1.121252
     10          1           0       -0.411364   -1.341681    0.112720
     11          1           0        0.882340    0.036014    1.723311
     12          1           0        1.043418    1.316050    0.511695
     13          1           0       -2.976027   -1.143563   -0.045643
     14          1           0       -2.801840    0.106295   -1.284533
     15          1           0       -3.732642    0.435029    0.178146
     16          8           0        2.313255   -1.663131    0.249578
     17          1           0        3.308494    0.057978   -1.684560
     18          1           0        4.182566    0.354388   -0.127948
 ---------------------------------------------------------------------
                    Distance matrix (angstroms):
                    1          2          3          4          5
     1  C    0.000000
     2  C    1.525903   0.000000
     3  C    1.532270   2.539196   0.000000
     4  C    2.534506   1.527891   3.901934   0.000000
     5  C    2.506970   3.871417   1.508723   5.041445   0.000000
     6  C    3.633106   4.922725   2.604533   6.089043   1.496414
     7  H    2.147613   1.093863   2.757706   2.154941   4.153704
     8  H    2.151412   1.093950   2.765814   2.154183   4.161287
     9  H    1.094833   2.149590   2.158116   2.760213   2.735058
    10  H    1.092443   2.154783   2.149158   2.765762   2.722572
    11  H    2.161024   2.786572   1.093508   4.201782   2.120747
    12  H    2.162937   2.768018   1.093986   4.193358   2.147695
    13  H    2.792631   2.169645   4.215545   1.091408   5.190313
    14  H    2.794540   2.170262   4.220054   1.091575   5.194954
    15  H    3.485051   2.174219   4.707084   1.091040   5.969912
    16  O    3.001202   4.426407   2.373195   5.419761   1.209467
    17  H    4.000457   5.358253   3.325776   6.331707   2.194502
    18  H    4.551124   5.794271   3.330431   7.043359   2.190263
                    6          7          8          9         10
     6  C    0.000000
     7  H    5.340405   0.000000
     8  H    4.947151   1.763193   0.000000
     9  H    3.515425   3.049551   2.489239   0.000000
    10  H    4.049323   2.492537   3.055059   1.765011   0.000000
    11  H    3.322028   2.555631   3.121496   3.061532   2.483086
    12  H    2.654823   3.081896   2.543802   2.509997   3.055996
    13  H    6.384349   2.506598   3.065937   3.120385   2.577174
    14  H    6.056721   3.066963   2.507399   2.572111   3.124632
    15  H    6.996278   2.497073   2.495047   3.761143   3.767209
    16  O    2.331137   4.602876   4.950812   3.298871   2.746928
    17  H    1.089386   5.933945   5.396824   3.598497   4.361950
    18  H    1.088957   6.079149   5.802696   4.557017   4.902934
                   11         12         13         14         15
    11  H    0.000000
    12  H    1.769874   0.000000
    13  H    4.405406   4.745131   0.000000
    14  H    4.756600   4.413157   1.768427   0.000000
    15  H    4.883115   4.868080   1.764794   1.764621   0.000000
    16  O    2.665802   3.249110   5.322933   5.625705   6.400020
    17  H    4.183334   3.396594   6.604919   6.123604   7.293108
    18  H    3.797369   3.344874   7.314102   7.083866   7.921534
                   16         17         18
    16  O    0.000000
    17  H    2.773735   0.000000
    18  H    2.776190   1.809668   0.000000
 Stoichiometry    C6H11O(2)
 Framework group  C1[X(C6H11O)]
 Deg. of freedom    48
 Full point group                 C1      NOp   1
 Largest Abelian subgroup         C1      NOp   1
 Largest concise Abelian subgroup C1      NOp   1
                         Standard orientation:                         
 ---------------------------------------------------------------------
 Center     Atomic      Atomic             Coordinates (Angstroms)
 Number     Number       Type             X           Y           Z
 ---------------------------------------------------------------------
      1          6           0       -0.746892    0.132155    0.163958
      2          6           0       -2.086328   -0.371696   -0.365594
      3          6           0        0.438058   -0.420371   -0.635080
      4          6           0       -3.267048    0.185734    0.427893
      5          6           0        1.746938    0.095001   -0.089672
      6          6           0        2.732207   -0.852008    0.519979
      7          1           0       -2.185185   -0.083690   -1.416221
      8          1           0       -2.103942   -1.464674   -0.322999
      9          1           0       -0.643846   -0.160074    1.214026
     10          1           0       -0.721799    1.223458    0.120855
     11          1           0        0.356833   -0.104494   -1.678815
     12          1           0        0.423087   -1.513977   -0.610442
     13          1           0       -3.285443    1.275905    0.379320
     14          1           0       -3.201927   -0.107933    1.477205
     15          1           0       -4.215160   -0.183961    0.034476
     16          8           0        2.014819    1.274228   -0.111426
     17          1           0        2.888591   -0.733281    1.591524
     18          1           0        3.668624   -0.953986   -0.026419
 ---------------------------------------------------------------------
 Rotational constants (GHZ):      6.9788744      1.0626685      1.0116373
 Standard basis: 6-311+G(2df,2p) (5D, 7F)
 There are   337 symmetry adapted basis functions of A   symmetry.
 Integral buffers will be    131072 words long.
 Raffenetti 2 integral format.
 Two-electron integral symmetry is turned on.
   337 basis functions,   485 primitive gaussians,   372 cartesian basis functions
    28 alpha electrons       27 beta electrons
       nuclear repulsion energy       290.3057722800 Hartrees.
 NAtoms=   18 NActive=   18 NUniq=   18 SFac= 1.00D+00 NAtFMM=   50 NAOKFM=F Big=F
 One-electron integrals computed using PRISM.
 NBasis=   337 RedAO= T  NBF=   337
 NBsUse=   337 1.00D-06 NBFU=   337
 Initial guess read from the read-write file.
 B after Tr=     0.000000    0.000000    0.000000
         Rot=    1.000000    0.000000    0.000000    0.000000 Ang=   0.00 deg.
 Initial guess orbital symmetries:
 Alpha Orbitals:
       Occupied  (A) (A) (A) (A) (A) (A) (A) (A) (A) (A) (A) (A)
                 (A) (A) (A) (A) (A) (A) (A) (A) (A) (A) (A) (A)
                 (A) (A) (A) (A)
       Virtual   (A) (A) (A) (A) (A) (A) (A) (A) (A) (A) (A) (A)
                 (A) (A) (A) (A) (A) (A) (A) (A) (A) (A) (A) (A)
                 (A) (A) (A) (A) (A) (A) (A) (A) (A) (A) (A) (A)
                 (A) (A) (A) (A) (A) (A) (A) (A) (A) (A) (A) (A)
                 (A) (A) (A) (A) (A) (A) (A) (A) (A) (A) (A) (A)
                 (A) (A) (A) (A) (A) (A) (A) (A) (A) (A) (A) (A)
                 (A) (A) (A) (A) (A) (A) (A) (A) (A) (A) (A) (A)
                 (A) (A) (A) (A) (A) (A) (A) (A) (A) (A) (A) (A)
                 (A) (A) (A) (A) (A) (A) (A) (A) (A) (A) (A) (A)
                 (A) (A) (A) (A) (A) (A) (A) (A) (A) (A) (A) (A)
                 (A) (A) (A) (A) (A) (A) (A) (A) (A) (A) (A) (A)
                 (A) (A) (A) (A) (A) (A) (A) (A) (A) (A) (A) (A)
                 (A) (A) (A) (A) (A) (A) (A) (A) (A) (A) (A) (A)
                 (A) (A) (A) (A) (A) (A) (A) (A) (A) (A) (A) (A)
                 (A) (A) (A) (A) (A) (A) (A) (A) (A) (A) (A) (A)
                 (A) (A) (A) (A) (A) (A) (A) (A) (A) (A) (A) (A)
                 (A) (A) (A) (A) (A) (A) (A) (A) (A) (A) (A) (A)
                 (A) (A) (A) (A) (A) (A) (A) (A) (A) (A) (A) (A)
                 (A) (A) (A) (A) (A) (A) (A) (A) (A) (A) (A) (A)
                 (A) (A) (A) (A) (A) (A) (A) (A) (A) (A) (A) (A)
                 (A) (A) (A) (A) (A) (A) (A) (A) (A) (A) (A) (A)
                 (A) (A) (A) (A) (A) (A) (A) (A) (A) (A) (A) (A)
                 (A) (A) (A) (A) (A) (A) (A) (A) (A) (A) (A) (A)
                 (A) (A) (A) (A) (A) (A) (A) (A) (A) (A) (A) (A)
                 (A) (A) (A) (A) (A) (A) (A) (A) (A) (A) (A) (A)
                 (A) (A) (A) (A) (A) (A) (A) (A) (A)
 Beta  Orbitals:
       Occupied  (A) (A) (A) (A) (A) (A) (A) (A) (A) (A) (A) (A)
[...]
 01371,0.0224691,0.0737893,0.0236057,0.0446201,-0.11699,0.0012537,-0.01
 94009,-0.0133509,-0.0297603,-0.0849076,-0.0418491,-0.0054068,-0.017053
 6,0.040916,0.0354691,0.0011047,0.0250645,0.0076809,0.0259613,0.0576908
 ,0.0182633,0.0210393,-0.0559946,0.02149,-0.0362974,-0.0043712,-0.03997
 89,-0.1021553,-0.0440061,0.0065528,-0.0092783,0.0469035,0.0385299,-0.0
 052695,-0.0186335,-0.0649385,-0.1182116,-0.0329494,-0.031616,-0.007459
 1,0.0476154,0.0350189,-0.028407,0.0387851,-0.0124746,0.029245,0.071834
 9,-0.0268435,0.0621284,-0.1048856,-0.1292009,0.0622947,0.0339575,0.076
 4505,0.0368668,-0.0358522,0.0559785,-0.0411796,0.0219848,-0.563612,0.1
 053091,0.0721532,0.0987354,-0.8863692,0.1568339,0.136517,0.0770036,-0.
 4357751,0.0366043,0.0134265,0.0614694,0.0339208,0.0447054,-0.0075749,0
 .0675539,0.0133701,0.0804936,0.0813953,0.0421895,0.0240853,0.0186859,-
 0.0230474,0.022446,0.0314044,-0.0013089,0.0883006\Polar=87.4574849,-2.
 8350482,72.6925609,-4.6354675,-2.7437673,66.5559495\PG=C01 [X(C6H11O1)
 ]\NImag=0\\0.46199562,0.01965314,0.57777721,-0.01563746,-0.02099803,0.
 54130486,-0.14673403,0.03942620,0.04463193,0.46940730,0.03926678,-0.10
 269502,-0.02356133,0.02521577,0.57701016,0.04476345,-0.02387563,-0.104
 65763,-0.00540048,-0.02144436,0.55543765,-0.14206965,-0.00869172,-0.04
 122305,-0.03020958,-0.00427615,-0.01840773,0.43490149,-0.01467764,-0.0
 7742987,-0.00863349,0.01221572,0.00150762,0.00894178,0.02046136,0.6006
 3491,-0.05617644,-0.00673776,-0.11096584,0.01032486,0.00231345,0.00833
 940,-0.03836516,-0.03435630,0.53932921,-0.03003771,-0.00216532,-0.0149
 6641,-0.16114367,-0.01381097,-0.05513312,-0.00380014,0.00200975,0.0023
 8390,0.51525581,0.01261557,0.00176049,0.00862043,-0.01511482,-0.082457
 67,-0.00993477,0.00299685,-0.00177692,-0.00128865,-0.01274401,0.571091
 76,0.01091361,0.00309250,0.00897930,-0.05749874,-0.00930523,-0.1188929
 3,0.00402274,-0.00149780,-0.00170964,-0.04512747,-0.00427165,0.5430430
 9,-0.03355211,0.00996268,0.00482094,-0.00228364,0.00018293,-0.00112121
 ,-0.14362161,0.02786507,0.05556273,0.00012937,0.00016024,-0.00014188,0
 .44393798,0.00548914,0.00128054,0.00537966,-0.00229833,-0.00066212,-0.
 00226673,0.02415928,-0.09406250,-0.01524110,-0.00061620,0.00094168,0.0
 0027580,-0.10979783,0.76106066,-0.00910115,0.01250529,0.01614443,-0.00
 407513,-0.00204595,-0.00515302,0.04701868,-0.02127093,-0.11780488,-0.0
 0161607,0.00094375,0.00182634,-0.16598296,-0.05891350,0.34230184,0.000
 95532,0.00048201,0.00256577,-0.00046875,-0.00040821,-0.00050507,-0.010
 87425,-0.01141643,0.02201010,-0.00017488,0.00020903,0.00012926,-0.1609
 1728,-0.00767617,0.08188460,0.40842994,0.00069517,0.00016839,-0.000039
 45,0.00034116,-0.00030114,0.00015807,0.00684965,0.01161366,-0.00784506
 ,-0.00002000,-0.00005160,0.00008418,-0.04360592,-0.08789530,0.04254724
 ,-0.10010306,0.62918743,0.00083125,-0.00139953,-0.00460410,0.00086185,
 0.00083185,0.00145864,0.01781001,0.00934618,-0.00059477,0.00036582,-0.
 00036029,-0.00047559,0.08986051,0.01059273,-0.13902977,-0.24952557,-0.
 05183636,0.28787963,-0.00632179,-0.01110847,0.02546716,-0.05056934,-0.
 01428628,0.02933381,0.00151471,-0.00085068,0.00105965,0.00233220,0.012
 29488,-0.02770120,0.00013954,0.00049836,0.00002062,0.00005713,-0.00015
 576,-0.00009706,0.06015899,0.00317058,0.00591324,-0.01415135,-0.014514
 98,-0.09192052,0.09462058,-0.00067792,0.00024907,-0.00032673,0.0007178
 1,0.00187913,-0.00499665,-0.00015245,-0.00007280,-0.00020449,0.0000516
 6,0.00001298,0.00003033,0.01358660,0.09512841,0.00318317,0.00575665,-0
 .01489497,0.02945325,0.09365526,-0.25760769,-0.00060613,0.00021080,0.0
 0079041,0.00098918,0.00687166,-0.01599496,-0.00023830,-0.00036381,0.00
 031444,-0.00013253,0.00014213,0.00003483,-0.03193299,-0.10188532,0.282
 02534,0.00226979,0.02855538,0.00332760,-0.05417371,-0.04401605,-0.0042
 6914,0.00210376,0.00101116,0.00038779,-0.00665360,-0.02891353,-0.00387
 496,0.00006113,0.00021512,0.00030584,0.00007321,0.00003227,-0.00007671
 ,-0.00121668,-0.00407802,-0.00036324,0.06393447,-0.00128266,-0.0151238
 6,-0.00217269,-0.04393928,-0.29370389,-0.02897967,-0.00070530,0.000274
 22,0.00031555,-0.00086587,-0.00237437,-0.00037452,0.00013508,0.0001189
 4,-0.00006336,0.00002290,-0.00003465,-0.00003561,-0.00199667,-0.013083
 85,-0.00120019,0.04633642,0.31959956,-0.00156573,-0.01633404,-0.002656
 73,-0.00415314,-0.02827845,-0.05304177,-0.00055391,0.00044823,0.000130
 63,-0.00410877,-0.01848707,-0.00279665,-0.00013739,-0.00004464,-0.0001
 3594,0.00000663,-0.00004188,-0.00001004,0.00503951,0.02934274,0.004241
 38,0.00544109,0.03462935,0.05472530,-0.05112638,-0.01560916,0.03072244
 ,-0.00581851,-0.01124430,0.02508439,0.00147811,0.01284908,-0.02611903,
 0.00157728,-0.00067967,0.00112939,0.00176765,-0.00040900,-0.00151078,0
 .00015504,0.00025500,0.00005323,-0.00412670,0.00269134,0.00212642,0.00
 101610,0.00005408,-0.00080267,0.06070114,-0.01562853,-0.09203159,0.093
 50398,0.00331238,0.00588858,-0.01405439,0.00116080,0.00128497,-0.00449
 521,-0.00069136,0.00020869,-0.00021858,-0.00041503,0.00031787,0.000802
 99,0.00020508,0.00000046,-0.00034981,0.00269937,-0.00016249,-0.0017334
 4,-0.00085512,0.00073746,-0.00005547,0.01436453,0.09510403,0.03126536,
 0.09333800,-0.25136880,0.00319761,0.00601759,-0.01473454,0.00002476,0.
 00736764,-0.01604066,-0.00081914,0.00006428,0.00082973,0.00134191,-0.0
 0118774,-0.00070070,-0.00043600,0.00050497,0.00019003,0.00213870,-0.00
 183923,-0.00013430,-0.00040173,-0.00026196,0.00027044,-0.03315152,-0.1
 0167251,0.27653066,-0.05310967,-0.04196564,-0.00377195,0.00266207,0.02
 791567,0.00331714,-0.00905726,-0.02717953,-0.00421778,0.00196863,0.000
 88208,0.00037687,0.00122835,-0.00332217,-0.00043531,-0.00017392,-0.000
 13005,0.00019850,0.00097053,-0.00080319,-0.00037227,-0.00424183,0.0024
 0149,0.00240029,-0.00116126,-0.00420394,-0.00024177,0.06357567,-0.0431
 8706,-0.29693416,-0.03037729,-0.00110938,-0.01405016,-0.00215264,-0.00
 184927,-0.00305339,-0.00063455,-0.00074556,0.00056028,0.00027326,0.000
 85714,-0.00027162,-0.00080292,-0.00042387,-0.00022210,0.00029418,0.000
 04178,0.00065946,-0.00017520,0.00212358,0.00064292,-0.00139976,-0.0019
 1897,-0.01246743,-0.00131973,0.04547904,0.32185432,-0.00366338,-0.0296
 5943,-0.05291680,-0.00162100,-0.01589964,-0.00248439,-0.00533180,-0.01
 836190,-0.00317667,-0.00062995,0.00059121,0.00022720,0.00104911,-0.000
 12219,0.00000043,-0.00017076,-0.00006164,0.00014859,-0.00077799,-0.000
 06600,0.00020405,0.00236106,-0.00147591,-0.00063814,0.00523159,0.02920
 497,0.00402736,0.00560168,0.03614555,0.05554336,0.00163444,0.01324479,
 -0.02715711,0.00207831,0.00030415,-0.00089433,-0.04638389,-0.01370305,
 0.02990514,-0.00006177,-0.00015972,-0.00008637,-0.00643070,-0.01235155
 ,0.02638245,-0.00371107,0.00285895,0.00166692,-0.00044743,-0.00016809,
 0.00065615,-0.00003674,-0.00000004,0.00010589,-0.00497474,-0.00081556,
 -0.00296368,0.00145162,-0.00016390,0.00093960,0.05714635,0.00022759,0.
 00216103,-0.00468094,-0.00002953,-0.00010558,0.00025002,-0.01496674,-0
 .10273763,0.10536980,0.00015364,0.00002309,-0.00023125,0.00092124,0.00
 494113,-0.01317263,0.00181067,-0.00067090,-0.00049568,0.00033434,0.000
 08059,0.00006628,-0.00004069,-0.00007258,0.00013038,-0.00089955,0.0010
 9635,-0.00097057,0.00062622,0.00051220,-0.00031325,0.01527889,0.104628
 63,0.00027470,0.00745187,-0.01755988,0.00108629,-0.00015500,0.00079677
 ,0.03117607,0.10243496,-0.25722381,-0.00007214,-0.00025810,0.00025834,
 0.00177156,0.00799993,-0.01422645,0.00220225,-0.00150024,-0.00087931,-
 0.00061698,0.00027500,0.00056283,-0.00009655,-0.00004661,-0.00004044,-
 0.00312440,-0.00086722,-0.00076113,0.00053918,-0.00018436,0.00050670,-
 0.03102568,-0.11342600,0.27942992,-0.00705234,-0.02883742,-0.00447577,
 0.00192482,-0.00137377,0.00024868,-0.05439494,-0.04840847,-0.00111386,
 -0.00002013,0.00015387,-0.00015335,0.00808762,0.02520332,0.00037322,-0
 .00067059,-0.00079188,-0.00062503,-0.00004372,0.00001504,0.00008075,-0
 .00039036,0.00087199,0.00011273,0.00121528,0.00066678,0.00039077,-0.00
 474539,0.00016317,-0.00345138,-0.00144652,-0.00371726,-0.00081584,0.06
 349980,-0.00124561,-0.00319722,-0.00103055,0.00048060,0.00063878,0.000
 26876,-0.04545065,-0.29688003,-0.03378491,-0.00002413,0.00044219,0.000
 06124,-0.00584905,-0.01256340,0.00190487,-0.00049439,0.00002646,0.0012
 6548,-0.00005666,-0.00007622,-0.00008040,-0.00060959,0.00029942,0.0002
 1875,-0.00025439,0.00044627,-0.00031671,-0.00019067,0.00131645,-0.0006
 2580,-0.00193303,-0.01179544,-0.00244178,0.05122853,0.32226486,-0.0050
 6006,-0.01877684,-0.00333480,0.00101026,0.00011202,0.00039340,-0.00141
 577,-0.03145916,-0.05635657,0.00011264,0.00003500,-0.00014806,-0.00725
 973,-0.01346400,-0.00156805,0.00061227,0.00030585,0.00003959,-0.000060
 41,0.00016117,-0.00002725,-0.00012366,0.00036126,0.00039801,0.00094294
 ,-0.00021657,0.00046069,-0.00331211,-0.00042338,-0.00133345,0.00488373
 ,0.02739601,0.00622185,0.00590785,0.03760360,0.05535092,0.00172449,-0.
 00158440,0.00010083,-0.00680856,-0.02827167,-0.00288181,0.00001851,0.0
 0014699,-0.00007338,-0.05710528,-0.04882781,-0.00432612,-0.00000976,0.
 00002713,0.00001709,-0.00000315,-0.00000423,-0.00001535,0.00128748,0.0
 0060613,0.00051797,-0.00471480,-0.00032847,-0.00338597,-0.00005061,0.0
 0002198,0.00006361,-0.00041516,0.00075080,0.00011141,0.00000341,-0.000
 02840,-0.00001187,0.00018265,0.00020511,0.00011483,0.06170851,0.000422
 11,0.00071592,0.00033354,-0.00081456,-0.00341656,-0.00094940,-0.000064
 86,0.00042923,0.00008807,-0.04944147,-0.30073643,-0.02792720,0.0000522
 1,-0.00010836,-0.00012057,-0.00002605,-0.00000766,0.00003565,-0.000221
 82,0.00048603,-0.00038942,-0.00026227,0.00158550,-0.00064155,-0.000048
 60,-0.00007723,-0.00007948,-0.00066987,0.00025083,0.00020419,-0.000006
 05,-0.00002204,-0.00000615,0.00021774,-0.00004209,0.00006252,0.0552560
 6,0.32536075,0.00095685,0.00013945,0.00025185,-0.00423416,-0.01956164,
 -0.00287097,0.00009685,0.00001233,-0.00003436,-0.00419738,-0.02758280,
 -0.05061996,0.00009669,0.00004115,-0.00002566,-0.00001218,-0.00000620,
 -0.00000082,0.00095372,-0.00023058,0.00035843,-0.00378187,-0.00030064,
 -0.00151452,-0.00005603,0.00015083,-0.00001469,-0.00009421,0.00034255,
 0.00040857,-0.00002620,-0.00001532,-0.00004627,0.00011320,0.00005895,0
 .00001350,0.00839236,0.03171239,0.05178721,0.00206745,0.00025083,-0.00
 117731,0.00228539,0.01276229,-0.02677449,0.00003447,-0.00008696,-0.000
 01101,-0.05114244,-0.01260847,0.02785980,-0.00006092,-0.00004194,0.000
 15031,-0.00002088,0.00004019,0.00000633,-0.00490304,-0.00074652,-0.003
 22527,0.00132668,-0.00006999,0.00096584,-0.00038100,-0.00019464,0.0006
 0086,-0.00003473,0.00006820,0.00010903,0.00005455,-0.00006797,0.000225
 32,0.00001944,-0.00000007,-0.00002566,-0.00171139,-0.00172218,0.005435
 56,0.05497579,-0.00001481,-0.00010105,0.00025695,0.00079703,0.00195531
 ,-0.00543964,0.00015636,0.00001950,-0.00018983,-0.01246635,-0.09177981
 ,0.09747373,0.00003232,0.00000314,0.00006764,-0.00000469,0.00000227,-0
 .00002224,-0.00109176,0.00098042,-0.00088442,0.00070000,0.00037617,-0.
 00023560,0.00035450,0.00006365,0.00012182,-0.00004088,-0.00009068,0.00
 015591,-0.00006494,-0.00002939,-0.00003497,-0.00003236,-0.00002431,-0.
 00002108,-0.00368256,-0.01202878,0.02969544,0.01449469,0.09465806,0.00
 107004,-0.00017250,0.00071231,0.00137089,0.00721258,-0.01746375,-0.000
 12550,-0.00018605,0.00037791,0.02755145,0.09730861,-0.26292923,0.00009
 267,-0.00005236,-0.00009049,-0.00005863,0.00002287,0.00006687,-0.00350
 493,-0.00119203,-0.00060092,0.00033596,-0.00041046,0.00038026,-0.00074
 006,0.00029721,0.00057013,-0.00011122,-0.00003084,-0.00003781,0.000261
 25,-0.00003445,0.00011213,-0.00000206,-0.00000900,-0.00004602,-0.00037
 093,-0.00169438,0.00454563,-0.02684036,-0.10687620,0.28675151,-0.00332
 793,-0.00194990,-0.00484830,-0.02020584,0.01183014,0.01343627,-0.00149
 869,0.00101364,0.00106851,-0.21095626,0.08971872,0.09421822,0.00021409
 ,-0.00037430,-0.00088669,-0.00015287,0.00000108,0.00024250,0.00101452,
 0.00036328,-0.00011595,0.00081698,-0.00053143,0.00056164,0.00028385,-0
 .00017726,-0.00009438,0.00022014,0.00001814,-0.00010298,0.00001893,0.0
 0005126,-0.00002059,0.00002777,-0.00008422,0.00004989,0.00589189,-0.00
 263413,-0.00359992,-0.00249927,0.00084447,0.00115611,0.23034007,-0.000
 71227,0.00020361,-0.00037906,-0.00507811,0.00151731,0.00323602,-0.0002
 4063,0.00052456,-0.00013515,0.09032591,-0.09748155,-0.05200315,-0.0000
 8469,-0.00002315,-0.00006841,0.00000641,-0.00000014,0.00000362,0.00042
 484,-0.00007602,0.00010737,0.00018625,0.00031388,0.00055322,0.00014994
 ,-0.00007157,-0.00026147,-0.00027493,0.00045232,0.00009380,-0.00004063
 ,-0.00001523,-0.00001766,0.00010663,-0.00000406,0.00007018,0.02559214,
 -0.01250966,-0.01451178,-0.01202830,0.00600787,0.00581669,-0.09835821,
 0.10112985,-0.00256770,-0.00085686,-0.00221560,-0.01592888,0.00964042,
 0.00939212,-0.00124173,0.00032481,0.00068668,0.09499560,-0.05204715,-0
 .10124156,-0.00003672,-0.00015392,-0.00044510,-0.00004722,-0.00000920,
 0.00013913,0.00081587,0.00042012,0.00068792,0.00095526,-0.00003822,0.0
 0062744,-0.00028863,-0.00016106,0.00028232,0.00006241,0.00000032,-0.00
 019113,0.00012328,0.00004734,0.00004911,0.00003727,-0.00002410,0.00002
 666,0.00172603,-0.00066491,-0.00223464,0.02270941,-0.01404340,-0.01239
 071,-0.10126595,0.05746876,0.10674681,0.00248276,0.00024035,0.00102819
 ,0.00022107,0.00028025,-0.00059387,0.00175750,0.04144635,0.00138619,-0
 .00013172,-0.00002629,0.00020965,-0.10919995,0.08298750,0.01924189,0.0
 2514847,-0.01817028,-0.00107361,0.00008328,-0.00006303,0.00003683,-0.0
 0017176,-0.00011627,0.00004861,-0.00038559,0.00050198,-0.00062561,0.00
 081892,-0.00012950,0.00039098,0.00189612,-0.00013984,-0.00166819,-0.00
 618095,0.00426992,0.00318974,0.00000053,-0.00003531,-0.00004756,0.0000
 1121,0.00001055,-0.00006068,-0.00017135,0.00002982,-0.00002590,0.08386
 520,-0.00462299,-0.00263858,-0.00257076,0.00126979,0.00078722,0.001855
 10,0.02214945,-0.03820427,-0.00432460,0.00042685,-0.00028588,-0.000466
 21,0.12471840,-0.57580462,0.03258128,-0.03420327,-0.09262570,0.0564030
 9,-0.00018513,0.00002140,-0.00004900,-0.00036654,0.00042307,0.00016609
 ,0.00060810,-0.00027802,0.00071540,0.00134615,0.00077819,0.00020089,-0
 .00184857,0.00117892,0.00032818,0.00444804,-0.00197545,-0.00192441,0.0
 0011595,0.00011830,0.00005275,-0.00003161,-0.00001818,0.00001505,0.000
 27993,0.00003519,0.00011531,-0.10914824,0.70942421,0.00031866,-0.00312
 301,-0.00184533,0.00081393,0.00041945,0.00093305,0.00612072,-0.0160809
 1,0.01486839,0.00023074,-0.00013601,-0.00034468,0.01019927,0.06431897,
 -0.08351728,0.00247349,0.04236459,0.00559338,-0.00010631,0.00003472,0.
 00003059,-0.00014381,0.00009303,0.00006684,0.00049893,-0.00018312,0.00
 046413,0.00017032,0.00042921,-0.00027500,-0.00321397,0.00041440,0.0029
 3315,0.00281560,-0.00291649,0.00039509,0.00003261,0.00003622,-0.000000
 54,-0.00000731,-0.00003210,0.00004168,0.00016969,0.00002608,0.00007572
 ,-0.02102218,-0.08730068,0.06218587,0.00036280,-0.00003323,0.00016243,
 -0.00005731,-0.00005984,-0.00009039,0.00092783,-0.00271367,0.00318077,
 -0.00000648,0.00002658,0.00002066,-0.00970754,0.01163789,0.00896100,-0
 .20568554,0.10254101,0.12481138,0.00003713,0.00000543,-0.00003842,0.00
 001979,-0.00000955,0.00000116,-0.00002220,0.00006330,-0.00012561,-0.00
 009530,-0.00003494,-0.00000470,-0.00108387,0.00034826,0.00040720,0.000
 38850,0.00004481,-0.00030119,-0.00000520,-0.00000790,0.00000106,-0.000
 01125,0.00000629,-0.00001485,-0.00001754,-0.00000061,-0.00000963,0.001
 30630,-0.00006171,-0.00313248,0.21057431,0.00001781,0.00011908,0.00026
 408,-0.00008597,-0.00006109,-0.00010467,-0.00092001,-0.00213315,0.0020
 4535,-0.00002437,0.00003835,0.00001702,-0.01323806,0.01160495,0.008827
 36,0.10569597,-0.11891654,-0.06379490,0.00003071,0.00000394,-0.0000261
 2,-0.00000311,0.00001835,0.00001416,-0.00006694,-0.00003668,-0.0001104
 6,0.00001485,0.00001154,-0.00001721,-0.00061780,0.00053752,0.00043846,
 0.00003995,0.00033246,0.00009844,0.00000322,-0.00000058,0.00000106,-0.
 00000910,-0.00000111,-0.00001113,-0.00001514,-0.00000184,-0.00000918,0
 .00121363,0.00082740,-0.00188965,-0.11069692,0.11264502,0.00032841,-0.
 00021167,-0.00049557,0.00019039,0.00001861,0.00023006,0.00181123,0.002
 97864,0.00035230,0.00005050,-0.00006897,-0.00004518,0.01555991,-0.0110
 1649,-0.00389869,0.12423585,-0.06145365,-0.10945574,-0.00003937,0.0000
 1188,0.00002153,0.00000250,-0.00001754,-0.00000770,0.00008377,0.000023
 35,0.00005992,-0.00003283,0.00000292,0.00000378,0.00042971,-0.00015681
 ,-0.00019439,-0.00019232,0.00006823,0.00004729,-0.00000579,0.00000448,
 0.00000163,0.00000308,0.00000183,0.00001001,0.00004291,-0.00000054,0.0
 0001369,-0.00355828,-0.00074684,0.00029212,-0.13590252,0.06700503,0.10
 630692,-0.00016108,0.00012988,0.00043008,-0.00010605,-0.00001074,-0.00
 011211,-0.00082636,0.00001730,-0.00119298,-0.00002924,0.00001649,0.000
 02991,0.01021776,-0.01333026,-0.00074762,-0.05196593,0.04936669,0.0147
 0504,0.00003318,-0.00000367,-0.00001861,-0.00002244,0.00002357,0.00002
 418,-0.00014746,-0.00001477,-0.00016412,0.00013857,0.00006059,-0.00004
 051,0.00029300,0.00013786,-0.00023034,-0.00040094,-0.00003653,0.000734
 43,0.00000645,0.00000693,0.00000323,-0.00001007,0.00000218,-0.00000916
 ,0.00000151,-0.00000357,-0.00001277,-0.00135004,-0.00489458,0.00378211
 ,0.00307557,0.01866129,-0.00300715,0.04125355,-0.00018631,0.00005184,0
 .00023627,-0.00007371,0.00006878,-0.00012844,-0.00009051,-0.00025998,-
 0.00077238,-0.00001835,-0.00000141,0.00001452,0.00825573,-0.00880503,-
 0.00351765,0.04627243,-0.34028592,0.03949131,0.00004233,-0.00002277,-0
 .00002282,-0.00001527,0.00000372,0.00001553,-0.00019599,-0.00002332,-0
 .00010983,0.00011535,0.00005106,0.00000648,0.00018616,0.00028931,0.000
 00968,0.00004609,0.00079135,0.00007939,0.00000204,0.00000283,0.0000020
 7,-0.00000844,0.00000693,-0.00000361,0.00000392,-0.00000135,-0.0000090
 9,-0.00315159,-0.00176321,0.00352530,-0.00105522,-0.00498763,0.0035575
 3,-0.05012865,0.35488480,-0.00013360,-0.00013847,0.00012329,-0.0000297
 4,0.00003037,-0.00007439,-0.00081028,-0.00021882,-0.00096772,-0.000009
 37,0.00000051,0.00003444,-0.00543711,0.01421825,0.00600854,0.01476775,
 0.03666378,-0.04050054,0.00000821,-0.00000417,-0.00001168,0.00001458,-
 0.00002182,0.00000164,-0.00007995,0.00002404,0.00006939,-0.00007694,0.
 00001267,-0.00001663,0.00001322,-0.00017733,0.00006087,0.00074953,-0.0
 0022016,-0.00053280,-0.00000553,-0.00000399,-0.00000439,-0.00000411,0.
 00000616,-0.00000949,-0.00001098,0.00000147,-0.00000885,0.00314379,0.0
 0494936,-0.00189717,0.00207413,-0.01274762,0.00675802,-0.01417360,-0.0
 4237423,0.03096747\\0.00000121,-0.00000156,-0.00000005,-0.00000377,-0.
 00000390,-0.00000714,-0.00000244,0.00000733,0.00000377,0.,-0.00001272,
 -0.00001085,0.00000290,0.00000907,0.00001081,0.00000270,0.00000907,0.0
 0001040,-0.00000553,-0.00000024,-0.00000579,-0.00000877,-0.00000247,-0
 .00001098,0.00000300,-0.00000515,-0.00000139,0.00000629,-0.00000294,0.
 00000384,-0.00000393,0.00001090,0.00000535,-0.00000745,0.00000885,0.00
 000001,0.00000491,-0.00001417,-0.00000714,0.00000171,-0.00001645,-0.00
 001232,-0.00000367,-0.00001429,-0.00001591,0.00000743,0.00001073,0.000
 01664,0.00000670,0.00001010,0.00001539,-0.00000129,0.00000783,0.000005
 37\\\@


 TERENCE, THIS IS STUPID STUFF:
 YOU EAT YOUR VICTUALS FAST ENOUGH;
 THERE CAN'T BE MUCH AMISS, 'TIS CLEAR
 TO SEE THE RATE YOU DRINK YOUR BEER.
 BUT OH, GOOD LORD, THE VERSE YOU MAKE,
 IT GIVES A CHAP THE BELLY-ACHE.
 THE COW, THE OLD COW, SHE IS DEAD;
 IT SLEEPS WELL, THE HORNED HEAD:
 WE POOR LADS, 'TIS OUR TURN NOW
 TO HEAR SUCH TUNES AS KILLED THE COW.
 PRETTY FRIENDSHIP 'TIS TO RHYME
 YOUR FRIENDS TO DEATH BEFORE THEIR TIME.
 MOPING, MELANCHOLY MAD:
 COME PIPE A TUNE TO DANCE TO, LAD.

     -- A. E. HOUSMAN
 Job cpu time:  0 days  6 hours  1 minutes 14.0 seconds.
 File lengths (MBytes):  RWF=   2640 Int=      0 D2E=      0 Chk=     32 Scr=     32
 Normal termination of Gaussian 09 at Wed Mar 15 00:29:21 2017.
