 Entering Gaussian System, Link 0=/shared/apps/gaussian/G09_LINUX_LINDA/g09/g09
 Input=/gss_gpfs_scratch/harms.n/QMscratch/AHZKOHHBQMSKLP-UHFFFAOYSA-u1.gjf
 Output=/gss_gpfs_scratch/harms.n/QMscratch/AHZKOHHBQMSKLP-UHFFFAOYSA-u1.log
 Initial command:
 /shared/apps/gaussian/G09_LINUX_LINDA/g09/l1.exe /gss_gpfs_scratch/harms.n/comparerTST/Gau-28069.inp -scrdir=/gss_gpfs_scratch/harms.n/comparerTST/
 Entering Link 1 = /shared/apps/gaussian/G09_LINUX_LINDA/g09/l1.exe PID=     28070.
  
 Copyright (c) 1988,1990,1992,1993,1995,1998,2003,2009,2010,
            Gaussian, Inc.  All Rights Reserved.
  
 This is part of the Gaussian(R) 09 program.  It is based on
 the Gaussian(R) 03 system (copyright 2003, Gaussian, Inc.),
 the Gaussian(R) 98 system (copyright 1998, Gaussian, Inc.),
 the Gaussian(R) 94 system (copyright 1995, Gaussian, Inc.),
 the Gaussian 92(TM) system (copyright 1992, Gaussian, Inc.),
 the Gaussian 90(TM) system (copyright 1990, Gaussian, Inc.),
 the Gaussian 88(TM) system (copyright 1988, Gaussian, Inc.),
 the Gaussian 86(TM) system (copyright 1986, Carnegie Mellon
 University), and the Gaussian 82(TM) system (copyright 1983,
 Carnegie Mellon University). Gaussian is a federally registered
 trademark of Gaussian, Inc.
  
 This software contains proprietary and confidential information,
 including trade secrets, belonging to Gaussian, Inc.
  
 This software is provided under written license and may be
 used, copied, transmitted, or stored only in accord with that
 written license.
  
 The following legend is applicable only to US Government
 contracts under FAR:
  
                    RESTRICTED RIGHTS LEGEND
  
 Use, reproduction and disclosure by the US Government is
 subject to restrictions as set forth in subparagraphs (a)
 and (c) of the Commercial Computer Software - Restricted
 Rights clause in FAR 52.227-19.
  
 Gaussian, Inc.
 340 Quinnipiac St., Bldg. 40, Wallingford CT 06492
  
  
 ---------------------------------------------------------------
 Warning -- This program may not be used in any manner that
 competes with the business of Gaussian, Inc. or will provide
 assistance to any competitor of Gaussian, Inc.  The licensee
 of this program is prohibited from giving any competitor of
 Gaussian, Inc. access to this program.  By using this program,
 the user acknowledges that Gaussian, Inc. is engaged in the
 business of creating and licensing software in the field of
 computational chemistry and represents and warrants to the
 licensee that it is not a competitor of Gaussian, Inc. and that
 it will not use this program in any manner prohibited above.
 ---------------------------------------------------------------
  

 Cite this work as:
 Gaussian 09, Revision B.01,
 M. J. Frisch, G. W. Trucks, H. B. Schlegel, G. E. Scuseria, 
 M. A. Robb, J. R. Cheeseman, G. Scalmani, V. Barone, B. Mennucci, 
 G. A. Petersson, H. Nakatsuji, M. Caricato, X. Li, H. P. Hratchian, 
 A. F. Izmaylov, J. Bloino, G. Zheng, J. L. Sonnenberg, M. Hada, 
 M. Ehara, K. Toyota, R. Fukuda, J. Hasegawa, M. Ishida, T. Nakajima, 
 Y. Honda, O. Kitao, H. Nakai, T. Vreven, J. A. Montgomery, Jr., 
 J. E. Peralta, F. Ogliaro, M. Bearpark, J. J. Heyd, E. Brothers, 
 K. N. Kudin, V. N. Staroverov, T. Keith, R. Kobayashi, J. Normand, 
 K. Raghavachari, A. Rendell, J. C. Burant, S. S. Iyengar, J. Tomasi, 
 M. Cossi, N. Rega, J. M. Millam, M. Klene, J. E. Knox, J. B. Cross, 
 V. Bakken, C. Adamo, J. Jaramillo, R. Gomperts, R. E. Stratmann, 
 O. Yazyev, A. J. Austin, R. Cammi, C. Pomelli, J. W. Ochterski, 
 R. L. Martin, K. Morokuma, V. G. Zakrzewski, G. A. Voth, 
 P. Salvador, J. J. Dannenberg, S. Dapprich, A. D. Daniels, 
 O. Farkas, J. B. Foresman, J. V. Ortiz, J. Cioslowski, 
 and D. J. Fox, Gaussian, Inc., Wallingford CT, 2010.
 
 ******************************************
 Gaussian 09:  EM64L-G09RevB.01 12-Aug-2010
                 1-Aug-2017 
 ******************************************
 %nprocshared=20
 Will use up to   20 processors via shared memory.
 %mem=5GB
 --------------------------------------------------------------
 # m062x/6-311+g(2df,2p) opt=(verytight,gdiis) freq IOP(2/16=3)
 --------------------------------------------------------------

 Warning!  Use of Opt=GDIIS is deprecated since it is seldom a good choice.

 1/7=1,14=-1,18=20,19=11,26=3,38=1/1,3;
 2/9=110,12=2,16=3,17=6,18=5,40=1/2;
 3/5=4,6=6,7=214,11=2,16=1,25=1,30=1,71=1,74=-55/1,2,3;
 4//1;
 5/5=2,38=5/2;
 6/7=2,8=2,9=2,10=2,28=1/1;
 7//1,2,3,16;
 1/7=1,14=-1,18=20,19=11/3(2);
 2/9=110,16=3/2;
 99//99;
 2/9=110,16=3/2;
 3/5=4,6=6,7=214,11=2,16=1,25=1,30=1,71=1,74=-55/1,2,3;
 4/5=5,16=3/1;
 5/5=2,38=5/2;
 7//1,2,3,16;
 1/7=1,14=-1,18=20,19=11/3(-5);
 2/9=110,16=3/2;
 6/7=2,8=2,9=2,10=2,19=2,28=1/1;
 99/9=1/99;
 -------------------------------------
 InChI=1S/C4H5/c1-3-4-2/h1,3-4H,2H2/u1
 -------------------------------------
 Symbolic Z-matrix:
 Charge =  0 Multiplicity = 2
 C                    -0.2557   -0.546    -0.2604 
 C                     0.6947    0.333     0.4326 
 C                    -1.4571   -0.1085   -0.6258 
 C                     1.8882   -0.123     0.7885 
 H                     0.021    -1.5707   -0.4809 
 H                     0.4284    1.3592    0.658 
 H                    -1.7695    0.9086   -0.423 
 H                    -2.1425   -0.773    -1.1357 
 H                     2.5926    0.5203    1.2995 
 

 GradGradGradGradGradGradGradGradGradGradGradGradGradGradGradGradGradGrad
 Berny optimization.
 Initialization pass.
                           ----------------------------
                           !    Initial Parameters    !
                           ! (Angstroms and Degrees)  !
 --------------------------                            --------------------------
 ! Name  Definition              Value          Derivative Info.                !
 --------------------------------------------------------------------------------
 ! R1    R(1,2)                  1.4684         estimate D2E/DX2                !
 ! R2    R(1,3)                  1.3298         estimate D2E/DX2                !
 ! R3    R(1,5)                  1.0841         estimate D2E/DX2                !
 ! R4    R(2,4)                  1.3263         estimate D2E/DX2                !
 ! R5    R(2,6)                  1.0839         estimate D2E/DX2                !
 ! R6    R(3,7)                  1.0832         estimate D2E/DX2                !
 ! R7    R(3,8)                  1.0823         estimate D2E/DX2                !
 ! R8    R(4,9)                  1.0822         estimate D2E/DX2                !
 ! A1    A(2,1,3)              121.1645         estimate D2E/DX2                !
 ! A2    A(2,1,5)              119.7771         estimate D2E/DX2                !
 ! A3    A(3,1,5)              119.0584         estimate D2E/DX2                !
 ! A4    A(1,2,4)              120.2165         estimate D2E/DX2                !
 ! A5    A(1,2,6)              120.3899         estimate D2E/DX2                !
 ! A6    A(4,2,6)              119.3936         estimate D2E/DX2                !
 ! A7    A(1,3,7)              121.2028         estimate D2E/DX2                !
 ! A8    A(1,3,8)              119.9746         estimate D2E/DX2                !
 ! A9    A(7,3,8)              118.8226         estimate D2E/DX2                !
 ! A10   A(2,4,9)              120.5349         estimate D2E/DX2                !
 ! D1    D(3,1,2,4)           -179.9978         estimate D2E/DX2                !
 ! D2    D(3,1,2,6)              0.0005         estimate D2E/DX2                !
 ! D3    D(5,1,2,4)              0.0013         estimate D2E/DX2                !
 ! D4    D(5,1,2,6)            179.9997         estimate D2E/DX2                !
 ! D5    D(2,1,3,7)              0.0019         estimate D2E/DX2                !
 ! D6    D(2,1,3,8)            179.9977         estimate D2E/DX2                !
 ! D7    D(5,1,3,7)           -179.9973         estimate D2E/DX2                !
 ! D8    D(5,1,3,8)             -0.0015         estimate D2E/DX2                !
 ! D9    D(1,2,4,9)           -179.9961         estimate D2E/DX2                !
 ! D10   D(6,2,4,9)              0.0056         estimate D2E/DX2                !
 --------------------------------------------------------------------------------
 Trust Radius=3.00D-01 FncErr=1.00D-07 GrdErr=1.00D-06
 Number of steps in this run=     38 maximum allowed number of steps=    100.
 GradGradGradGradGradGradGradGradGradGradGradGradGradGradGradGradGradGrad

                          Input orientation:                          
 ---------------------------------------------------------------------
 Center     Atomic      Atomic             Coordinates (Angstroms)
 Number     Number       Type             X           Y           Z
 ---------------------------------------------------------------------
      1          6           0       -0.255700   -0.546000   -0.260400
      2          6           0        0.694700    0.333000    0.432600
      3          6           0       -1.457100   -0.108500   -0.625800
      4          6           0        1.888200   -0.123000    0.788500
      5          1           0        0.021000   -1.570700   -0.480900
      6          1           0        0.428400    1.359200    0.658000
      7          1           0       -1.769500    0.908600   -0.423000
      8          1           0       -2.142500   -0.773000   -1.135700
      9          1           0        2.592600    0.520300    1.299500
 ---------------------------------------------------------------------
                    Distance matrix (angstroms):
                    1          2          3          4          5
     1  C    0.000000
     2  C    1.468384   0.000000
     3  C    1.329769   2.438314   0.000000
     4  C    2.423928   1.326289   3.632009   0.000000
     5  H    1.084063   2.216400   2.084180   2.682098   0.000000
     6  H    2.222890   1.083885   2.712452   2.084458   3.169761
     7  H    2.105680   2.671263   1.083150   3.988822   3.058786
     8  H    2.092294   3.425274   1.082281   4.513490   2.397044
     9  H    3.418055   2.094904   4.527940   1.082190   3.762344
                    6          7          8          9
     6  H    0.000000
     7  H    2.490455   0.000000
     8  H    3.791196   1.864095   0.000000
     9  H    2.408119   4.705922   5.479416   0.000000
 Stoichiometry    C4H5(2)
 Framework group  C1[X(C4H5)]
 Deg. of freedom    21
 Full point group                 C1      NOp   1
 Largest Abelian subgroup         C1      NOp   1
 Largest concise Abelian subgroup C1      NOp   1
                         Standard orientation:                         
 ---------------------------------------------------------------------
 Center     Atomic      Atomic             Coordinates (Angstroms)
 Number     Number       Type             X           Y           Z
 ---------------------------------------------------------------------
      1          6           0        0.550844   -0.433952   -0.000013
      2          6           0       -0.686594    0.356553   -0.000010
      3          6           0        1.743333    0.154482   -0.000002
      4          6           0       -1.866090   -0.249940    0.000022
      5          1           0        0.497995   -1.516727   -0.000010
      6          1           0       -0.645335    1.439653   -0.000007
      7          1           0        1.836582    1.233611    0.000039
      8          1           0        2.643097   -0.446979    0.000033
      9          1           0       -2.781297    0.327581   -0.000040
 ---------------------------------------------------------------------
 Rotational constants (GHZ):     45.8217909      4.7480212      4.3022275
 Standard basis: 6-311+G(2df,2p) (5D, 7F)
 There are   181 symmetry adapted basis functions of A   symmetry.
 Integral buffers will be    131072 words long.
 Raffenetti 2 integral format.
 Two-electron integral symmetry is turned on.
   181 basis functions,   263 primitive gaussians,   201 cartesian basis functions
    15 alpha electrons       14 beta electrons
       nuclear repulsion energy        97.0519686313 Hartrees.
 NAtoms=    9 NActive=    9 NUniq=    9 SFac= 1.00D+00 NAtFMM=   50 NAOKFM=F Big=F
 One-electron integrals computed using PRISM.
 NBasis=   181 RedAO= T  NBF=   181
 NBsUse=   181 1.00D-06 NBFU=   181
 Harris functional with IExCor= 1009 diagonalized for initial guess.
 ExpMin= 4.38D-02 ExpMax= 4.56D+03 ExpMxC= 6.82D+02 IAcc=2 IRadAn=         0 AccDes= 0.00D+00
 HarFok:  IExCor= 1009 AccDes= 0.00D+00 IRadAn=         0 IDoV= 1
 ScaDFX=  1.000000  1.000000  1.000000  1.000000
 FoFCou: FMM=F IPFlag=           0 FMFlag=      100000 FMFlg1=           0
         NFxFlg=           0 DoJE=T BraDBF=F KetDBF=T FulRan=T
         Omega=  0.000000  0.000000  1.000000  0.000000  0.000000 ICntrl=     500 IOpCl=  0
         NMat0=    1 NMatS0=    1 NMatT0=    0 NMatD0=    1 NMtDS0=    0 NMtDT0=    0
         I1Cent=           4 NGrid=           0.
 Petite list used in FoFCou.
 Initial guess orbital symmetries:
 Alpha Orbitals:
       Occupied  (A) (A) (A) (A) (A) (A) (A) (A) (A) (A) (A) (A)
                 (A) (A) (A)
       Virtual   (A) (A) (A) (A) (A) (A) (A) (A) (A) (A) (A) (A)
                 (A) (A) (A) (A) (A) (A) (A) (A) (A) (A) (A) (A)
                 (A) (A) (A) (A) (A) (A) (A) (A) (A) (A) (A) (A)
                 (A) (A) (A) (A) (A) (A) (A) (A) (A) (A) (A) (A)
                 (A) (A) (A) (A) (A) (A) (A) (A) (A) (A) (A) (A)
                 (A) (A) (A) (A) (A) (A) (A) (A) (A) (A) (A) (A)
                 (A) (A) (A) (A) (A) (A) (A) (A) (A) (A) (A) (A)
                 (A) (A) (A) (A) (A) (A) (A) (A) (A) (A) (A) (A)
                 (A) (A) (A) (A) (A) (A) (A) (A) (A) (A) (A) (A)
                 (A) (A) (A) (A) (A) (A) (A) (A) (A) (A) (A) (A)
                 (A) (A) (A) (A) (A) (A) (A) (A) (A) (A) (A) (A)
                 (A) (A) (A) (A) (A) (A) (A) (A) (A) (A) (A) (A)
                 (A) (A) (A) (A) (A) (A) (A) (A) (A) (A) (A) (A)
                 (A) (A) (A) (A) (A) (A) (A) (A) (A) (A)
 Beta  Orbitals:
       Occupied  (A) (A) (A) (A) (A) (A) (A) (A) (A) (A) (A) (A)
                 (A) (A)
       Virtual   (A) (A) (A) (A) (A) (A) (A) (A) (A) (A) (A) (A)
                 (A) (A) (A) (A) (A) (A) (A) (A) (A) (A) (A) (A)
                 (A) (A) (A) (A) (A) (A) (A) (A) (A) (A) (A) (A)
                 (A) (A) (A) (A) (A) (A) (A) (A) (A) (A) (A) (A)
                 (A) (A) (A) (A) (A) (A) (A) (A) (A) (A) (A) (A)
                 (A) (A) (A) (A) (A) (A) (A) (A) (A) (A) (A) (A)
                 (A) (A) (A) (A) (A) (A) (A) (A) (A) (A) (A) (A)
                 (A) (A) (A) (A) (A) (A) (A) (A) (A) (A) (A) (A)
                 (A) (A) (A) (A) (A) (A) (A) (A) (A) (A) (A) (A)
                 (A) (A) (A) (A) (A) (A) (A) (A) (A) (A) (A) (A)
                 (A) (A) (A) (A) (A) (A) (A) (A) (A) (A) (A) (A)
                 (A) (A) (A) (A) (A) (A) (A) (A) (A) (A) (A) (A)
                 (A) (A) (A) (A) (A) (A) (A) (A) (A) (A) (A) (A)
                 (A) (A) (A) (A) (A) (A) (A) (A) (A) (A) (A)
 The electronic state of the initial guess is 2-A.
 Initial guess <Sx>= 0.0000 <Sy>= 0.0000 <Sz>= 0.5000 <S**2>= 0.7500 S= 0.5000
 Requested convergence on RMS density matrix=1.00D-08 within 128 cycles.
 Requested convergence on MAX density matrix=1.00D-06.
 Requested convergence on             energy=1.00D-06.
 No special actions if energy rises.
 Keep R1 and R2 ints in memory in canonical form, NReq=416494248.
 SCF Done:  E(UM062X) =  -155.270874917     A.U. after   16 cycles
             Convg  =    0.4675D-08             -V/T =  2.0042
 <Sx>= 0.0000 <Sy>= 0.0000 <Sz>= 0.5000 <S**2>= 0.7720 S= 0.5109
 <L.S>= 0.000000000000E+00
 Annihilation of the first spin contaminant:
 S**2 before annihilation     0.7720,   after     0.7501

 **********************************************************************

            Population analysis using the SCF density.

 **********************************************************************

 Orbital symmetries:
 Alpha Orbitals:
       Occupied  (A) (A) (A) (A) (A) (A) (A) (A) (A) (A) (A) (A)
                 (A) (A) (A)
       Virtual   (A) (A) (A) (A) (A) (A) (A) (A) (A) (A) (A) (A)
                 (A) (A) (A) (A) (A) (A) (A) (A) (A) (A) (A) (A)
                 (A) (A) (A) (A) (A) (A) (A) (A) (A) (A) (A) (A)
                 (A) (A) (A) (A) (A) (A) (A) (A) (A) (A) (A) (A)
                 (A) (A) (A) (A) (A) (A) (A) (A) (A) (A) (A) (A)
                 (A) (A) (A) (A) (A) (A) (A) (A) (A) (A) (A) (A)
                 (A) (A) (A) (A) (A) (A) (A) (A) (A) (A) (A) (A)
                 (A) (A) (A) (A) (A) (A) (A) (A) (A) (A) (A) (A)
                 (A) (A) (A) (A) (A) (A) (A) (A) (A) (A) (A) (A)
                 (A) (A) (A) (A) (A) (A) (A) (A) (A) (A) (A) (A)
                 (A) (A) (A) (A) (A) (A) (A) (A) (A) (A) (A) (A)
                 (A) (A) (A) (A) (A) (A) (A) (A) (A) (A) (A) (A)
                 (A) (A) (A) (A) (A) (A) (A) (A) (A) (A) (A) (A)
                 (A) (A) (A) (A) (A) (A) (A) (A) (A) (A)
 Beta  Orbitals:
       Occupied  (A) (A) (A) (A) (A) (A) (A) (A) (A) (A) (A) (A)
                 (A) (A)
       Virtual   (A) (A) (A) (A) (A) (A) (A) (A) (A) (A) (A) (A)
                 (A) (A) (A) (A) (A) (A) (A) (A) (A) (A) (A) (A)
                 (A) (A) (A) (A) (A) (A) (A) (A) (A) (A) (A) (A)
                 (A) (A) (A) (A) (A) (A) (A) (A) (A) (A) (A) (A)
                 (A) (A) (A) (A) (A) (A) (A) (A) (A) (A) (A) (A)
                 (A) (A) (A) (A) (A) (A) (A) (A) (A) (A) (A) (A)
                 (A) (A) (A) (A) (A) (A) (A) (A) (A) (A) (A) (A)
                 (A) (A) (A) (A) (A) (A) (A) (A) (A) (A) (A) (A)
                 (A) (A) (A) (A) (A) (A) (A) (A) (A) (A) (A) (A)
                 (A) (A) (A) (A) (A) (A) (A) (A) (A) (A) (A) (A)
                 (A) (A) (A) (A) (A) (A) (A) (A) (A) (A) (A) (A)
                 (A) (A) (A) (A) (A) (A) (A) (A) (A) (A) (A) (A)
                 (A) (A) (A) (A) (A) (A) (A) (A) (A) (A) (A) (A)
                 (A) (A) (A) (A) (A) (A) (A) (A) (A) (A) (A)
 The electronic state is 2-A.
 Alpha  occ. eigenvalues --  -10.57075 -10.55290 -10.54981 -10.53650  -0.91817
 Alpha  occ. eigenvalues --   -0.83857  -0.68562  -0.63060  -0.54879  -0.52670
 Alpha  occ. eigenvalues --   -0.46186  -0.42935  -0.40179  -0.33200  -0.30330
 Alpha virt. eigenvalues --   -0.00485   0.01952   0.02933   0.03712   0.05446
 Alpha virt. eigenvalues --    0.05892   0.06711   0.07252   0.09938   0.10123
 Alpha virt. eigenvalues --    0.10623   0.10903   0.14368   0.15620   0.15715
 Alpha virt. eigenvalues --    0.16444   0.19415   0.19813   0.21292   0.21901
 Alpha virt. eigenvalues --    0.22829   0.25612   0.27774   0.34581   0.35657
 Alpha virt. eigenvalues --    0.39673   0.43160   0.46605   0.51680   0.54043
 Alpha virt. eigenvalues --    0.54641   0.55423   0.55913   0.56157   0.58581
 Alpha virt. eigenvalues --    0.58880   0.59207   0.61030   0.63610   0.65898
 Alpha virt. eigenvalues --    0.66238   0.66356   0.68947   0.70625   0.72072
 Alpha virt. eigenvalues --    0.75206   0.75281   0.77278   0.78815   0.80704
 Alpha virt. eigenvalues --    0.81570   0.85907   0.93497   0.97182   0.99366
 Alpha virt. eigenvalues --    1.01136   1.04234   1.04687   1.06728   1.07499
 Alpha virt. eigenvalues --    1.14172   1.20029   1.22546   1.24073   1.24938
 Alpha virt. eigenvalues --    1.26069   1.27947   1.34090   1.40118   1.41417
 Alpha virt. eigenvalues --    1.42359   1.45847   1.46644   1.49275   1.50637
 Alpha virt. eigenvalues --    1.54520   1.54927   1.64634   1.68842   1.78318
 Alpha virt. eigenvalues --    1.84164   1.94612   2.41121   2.45199   2.52738
 Alpha virt. eigenvalues --    2.55685   2.59040   2.61868   2.64912   2.71270
 Alpha virt. eigenvalues --    2.73967   2.75898   2.76309   2.77156   2.78468
 Alpha virt. eigenvalues --    2.79359   2.84820   2.85669   2.90766   2.91634
 Alpha virt. eigenvalues --    2.92022   2.95160   2.99626   3.02892   3.05641
 Alpha virt. eigenvalues --    3.10958   3.11795   3.13768   3.18371   3.21005
 Alpha virt. eigenvalues --    3.21948   3.23410   3.25418   3.27321   3.28717
 Alpha virt. eigenvalues --    3.30780   3.30926   3.34670   3.36380   3.36717
 Alpha virt. eigenvalues --    3.43322   3.44258   3.46392   3.49613   3.50154
 Alpha virt. eigenvalues --    3.53437   3.64424   3.71245   3.73467   3.75465
 Alpha virt. eigenvalues --    3.77753   3.78781   3.82527   3.93260   3.97655
 Alpha virt. eigenvalues --    4.01426   4.08807   4.09550   4.10166   4.13128
 Alpha virt. eigenvalues --    4.19253   4.27547   4.29254   4.37104   4.41266
 Alpha virt. eigenvalues --    4.41674   4.46538   4.50647   4.64974   4.67093
 Alpha virt. eigenvalues --    4.70525   4.73864   4.86067   4.94979   5.06158
 Alpha virt. eigenvalues --    5.15757   5.29558   5.47982   5.56457   5.71387
 Alpha virt. eigenvalues --    5.80452   5.96298  24.00511  24.16004  24.77013
 Alpha virt. eigenvalues --   24.94399
  Beta  occ. eigenvalues --  -10.56009 -10.55354 -10.54904 -10.53682  -0.91056
  Beta  occ. eigenvalues --   -0.82529  -0.67427  -0.61676  -0.53832  -0.51410
  Beta  occ. eigenvalues --   -0.45592  -0.42408  -0.39737  -0.29000
  Beta virt. eigenvalues --   -0.07017   0.00484   0.02077   0.02973   0.03906
  Beta virt. eigenvalues --    0.05270   0.05905   0.07309   0.07465   0.09023
  Beta virt. eigenvalues --    0.10217   0.10738   0.11700   0.14460   0.15575
  Beta virt. eigenvalues --    0.16132   0.16233   0.18590   0.19974   0.21509
  Beta virt. eigenvalues --    0.21884   0.22758   0.25441   0.27797   0.34004
  Beta virt. eigenvalues --    0.35401   0.40161   0.43232   0.46967   0.51607
  Beta virt. eigenvalues --    0.52303   0.54105   0.54847   0.55482   0.56214
  Beta virt. eigenvalues --    0.58441   0.58808   0.58980   0.62244   0.63575
  Beta virt. eigenvalues --    0.65538   0.66594   0.66609   0.69399   0.70677
  Beta virt. eigenvalues --    0.71801   0.75118   0.75902   0.77339   0.78335
  Beta virt. eigenvalues --    0.80924   0.81441   0.85261   0.93447   0.96836
  Beta virt. eigenvalues --    0.99437   1.01134   1.04282   1.04668   1.06754
  Beta virt. eigenvalues --    1.07566   1.13749   1.19176   1.22343   1.23398
  Beta virt. eigenvalues --    1.24599   1.25943   1.27628   1.33734   1.39862
  Beta virt. eigenvalues --    1.41486   1.42096   1.45871   1.46543   1.48731
  Beta virt. eigenvalues --    1.49931   1.54066   1.54844   1.62821   1.67703
  Beta virt. eigenvalues --    1.78259   1.84090   1.94564   2.42379   2.45365
  Beta virt. eigenvalues --    2.53076   2.56019   2.59100   2.62665   2.65115
  Beta virt. eigenvalues --    2.71235   2.74518   2.76070   2.76694   2.77167
  Beta virt. eigenvalues --    2.78694   2.80089   2.85638   2.86536   2.91030
  Beta virt. eigenvalues --    2.92660   2.92831   2.95891   3.01167   3.03780
  Beta virt. eigenvalues --    3.05197   3.11131   3.12511   3.14825   3.19017
  Beta virt. eigenvalues --    3.22216   3.23267   3.26010   3.27285   3.28607
  Beta virt. eigenvalues --    3.28919   3.31155   3.31245   3.35114   3.37565
  Beta virt. eigenvalues --    3.37814   3.43442   3.44056   3.49825   3.51564
  Beta virt. eigenvalues --    3.51853   3.53847   3.65240   3.71287   3.75716
  Beta virt. eigenvalues --    3.75720   3.77794   3.78698   3.83065   3.93377
  Beta virt. eigenvalues --    3.97754   4.02039   4.09056   4.09632   4.10957
  Beta virt. eigenvalues --    4.13414   4.18979   4.27700   4.29269   4.37075
  Beta virt. eigenvalues --    4.40839   4.42921   4.47052   4.50688   4.65258
  Beta virt. eigenvalues --    4.67682   4.70459   4.74411   4.86386   4.96235
  Beta virt. eigenvalues --    5.06553   5.17583   5.29982   5.47911   5.56697
  Beta virt. eigenvalues --    5.72022   5.82249   5.96589  24.01160  24.16060
  Beta virt. eigenvalues --   24.77513  24.94586
          Condensed to atoms (all electrons):
              1          2          3          4          5          6
     1  C    4.890464   0.222730   0.424504   0.070946   0.383314  -0.010253
     2  C    0.222730   4.880345   0.136945   0.460716  -0.010489   0.357367
     3  C    0.424504   0.136945   5.199716  -0.121395  -0.000146  -0.022811
     4  C    0.070946   0.460716  -0.121395   5.510476  -0.005531   0.034928
     5  H    0.383314  -0.010489  -0.000146  -0.005531   0.477758   0.002075
     6  H   -0.010253   0.357367  -0.022811   0.034928   0.002075   0.497317
     7  H    0.008946  -0.014694   0.370548   0.009491   0.003909   0.002353
     8  H   -0.020498   0.006519   0.396805   0.003006  -0.007865  -0.000137
     9  H    0.018450  -0.026179   0.004709   0.356092   0.000087  -0.009327
              7          8          9
     1  C    0.008946  -0.020498   0.018450
     2  C   -0.014694   0.006519  -0.026179
     3  C    0.370548   0.396805   0.004709
     4  C    0.009491   0.003006   0.356092
     5  H    0.003909  -0.007865   0.000087
     6  H    0.002353  -0.000137  -0.009327
     7  H    0.514421  -0.020920  -0.000005
     8  H   -0.020920   0.508217   0.000013
     9  H   -0.000005   0.000013   0.512882
 Mulliken atomic charges:
              1
     1  C    0.011397
     2  C   -0.013259
     3  C   -0.388875
     4  C   -0.318730
     5  H    0.156889
     6  H    0.148488
     7  H    0.125952
     8  H    0.134860
     9  H    0.143277
 Sum of Mulliken atomic charges =   0.00000
 Mulliken charges with hydrogens summed into heavy atoms:
              1
     1  C    0.168286
     2  C    0.135229
     3  C   -0.128063
     4  C   -0.175453
 Sum of Mulliken charges with hydrogens summed into heavy atoms =   0.00000
          Atomic-Atomic Spin Densities.
              1          2          3          4          5          6
     1  C    0.167653  -0.034320  -0.033244  -0.033027   0.004357  -0.026021
     2  C   -0.034320  -0.056978   0.019998  -0.053544   0.010035   0.024939
     3  C   -0.033244   0.019998  -0.044340  -0.006568  -0.010437   0.000911
     4  C   -0.033027  -0.053544  -0.006568   1.169251  -0.001283  -0.003741
     5  H    0.004357   0.010035  -0.010437  -0.001283  -0.015587   0.000151
     6  H   -0.026021   0.024939   0.000911  -0.003741   0.000151   0.057122
     7  H    0.003049   0.003327  -0.003040  -0.001987  -0.000402   0.000063
     8  H   -0.001692  -0.000884   0.001971   0.000034   0.000450  -0.000061
     9  H    0.012065   0.001923  -0.000172  -0.022504  -0.000199  -0.005479
              7          8          9
     1  C    0.003049  -0.001692   0.012065
     2  C    0.003327  -0.000884   0.001923
     3  C   -0.003040   0.001971  -0.000172
     4  C   -0.001987   0.000034  -0.022504
     5  H   -0.000402   0.000450  -0.000199
     6  H    0.000063  -0.000061  -0.005479
     7  H   -0.000494   0.000487  -0.000015
     8  H    0.000487   0.003833   0.000003
     9  H   -0.000015   0.000003   0.029250
 Mulliken atomic spin densities:
              1
     1  C    0.058821
     2  C   -0.085504
     3  C   -0.074921
     4  C    1.046631
     5  H   -0.012914
     6  H    0.047885
     7  H    0.000988
     8  H    0.004141
     9  H    0.014873
 Sum of Mulliken atomic spin densities =   1.00000
 Electronic spatial extent (au):  <R**2>=            309.3643
 Charge=              0.0000 electrons
 Dipole moment (field-independent basis, Debye):
    X=              0.1241    Y=              0.6934    Z=              0.0000  Tot=              0.7044
 Quadrupole moment (field-independent basis, Debye-Ang):
   XX=            -22.9443   YY=            -22.9146   ZZ=            -28.5000
   XY=             -1.5920   XZ=              0.0003   YZ=              0.0000
 Traceless Quadrupole moment (field-independent basis, Debye-Ang):
   XX=              1.8420   YY=              1.8717   ZZ=             -3.7137
   XY=             -1.5920   XZ=              0.0003   YZ=              0.0000
 Octapole moment (field-independent basis, Debye-Ang**2):
  XXX=              0.1916  YYY=              2.4903  ZZZ=              0.0000  XYY=              2.4441
  XXY=              3.3074  XXZ=             -0.0001  XZZ=              0.4771  YZZ=              0.3789
  YYZ=              0.0000  XYZ=              0.0001
 Hexadecapole moment (field-independent basis, Debye-Ang**3):
 XXXX=           -317.1887 YYYY=            -60.8247 ZZZZ=            -35.6042 XXXY=            -14.9099
 XXXZ=              0.0028 YYYX=             -4.0926 YYYZ=              0.0002 ZZZX=              0.0005
 ZZZY=              0.0001 XXYY=            -68.0619 XXZZ=            -72.1022 YYZZ=            -18.1080
 XXYZ=              0.0000 YYXZ=              0.0004 ZZXY=             -0.5037
 N-N= 9.705196863130D+01 E-N=-8.257916408149D+02  KE= 2.312329800132D+02
                          Isotropic Fermi Contact Couplings
        Atom                 a.u.       MegaHertz       Gauss      10(-4) cm-1
     1  C(13)              0.04899      55.07510      19.65216      18.37108
     2  C(13)             -0.00552      -6.20073      -2.21257      -2.06834
     3  C(13)             -0.00712      -8.00699      -2.85709      -2.67084
     4  C(13)              0.52144     586.19361     209.16845     195.53314
     5  H(1)              -0.00083      -3.69970      -1.32015      -1.23409
     6  H(1)               0.02563     114.55805      40.87716      38.21245
     7  H(1)               0.00086       3.83357       1.36791       1.27874
     8  H(1)               0.00087       3.88670       1.38687       1.29646
     9  H(1)               0.01832      81.87948      29.21664      27.31206
 --------------------------------------------------------
       Center         ----  Spin Dipole Couplings  ----
                      3XX-RR        3YY-RR        3ZZ-RR
 --------------------------------------------------------
     1   Atom        0.027295     -0.033079      0.005784
     2   Atom        0.104617      0.070228     -0.174845
     3   Atom        0.037537      0.028020     -0.065557
     4   Atom       -0.561720      0.879313     -0.317593
     5   Atom        0.010776     -0.001131     -0.009645
     6   Atom        0.007863      0.003412     -0.011275
     7   Atom        0.007158     -0.004828     -0.002331
     8   Atom        0.001994     -0.000193     -0.001801
     9   Atom        0.053341      0.001338     -0.054679
 --------------------------------------------------------
                        XY            XZ            YZ
 --------------------------------------------------------
     1   Atom       -0.007669      0.000000      0.000000
     2   Atom        0.059910     -0.000013     -0.000011
     3   Atom        0.006031      0.000001      0.000000
     4   Atom        0.066317     -0.000005      0.000001
     5   Atom       -0.008186      0.000000      0.000000
     6   Atom        0.010045     -0.000001      0.000000
     7   Atom        0.001512      0.000000      0.000000
     8   Atom        0.004006      0.000000      0.000000
     9   Atom       -0.049245      0.000007     -0.000003
 --------------------------------------------------------


 ---------------------------------------------------------------------------------
              Anisotropic Spin Dipole Couplings in Principal Axis System
 ---------------------------------------------------------------------------------

       Atom             a.u.   MegaHertz   Gauss  10(-4) cm-1        Axes

              Baa    -0.0340    -4.568    -1.630    -1.524  0.1241  0.9923  0.0000
     1 C(13)  Bbb     0.0058     0.776     0.277     0.259  0.0000  0.0000  1.0000
              Bcc     0.0283     3.791     1.353     1.265  0.9923 -0.1241  0.0000
 
              Baa    -0.1748   -23.463    -8.372    -7.826  0.0000  0.0000  1.0000
     2 C(13)  Bbb     0.0251     3.367     1.202     1.123 -0.6017  0.7987  0.0000
              Bcc     0.1498    20.095     7.170     6.703  0.7987  0.6017 -0.0001
 
              Baa    -0.0656    -8.797    -3.139    -2.934  0.0000  0.0000  1.0000
     3 C(13)  Bbb     0.0251     3.368     1.202     1.123 -0.4362  0.8998  0.0000
              Bcc     0.0405     5.429     1.937     1.811  0.8998  0.4362  0.0000
 
              Baa    -0.5648   -75.786   -27.042   -25.280  0.9989 -0.0459  0.0000
     4 C(13)  Bbb    -0.3176   -42.618   -15.207   -14.216  0.0000  0.0000  1.0000
              Bcc     0.8824   118.404    42.250    39.495  0.0459  0.9989  0.0000
 
              Baa    -0.0096    -5.146    -1.836    -1.717  0.0000  0.0000  1.0000
     5 H(1)   Bbb    -0.0053    -2.828    -1.009    -0.943  0.4538  0.8911  0.0000
              Bcc     0.0149     7.974     2.845     2.660  0.8911 -0.4538  0.0000
 
              Baa    -0.0113    -6.016    -2.147    -2.007  0.0001 -0.0001  1.0000
     6 H(1)   Bbb    -0.0047    -2.482    -0.886    -0.828 -0.6260  0.7798  0.0001
              Bcc     0.0159     8.498     3.032     2.834  0.7798  0.6260  0.0000
 
              Baa    -0.0050    -2.676    -0.955    -0.893 -0.1233  0.9924  0.0000
     7 H(1)   Bbb    -0.0023    -1.243    -0.444    -0.415  0.0000  0.0000  1.0000
              Bcc     0.0073     3.920     1.399     1.307  0.9924  0.1233  0.0000
 
              Baa    -0.0033    -1.735    -0.619    -0.579 -0.6069  0.7948 -0.0001
     8 H(1)   Bbb    -0.0018    -0.961    -0.343    -0.320 -0.0001  0.0001  1.0000
              Bcc     0.0051     2.696     0.962     0.899  0.7948  0.6069  0.0000
 
              Baa    -0.0547   -29.174   -10.410    -9.731 -0.0001  0.0000  1.0000
     9 H(1)   Bbb    -0.0283   -15.125    -5.397    -5.045  0.5163  0.8564  0.0001
              Bcc     0.0830    44.300    15.807    14.777  0.8564 -0.5163  0.0001
 

 ---------------------------------------------------------------------------------

 Calling FoFJK, ICntrl=      2127 FMM=F ISym2X=0 I1Cent= 0 IOpClX= 1 NMat=1 NMatS=1 NMatT=0.
 ***** Axes restored to original set *****
 -------------------------------------------------------------------
 Center     Atomic                   Forces (Hartrees/Bohr)
 Number     Number              X              Y              Z
 -------------------------------------------------------------------
      1        6          -0.009376162    0.015065356    0.000989325
      2        6           0.012259001   -0.036806056   -0.006938656
      3        6          -0.000958580   -0.005422764   -0.002199587
      4        6          -0.012954012    0.033227615    0.005466616
      5        1           0.004597335    0.001945618    0.002592531
      6        1          -0.002697087    0.001389894   -0.000684750
      7        1          -0.001111825   -0.000862438   -0.000753963
      8        1          -0.001855717    0.003037705    0.000216366
      9        1           0.012097046   -0.011574930    0.001312117
 -------------------------------------------------------------------
 Cartesian Forces:  Max     0.036806056 RMS     0.011457685

 GradGradGradGradGradGradGradGradGradGradGradGradGradGradGradGradGradGrad
 Berny optimization.
 Internal  Forces:  Max     0.034210859 RMS     0.008044134
 Search for a local minimum.
 Step number   1 out of a maximum of   38
 All quantities printed in internal units (Hartrees-Bohrs-Radians)
 Swaping is turned off.
 Second derivative matrix not updated -- first step.
 ITU=  0
     Eigenvalues ---    0.01184   0.01802   0.02094   0.03018   0.03018
     Eigenvalues ---    0.03064   0.16000   0.16000   0.16000   0.16000
     Eigenvalues ---    0.16000   0.22000   0.22000   0.35508   0.35529
     Eigenvalues ---    0.35616   0.35720   0.35731   0.35934   0.59560
     Eigenvalues ---    0.60391
 Angle between quadratic step and forces=  10.52 degrees.
 Linear search not attempted -- option 19 set.
 Iteration  1 RMS(Cart)=  0.06140493 RMS(Int)=  0.00528031
 Iteration  2 RMS(Cart)=  0.00610302 RMS(Int)=  0.00005136
 Iteration  3 RMS(Cart)=  0.00006729 RMS(Int)=  0.00000018
 Iteration  4 RMS(Cart)=  0.00000001 RMS(Int)=  0.00000018
 Variable       Old X    -DE/DX   Delta X   Delta X   Delta X     New X
                                 (Linear)    (Quad)   (Total)
    R1        2.77484  -0.00301   0.00000  -0.00839  -0.00839   2.76645
    R2        2.51290   0.00324   0.00000   0.00544   0.00544   2.51834
    R3        2.04858  -0.00120   0.00000  -0.00337  -0.00337   2.04522
    R4        2.50632  -0.00639   0.00000  -0.01058  -0.01058   2.49575
    R5        2.04825   0.00183   0.00000   0.00516   0.00516   2.05340
    R6        2.04686  -0.00062   0.00000  -0.00175  -0.00175   2.04511
    R7        2.04521  -0.00080   0.00000  -0.00223  -0.00223   2.04298
    R8        2.04504   0.00161   0.00000   0.00450   0.00450   2.04954
    A1        2.11472   0.00898   0.00000   0.04081   0.04081   2.15553
    A2        2.09051  -0.01011   0.00000  -0.05555  -0.05555   2.03496
    A3        2.07796   0.00113   0.00000   0.01474   0.01474   2.09270
    A4        2.09817   0.01527   0.00000   0.06940   0.06940   2.16758
    A5        2.10120  -0.01020   0.00000  -0.05073  -0.05073   2.05047
    A6        2.08381  -0.00507   0.00000  -0.01867  -0.01867   2.06514
    A7        2.11539  -0.00039   0.00000  -0.00241  -0.00241   2.11298
    A8        2.09395   0.00376   0.00000   0.02350   0.02350   2.11745
    A9        2.07385  -0.00337   0.00000  -0.02109  -0.02109   2.05275
   A10        2.10373   0.03421   0.00000   0.21382   0.21382   2.31755
    D1       -3.14156   0.00000   0.00000  -0.00004  -0.00004   3.14159
    D2        0.00001   0.00000   0.00000  -0.00002  -0.00002  -0.00001
    D3        0.00002   0.00000   0.00000  -0.00001  -0.00001   0.00002
    D4        3.14159   0.00000   0.00000   0.00002   0.00002  -3.14158
    D5        0.00003   0.00000   0.00000  -0.00004  -0.00004  -0.00001
    D6        3.14155   0.00000   0.00000   0.00007   0.00007  -3.14156
    D7       -3.14155   0.00000   0.00000  -0.00007  -0.00007   3.14157
    D8       -0.00003   0.00000   0.00000   0.00004   0.00004   0.00001
    D9       -3.14152   0.00000   0.00000  -0.00004  -0.00004  -3.14156
   D10        0.00010   0.00000   0.00000  -0.00006  -0.00006   0.00004
         Item               Value     Threshold  Converged?
 Maximum Force            0.034211     0.000002     NO 
 RMS     Force            0.008044     0.000001     NO 
 Maximum Displacement     0.216893     0.000006     NO 
 RMS     Displacement     0.063759     0.000004     NO 
 Predicted change in Energy=-5.112996D-03
 GradGradGradGradGradGradGradGradGradGradGradGradGradGradGradGradGradGrad

                          Input orientation:                          
 ---------------------------------------------------------------------
 Center     Atomic      Atomic             Coordinates (Angstroms)
 Number     Number       Type             X           Y           Z
 ---------------------------------------------------------------------
      1          6           0       -0.270895   -0.526338   -0.260392
      2          6           0        0.693032    0.331287    0.431314
      3          6           0       -1.481216   -0.116516   -0.638703
      4          6           0        1.895406   -0.060416    0.812229
      5          1           0        0.042325   -1.542394   -0.462527
      6          1           0        0.393446    1.354404    0.641573
      7          1           0       -1.813707    0.895206   -0.446146
      8          1           0       -2.165666   -0.780549   -1.147985
      9          1           0        2.707375    0.445216    1.323437
 ---------------------------------------------------------------------
                    Distance matrix (angstroms):
                    1          2          3          4          5
     1  C    0.000000
     2  C    1.463945   0.000000
     3  C    1.332648   2.464309   0.000000
     4  C    2.461800   1.320693   3.675585   0.000000
     5  H    1.082282   2.175558   2.094121   2.693542   0.000000
     6  H    2.189083   1.086614   2.705009   2.070441   3.119898
     7  H    2.106077   2.715084   1.082225   4.031655   3.063824
     8  H    2.107748   3.450003   1.081101   4.566546   2.434233
     9  H    3.510345   2.206001   4.659381   1.084569   3.773957
                    6          7          8          9
     6  H    0.000000
     7  H    2.503102   0.000000
     8  H    3.782803   1.850569   0.000000
     9  H    2.577950   4.875869   5.599728   0.000000
 Stoichiometry    C4H5(2)
 Framework group  C1[X(C4H5)]
 Deg. of freedom    21
 Full point group                 C1      NOp   1
 Largest Abelian subgroup         C1      NOp   1
 Largest concise Abelian subgroup C1      NOp   1
                         Standard orientation:                         
 ---------------------------------------------------------------------
 Center     Atomic      Atomic             Coordinates (Angstroms)
 Number     Number       Type             X           Y           Z
 ---------------------------------------------------------------------
      1          6           0       -0.561514   -0.422543   -0.000005
      2          6           0        0.689474    0.337827   -0.000001
      3          6           0       -1.767278    0.144981   -0.000002
      4          6           0        1.891109   -0.210173   -0.000003
      5          1           0       -0.472880   -1.501190    0.000008
      6          1           0        0.617295    1.422041   -0.000003
      7          1           0       -1.877765    1.221551    0.000008
      8          1           0       -2.669066   -0.451306    0.000022
      9          1           0        2.891672    0.208353    0.000026
 ---------------------------------------------------------------------
 Rotational constants (GHZ):     48.9235558      4.6102057      4.2131853
 Standard basis: 6-311+G(2df,2p) (5D, 7F)
 There are   181 symmetry adapted basis functions of A   symmetry.
 Integral buffers will be    131072 words long.
 Raffenetti 2 integral format.
 Two-electron integral symmetry is turned on.
   181 basis functions,   263 primitive gaussians,   201 cartesian basis functions
    15 alpha electrons       14 beta electrons
       nuclear repulsion energy        96.7076908395 Hartrees.
 NAtoms=    9 NActive=    9 NUniq=    9 SFac= 1.00D+00 NAtFMM=   50 NAOKFM=F Big=F
 One-electron integrals computed using PRISM.
 NBasis=   181 RedAO= T  NBF=   181
 NBsUse=   181 1.00D-06 NBFU=   181
 Initial guess read from the read-write file.
 B after Tr=     0.000000    0.000000    0.000000
         Rot=    1.000000    0.000000    0.000000    0.000000 Ang=   0.00 deg.
 Initial guess orbital symmetries:
 Alpha Orbitals:
       Occupied  (A) (A) (A) (A) (A) (A) (A) (A) (A) (A) (A) (A)
                 (A) (A) (A)
       Virtual   (A) (A) (A) (A) (A) (A) (A) (A) (A) (A) (A) (A)
                 (A) (A) (A) (A) (A) (A) (A) (A) (A) (A) (A) (A)
                 (A) (A) (A) (A) (A) (A) (A) (A) (A) (A) (A) (A)
                 (A) (A) (A) (A) (A) (A) (A) (A) (A) (A) (A) (A)
                 (A) (A) (A) (A) (A) (A) (A) (A) (A) (A) (A) (A)
                 (A) (A) (A) (A) (A) (A) (A) (A) (A) (A) (A) (A)
                 (A) (A) (A) (A) (A) (A) (A) (A) (A) (A) (A) (A)
                 (A) (A) (A) (A) (A) (A) (A) (A) (A) (A) (A) (A)
                 (A) (A) (A) (A) (A) (A) (A) (A) (A) (A) (A) (A)
                 (A) (A) (A) (A) (A) (A) (A) (A) (A) (A) (A) (A)
                 (A) (A) (A) (A) (A) (A) (A) (A) (A) (A) (A) (A)
                 (A) (A) (A) (A) (A) (A) (A) (A) (A) (A) (A) (A)
                 (A) (A) (A) (A) (A) (A) (A) (A) (A) (A) (A) (A)
                 (A) (A) (A) (A) (A) (A) (A) (A) (A) (A)
 Beta  Orbitals:
       Occupied  (A) (A) (A) (A) (A) (A) (A) (A) (A) (A) (A) (A)
                 (A) (A)
       Virtual   (A) (A) (A) (A) (A) (A) (A) (A) (A) (A) (A) (A)
                 (A) (A) (A) (A) (A) (A) (A) (A) (A) (A) (A) (A)
                 (A) (A) (A) (A) (A) (A) (A) (A) (A) (A) (A) (A)
                 (A) (A) (A) (A) (A) (A) (A) (A) (A) (A) (A) (A)
                 (A) (A) (A) (A) (A) (A) (A) (A) (A) (A) (A) (A)
                 (A) (A) (A) (A) (A) (A) (A) (A) (A) (A) (A) (A)
                 (A) (A) (A) (A) (A) (A) (A) (A) (A) (A) (A) (A)
                 (A) (A) (A) (A) (A) (A) (A) (A) (A) (A) (A) (A)
                 (A) (A) (A) (A) (A) (A) (A) (A) (A) (A) (A) (A)
                 (A) (A) (A) (A) (A) (A) (A) (A) (A) (A) (A) (A)
                 (A) (A) (A) (A) (A) (A) (A) (A) (A) (A) (A) (A)
                 (A) (A) (A) (A) (A) (A) (A) (A) (A) (A) (A) (A)
                 (A) (A) (A) (A) (A) (A) (A) (A) (A) (A) (A) (A)
                 (A) (A) (A) (A) (A) (A) (A) (A) (A) (A) (A)
 Initial guess <Sx>= 0.0000 <Sy>= 0.0000 <Sz>= 0.5000 <S**2>= 0.7981 S= 0.5238
 Harris functional with IExCor= 1009 diagonalized for initial guess.
 ExpMin= 4.38D-02 ExpMax= 4.56D+03 ExpMxC= 6.82D+02 IAcc=2 IRadAn=         0 AccDes= 0.00D+00
 HarFok:  IExCor= 1009 AccDes= 0.00D+00 IRadAn=         0 IDoV= 1
 ScaDFX=  1.000000  1.000000  1.000000  1.000000
 FoFCou: FMM=F IPFlag=           0 FMFlag=      100000 FMFlg1=           0
         NFxFlg=           0 DoJE=T BraDBF=F KetDBF=T FulRan=T
         Omega=  0.000000  0.000000  1.000000  0.000000  0.000000 ICntrl=     500 IOpCl=  0
         NMat0=    1 NMatS0=    1 NMatT0=    0 NMatD0=    1 NMtDS0=    0 NMtDT0=    0
         I1Cent=           4 NGrid=           0.
 Petite list used in FoFCou.
 Requested convergence on RMS density matrix=1.00D-08 within 128 cycles.
 Requested convergence on MAX density matrix=1.00D-06.
 Requested convergence on             energy=1.00D-06.
 No special actions if energy rises.
 Keep R1 and R2 ints in memory in canonical form, NReq=416494248.
 DSYEVD returned Info=         272 IAlg= 4 N=   181 NDim=   181 NE2=     1429456 trying DSYEV.
 SCF Done:  E(UM062X) =  -155.276565049     A.U. after   17 cycles
             Convg  =    0.3022D-08             -V/T =  2.0044
 <Sx>= 0.0000 <Sy>= 0.0000 <Sz>= 0.5000 <S**2>= 0.7721 S= 0.5110
 <L.S>= 0.000000000000E+00
 Annihilation of the first spin contaminant:
 S**2 before annihilation     0.7721,   after     0.7501
 Calling FoFJK, ICntrl=      2127 FMM=F ISym2X=0 I1Cent= 0 IOpClX= 1 NMat=1 NMatS=1 NMatT=0.
 ***** Axes restored to original set *****
 -------------------------------------------------------------------
 Center     Atomic                   Forces (Hartrees/Bohr)
 Number     Number              X              Y              Z
 -------------------------------------------------------------------
      1        6          -0.003644279    0.003592879   -0.000360479
      2        6           0.008817012   -0.009560401    0.000586508
      3        6           0.003972228   -0.001438205    0.001213048
      4        6          -0.006286788    0.009109466    0.000338442
      5        1           0.001061082   -0.000784272    0.000190856
      6        1          -0.001953909    0.002420938   -0.000030240
      7        1          -0.000493692    0.000388330   -0.000082252
      8        1           0.000063743    0.000512603    0.000195006
      9        1          -0.001535395   -0.004241339   -0.002050887
 -------------------------------------------------------------------
 Cartesian Forces:  Max     0.009560401 RMS     0.003724092

 GradGradGradGradGradGradGradGradGradGradGradGradGradGradGradGradGradGrad
 Berny optimization.
 Using GDIIS optimizer.
 Internal  Forces:  Max     0.009051049 RMS     0.002457945
 Search for a local minimum.
 Step number   2 out of a maximum of   38
 All quantities printed in internal units (Hartrees-Bohrs-Radians)
 Swaping is turned off.
 Update second derivatives using D2CorX and points    1    2
 DE= -5.69D-03 DEPred=-5.11D-03 R= 1.11D+00
 SS=  1.41D+00  RLast= 2.44D-01 DXNew= 5.0454D-01 7.3305D-01
 Trust test= 1.11D+00 RLast= 2.44D-01 DXMaxT set to 5.05D-01
 ITU=  1  0
     Eigenvalues ---    0.01184   0.01817   0.02129   0.03018   0.03018
     Eigenvalues ---    0.03064   0.13062   0.16000   0.16000   0.16000
     Eigenvalues ---    0.16092   0.21880   0.22409   0.35491   0.35543
     Eigenvalues ---    0.35619   0.35717   0.35878   0.36338   0.59662
     Eigenvalues ---    0.60819
 DIIS coeff's:      1.17369     -0.17369
 Cosine:  1.000 >  0.970
 Length:  1.000
 GDIIS step was calculated using  2 of the last  2 vectors.
 Iteration  1 RMS(Cart)=  0.01478648 RMS(Int)=  0.00033052
 Iteration  2 RMS(Cart)=  0.00034450 RMS(Int)=  0.00000005
 Iteration  3 RMS(Cart)=  0.00000006 RMS(Int)=  0.00000002
 Variable       Old X    -DE/DX   Delta X   Delta X   Delta X     New X
                                  (DIIS)     (GDIIS)  (Total)
    R1        2.76645  -0.00252  -0.00146  -0.00708  -0.00854   2.75792
    R2        2.51834  -0.00375   0.00094  -0.00813  -0.00719   2.51115
    R3        2.04522   0.00101  -0.00058   0.00378   0.00320   2.04842
    R4        2.49575  -0.00905  -0.00184  -0.01615  -0.01799   2.47776
    R5        2.05340   0.00281   0.00090   0.00858   0.00947   2.06287
    R6        2.04511   0.00051  -0.00030   0.00191   0.00160   2.04671
    R7        2.04298  -0.00045  -0.00039  -0.00118  -0.00157   2.04142
    R8        2.04954  -0.00410   0.00078  -0.01407  -0.01329   2.03625
    A1        2.15553  -0.00053   0.00709  -0.00838  -0.00129   2.15424
    A2        2.03496  -0.00062  -0.00965   0.00248  -0.00717   2.02779
    A3        2.09270   0.00115   0.00256   0.00590   0.00846   2.10115
    A4        2.16758   0.00103   0.01205  -0.00395   0.00810   2.17568
    A5        2.05047  -0.00188  -0.00881  -0.00582  -0.01463   2.03584
    A6        2.06514   0.00084  -0.00324   0.00977   0.00653   2.07167
    A7        2.11298   0.00030  -0.00042   0.00249   0.00208   2.11506
    A8        2.11745   0.00019   0.00408  -0.00178   0.00230   2.11975
    A9        2.05275  -0.00049  -0.00366  -0.00071  -0.00437   2.04838
   A10        2.31755   0.00575   0.03714   0.01300   0.05014   2.36769
    D1        3.14159   0.00000  -0.00001   0.00001   0.00000  -3.14159
    D2       -0.00001   0.00000   0.00000   0.00002   0.00001   0.00000
    D3        0.00002   0.00000   0.00000  -0.00002  -0.00002  -0.00001
    D4       -3.14158   0.00000   0.00000  -0.00002  -0.00002   3.14159
    D5       -0.00001   0.00000  -0.00001   0.00002   0.00001   0.00000
    D6       -3.14156   0.00000   0.00001  -0.00006  -0.00004   3.14158
    D7        3.14157   0.00000  -0.00001   0.00005   0.00004  -3.14158
    D8        0.00001   0.00000   0.00001  -0.00002  -0.00001  -0.00001
    D9       -3.14156   0.00000  -0.00001  -0.00001  -0.00002  -3.14158
   D10        0.00004   0.00000  -0.00001  -0.00002  -0.00003   0.00001
         Item               Value     Threshold  Converged?
 Maximum Force            0.009051     0.000002     NO 
 RMS     Force            0.002458     0.000001     NO 
 Maximum Displacement     0.046762     0.000006     NO 
 RMS     Displacement     0.014788     0.000004     NO 
 Predicted change in Energy=-3.222914D-04
 GradGradGradGradGradGradGradGradGradGradGradGradGradGradGradGradGradGrad

                          Input orientation:                          
 ---------------------------------------------------------------------
 Center     Atomic      Atomic             Coordinates (Angstroms)
 Number     Number       Type             X           Y           Z
 ---------------------------------------------------------------------
      1          6           0       -0.269270   -0.524655   -0.259129
      2          6           0        0.690126    0.332132    0.430366
      3          6           0       -1.476222   -0.116421   -0.636538
      4          6           0        1.886045   -0.045113    0.813309
      5          1           0        0.052844   -1.540489   -0.457436
      6          1           0        0.373472    1.356804    0.633898
      7          1           0       -1.811263    0.895562   -0.445001
      8          1           0       -2.161561   -0.778390   -1.145554
      9          1           0        2.715928    0.420471    1.318886
 ---------------------------------------------------------------------
                    Distance matrix (angstroms):
                    1          2          3          4          5
     1  C    0.000000
     2  C    1.459427   0.000000
     3  C    1.328844   2.456125   0.000000
     4  C    2.454683   1.311176   3.662237   0.000000
     5  H    1.083975   2.168186   2.097162   2.685437   0.000000
     6  H    2.179565   1.091626   2.684356   2.070130   3.112575
     7  H    2.104592   2.709367   1.083074   4.017251   3.067474
     8  H    2.104970   3.442224   1.080273   4.556090   2.440879
     9  H    3.506394   2.213853   4.656829   1.077535   3.754025
                    6          7          8          9
     6  H    0.000000
     7  H    2.479886   0.000000
     8  H    3.761900   1.848133   0.000000
     9  H    2.614006   4.881851   5.594697   0.000000
 Stoichiometry    C4H5(2)
 Framework group  C1[X(C4H5)]
 Deg. of freedom    21
 Full point group                 C1      NOp   1
 Largest Abelian subgroup         C1      NOp   1
 Largest concise Abelian subgroup C1      NOp   1
                         Standard orientation:                         
 ---------------------------------------------------------------------
 Center     Atomic      Atomic             Coordinates (Angstroms)
 Number     Number       Type             X           Y           Z
 ---------------------------------------------------------------------
      1          6           0        0.559598   -0.423577   -0.000003
      2          6           0       -0.687270    0.334875    0.000000
      3          6           0        1.761385    0.143462   -0.000002
      4          6           0       -1.884798   -0.199080    0.000002
      5          1           0        0.462714   -1.503214    0.000003
      6          1           0       -0.598456    1.422883   -0.000001
      7          1           0        1.873178    1.220751    0.000006
      8          1           0        2.664409   -0.449444    0.000010
      9          1           0       -2.895338    0.174938   -0.000006
 ---------------------------------------------------------------------
 Rotational constants (GHZ):     49.2925860      4.6378654      4.2390222
 Standard basis: 6-311+G(2df,2p) (5D, 7F)
 There are   181 symmetry adapted basis functions of A   symmetry.
 Integral buffers will be    131072 words long.
 Raffenetti 2 integral format.
 Two-electron integral symmetry is turned on.
   181 basis functions,   263 primitive gaussians,   201 cartesian basis functions
    15 alpha electrons       14 beta electrons
       nuclear repulsion energy        96.9925686495 Hartrees.
 NAtoms=    9 NActive=    9 NUniq=    9 SFac= 1.00D+00 NAtFMM=   50 NAOKFM=F Big=F
 One-electron integrals computed using PRISM.
 NBasis=   181 RedAO= T  NBF=   181
 NBsUse=   181 1.00D-06 NBFU=   181
 Initial guess read from the read-write file.
 B after Tr=     0.000000    0.000000    0.000000
         Rot=    1.000000    0.000000    0.000000    0.000000 Ang=   0.00 deg.
 Initial guess orbital symmetries:
 Alpha Orbitals:
       Occupied  (A) (A) (A) (A) (A) (A) (A) (A) (A) (A) (A) (A)
                 (A) (A) (A)
       Virtual   (A) (A) (A) (A) (A) (A) (A) (A) (A) (A) (A) (A)
                 (A) (A) (A) (A) (A) (A) (A) (A) (A) (A) (A) (A)
                 (A) (A) (A) (A) (A) (A) (A) (A) (A) (A) (A) (A)
                 (A) (A) (A) (A) (A) (A) (A) (A) (A) (A) (A) (A)
                 (A) (A) (A) (A) (A) (A) (A) (A) (A) (A) (A) (A)
                 (A) (A) (A) (A) (A) (A) (A) (A) (A) (A) (A) (A)
                 (A) (A) (A) (A) (A) (A) (A) (A) (A) (A) (A) (A)
                 (A) (A) (A) (A) (A) (A) (A) (A) (A) (A) (A) (A)
                 (A) (A) (A) (A) (A) (A) (A) (A) (A) (A) (A) (A)
                 (A) (A) (A) (A) (A) (A) (A) (A) (A) (A) (A) (A)
                 (A) (A) (A) (A) (A) (A) (A) (A) (A) (A) (A) (A)
                 (A) (A) (A) (A) (A) (A) (A) (A) (A) (A) (A) (A)
                 (A) (A) (A) (A) (A) (A) (A) (A) (A) (A) (A) (A)
                 (A) (A) (A) (A) (A) (A) (A) (A) (A) (A)
 Beta  Orbitals:
       Occupied  (A) (A) (A) (A) (A) (A) (A) (A) (A) (A) (A) (A)
                 (A) (A)
       Virtual   (A) (A) (A) (A) (A) (A) (A) (A) (A) (A) (A) (A)
                 (A) (A) (A) (A) (A) (A) (A) (A) (A) (A) (A) (A)
                 (A) (A) (A) (A) (A) (A) (A) (A) (A) (A) (A) (A)
                 (A) (A) (A) (A) (A) (A) (A) (A) (A) (A) (A) (A)
                 (A) (A) (A) (A) (A) (A) (A) (A) (A) (A) (A) (A)
                 (A) (A) (A) (A) (A) (A) (A) (A) (A) (A) (A) (A)
                 (A) (A) (A) (A) (A) (A) (A) (A) (A) (A) (A) (A)
                 (A) (A) (A) (A) (A) (A) (A) (A) (A) (A) (A) (A)
                 (A) (A) (A) (A) (A) (A) (A) (A) (A) (A) (A) (A)
                 (A) (A) (A) (A) (A) (A) (A) (A) (A) (A) (A) (A)
                 (A) (A) (A) (A) (A) (A) (A) (A) (A) (A) (A) (A)
                 (A) (A) (A) (A) (A) (A) (A) (A) (A) (A) (A) (A)
                 (A) (A) (A) (A) (A) (A) (A) (A) (A) (A) (A) (A)
                 (A) (A) (A) (A) (A) (A) (A) (A) (A) (A) (A)
 Initial guess <Sx>= 0.0000 <Sy>= 0.0000 <Sz>= 0.5000 <S**2>= 0.8011 S= 0.5252
 Harris functional with IExCor= 1009 diagonalized for initial guess.
 ExpMin= 4.38D-02 ExpMax= 4.56D+03 ExpMxC= 6.82D+02 IAcc=2 IRadAn=         0 AccDes= 0.00D+00
 HarFok:  IExCor= 1009 AccDes= 0.00D+00 IRadAn=         0 IDoV= 1
 ScaDFX=  1.000000  1.000000  1.000000  1.000000
 FoFCou: FMM=F IPFlag=           0 FMFlag=      100000 FMFlg1=           0
         NFxFlg=           0 DoJE=T BraDBF=F KetDBF=T FulRan=T
         Omega=  0.000000  0.000000  1.000000  0.000000  0.000000 ICntrl=     500 IOpCl=  0
         NMat0=    1 NMatS0=    1 NMatT0=    0 NMatD0=    1 NMtDS0=    0 NMtDT0=    0
         I1Cent=           4 NGrid=           0.
 Petite list used in FoFCou.
 Requested convergence on RMS density matrix=1.00D-08 within 128 cycles.
 Requested convergence on MAX density matrix=1.00D-06.
 Requested convergence on             energy=1.00D-06.
 No special actions if energy rises.
 Keep R1 and R2 ints in memory in canonical form, NReq=416494248.
 SCF Done:  E(UM062X) =  -155.276918174     A.U. after   17 cycles
             Convg  =    0.2737D-08             -V/T =  2.0041
 <Sx>= 0.0000 <Sy>= 0.0000 <Sz>= 0.5000 <S**2>= 0.7711 S= 0.5105
 <L.S>= 0.000000000000E+00
 Annihilation of the first spin contaminant:
 S**2 before annihilation     0.7711,   after     0.7501
 Calling FoFJK, ICntrl=      2127 FMM=F ISym2X=0 I1Cent= 0 IOpClX= 1 NMat=1 NMatS=1 NMatT=0.
 ***** Axes restored to original set *****
 -------------------------------------------------------------------
 Center     Atomic                   Forces (Hartrees/Bohr)
 Number     Number              X              Y              Z
 -------------------------------------------------------------------
      1        6          -0.000575667   -0.000974145   -0.000566286
      2        6           0.001309582    0.000508222    0.000723570
      3        6          -0.000027011    0.000123094    0.000027874
      4        6           0.000036400    0.000839076    0.000292620
      5        1          -0.000144857   -0.000022287   -0.000068400
      6        1          -0.000632262    0.000178671   -0.000209268
      7        1          -0.000037302   -0.000025351   -0.000023660
      8        1          -0.000202317   -0.000027063   -0.000094124
      9        1           0.000273433   -0.000600218   -0.000082326
 -------------------------------------------------------------------
 Cartesian Forces:  Max     0.001309582 RMS     0.000467542

 GradGradGradGradGradGradGradGradGradGradGradGradGradGradGradGradGradGrad
 Berny optimization.
 Using GDIIS optimizer.
 Internal  Forces:  Max     0.001518594 RMS     0.000444937
 Search for a local minimum.
 Step number   3 out of a maximum of   38
 All quantities printed in internal units (Hartrees-Bohrs-Radians)
 Swaping is turned off.
 Update second derivatives using D2CorX and points    1    2    3
 DE= -3.53D-04 DEPred=-3.22D-04 R= 1.10D+00
 SS=  1.41D+00  RLast= 6.10D-02 DXNew= 8.4853D-01 1.8295D-01
 Trust test= 1.10D+00 RLast= 6.10D-02 DXMaxT set to 5.05D-01
 ITU=  1  1  0
     Eigenvalues ---    0.01184   0.01827   0.02137   0.03018   0.03018
     Eigenvalues ---    0.03064   0.10401   0.16000   0.16000   0.16046
     Eigenvalues ---    0.16248   0.21886   0.22704   0.35400   0.35526
     Eigenvalues ---    0.35619   0.35723   0.35891   0.37904   0.59670
     Eigenvalues ---    0.63738
 DIIS coeff's:      1.02022      0.01489     -0.03511
 Cosine:  1.000 >  0.840
 Length:  0.892
 GDIIS step was calculated using  3 of the last  3 vectors.
 Iteration  1 RMS(Cart)=  0.00402506 RMS(Int)=  0.00002089
 Iteration  2 RMS(Cart)=  0.00002028 RMS(Int)=  0.00000000
 Iteration  3 RMS(Cart)=  0.00000000 RMS(Int)=  0.00000000
 Variable       Old X    -DE/DX   Delta X   Delta X   Delta X     New X
                                  (DIIS)     (GDIIS)  (Total)
    R1        2.75792   0.00152  -0.00047   0.00429   0.00382   2.76174
    R2        2.51115   0.00030   0.00005   0.00010   0.00014   2.51130
    R3        2.04842  -0.00001  -0.00005   0.00018   0.00013   2.04854
    R4        2.47776   0.00029  -0.00074   0.00024  -0.00050   2.47727
    R5        2.06287   0.00031   0.00037   0.00102   0.00139   2.06427
    R6        2.04671   0.00000  -0.00003   0.00010   0.00007   2.04678
    R7        2.04142   0.00018  -0.00011   0.00054   0.00043   2.04185
    R8        2.03625  -0.00009  -0.00011  -0.00086  -0.00097   2.03528
    A1        2.15424  -0.00029   0.00141  -0.00272  -0.00131   2.15293
    A2        2.02779   0.00032  -0.00210   0.00339   0.00129   2.02908
    A3        2.10115  -0.00003   0.00069  -0.00067   0.00002   2.10118
    A4        2.17568   0.00001   0.00260  -0.00196   0.00064   2.17632
    A5        2.03584  -0.00063  -0.00208  -0.00281  -0.00488   2.03095
    A6        2.07167   0.00062  -0.00052   0.00477   0.00425   2.07591
    A7        2.11506  -0.00004  -0.00004  -0.00011  -0.00016   2.11490
    A8        2.11975   0.00016   0.00087   0.00033   0.00120   2.12095
    A9        2.04838  -0.00012  -0.00083  -0.00021  -0.00104   2.04734
   A10        2.36769   0.00138   0.00852   0.00338   0.01191   2.37959
    D1       -3.14159   0.00000   0.00000   0.00000   0.00000   3.14159
    D2        0.00000   0.00000   0.00000  -0.00001  -0.00001  -0.00001
    D3       -0.00001   0.00000   0.00000   0.00001   0.00001   0.00000
    D4        3.14159   0.00000   0.00000   0.00000   0.00000   3.14159
    D5        0.00000   0.00000   0.00000   0.00000   0.00000   0.00000
    D6        3.14158   0.00000   0.00000   0.00002   0.00002  -3.14159
    D7       -3.14158   0.00000   0.00000  -0.00002  -0.00002   3.14159
    D8       -0.00001   0.00000   0.00000   0.00001   0.00001   0.00000
    D9       -3.14158   0.00000   0.00000  -0.00001  -0.00001  -3.14159
   D10        0.00001   0.00000   0.00000   0.00000  -0.00001   0.00001
         Item               Value     Threshold  Converged?
 Maximum Force            0.001519     0.000002     NO 
 RMS     Force            0.000445     0.000001     NO 
 Maximum Displacement     0.010917     0.000006     NO 
 RMS     Displacement     0.004019     0.000004     NO 
 Predicted change in Energy=-1.639197D-05
 GradGradGradGradGradGradGradGradGradGradGradGradGradGradGradGradGradGrad

                          Input orientation:                          
 ---------------------------------------------------------------------
 Center     Atomic      Atomic             Coordinates (Angstroms)
 Number     Number       Type             X           Y           Z
 ---------------------------------------------------------------------
      1          6           0       -0.269170   -0.525310   -0.259312
      2          6           0        0.690407    0.333982    0.431097
      3          6           0       -1.476162   -0.116912   -0.636683
      4          6           0        1.886488   -0.040994    0.814860
      5          1           0        0.052871   -1.541229   -0.457669
      6          1           0        0.367695    1.358093    0.631869
      7          1           0       -1.810959    0.895164   -0.444999
      8          1           0       -2.162614   -0.777977   -1.145857
      9          1           0        2.721543    0.415084    1.319492
 ---------------------------------------------------------------------
                    Distance matrix (angstroms):
                    1          2          3          4          5
     1  C    0.000000
     2  C    1.461449   0.000000
     3  C    1.328920   2.457128   0.000000
     4  C    2.456679   1.310913   3.663354   0.000000
     5  H    1.084042   2.170892   2.097301   2.689273   0.000000
     6  H    2.178763   1.092363   2.680424   2.073081   3.113242
     7  H    2.104600   2.709114   1.083110   4.016809   3.067578
     8  H    2.105928   3.444265   1.080501   4.558814   2.442239
     9  H    3.510174   2.218409   4.661584   1.077022   3.755965
                    6          7          8          9
     6  H    0.000000
     7  H    2.473961   0.000000
     8  H    3.758400   1.847772   0.000000
     9  H    2.627297   4.887482   5.599672   0.000000
 Stoichiometry    C4H5(2)
 Framework group  C1[X(C4H5)]
 Deg. of freedom    21
 Full point group                 C1      NOp   1
 Largest Abelian subgroup         C1      NOp   1
 Largest concise Abelian subgroup C1      NOp   1
                         Standard orientation:                         
 ---------------------------------------------------------------------
 Center     Atomic      Atomic             Coordinates (Angstroms)
 Number     Number       Type             X           Y           Z
 ---------------------------------------------------------------------
      1          6           0       -0.560316   -0.424709   -0.000001
      2          6           0        0.687892    0.335430    0.000001
      3          6           0       -1.761716    0.143330    0.000000
      4          6           0        1.885791   -0.197046    0.000000
      5          1           0       -0.464270   -1.504488    0.000001
      6          1           0        0.593149    1.423676   -0.000003
      7          1           0       -1.872476    1.220762    0.000002
      8          1           0       -2.666117   -0.447889    0.000005
      9          1           0        2.899814    0.165905    0.000002
 ---------------------------------------------------------------------
 Rotational constants (GHZ):     49.2524041      4.6333669      4.2349669
 Standard basis: 6-311+G(2df,2p) (5D, 7F)
 There are   181 symmetry adapted basis functions of A   symmetry.
 Integral buffers will be    131072 words long.
 Raffenetti 2 integral format.
 Two-electron integral symmetry is turned on.
   181 basis functions,   263 primitive gaussians,   201 cartesian basis functions
    15 alpha electrons       14 beta electrons
       nuclear repulsion energy        96.9537173523 Hartrees.
 NAtoms=    9 NActive=    9 NUniq=    9 SFac= 1.00D+00 NAtFMM=   50 NAOKFM=F Big=F
 One-electron integrals computed using PRISM.
 NBasis=   181 RedAO= T  NBF=   181
 NBsUse=   181 1.00D-06 NBFU=   181
 Initial guess read from the read-write file.
 B after Tr=     0.000000    0.000000    0.000000
         Rot=    1.000000    0.000000    0.000000    0.000000 Ang=   0.00 deg.
 Initial guess orbital symmetries:
 Alpha Orbitals:
       Occupied  (A) (A) (A) (A) (A) (A) (A) (A) (A) (A) (A) (A)
                 (A) (A) (A)
       Virtual   (A) (A) (A) (A) (A) (A) (A) (A) (A) (A) (A) (A)
                 (A) (A) (A) (A) (A) (A) (A) (A) (A) (A) (A) (A)
                 (A) (A) (A) (A) (A) (A) (A) (A) (A) (A) (A) (A)
                 (A) (A) (A) (A) (A) (A) (A) (A) (A) (A) (A) (A)
                 (A) (A) (A) (A) (A) (A) (A) (A) (A) (A) (A) (A)
                 (A) (A) (A) (A) (A) (A) (A) (A) (A) (A) (A) (A)
                 (A) (A) (A) (A) (A) (A) (A) (A) (A) (A) (A) (A)
                 (A) (A) (A) (A) (A) (A) (A) (A) (A) (A) (A) (A)
                 (A) (A) (A) (A) (A) (A) (A) (A) (A) (A) (A) (A)
                 (A) (A) (A) (A) (A) (A) (A) (A) (A) (A) (A) (A)
                 (A) (A) (A) (A) (A) (A) (A) (A) (A) (A) (A) (A)
                 (A) (A) (A) (A) (A) (A) (A) (A) (A) (A) (A) (A)
                 (A) (A) (A) (A) (A) (A) (A) (A) (A) (A) (A) (A)
                 (A) (A) (A) (A) (A) (A) (A) (A) (A) (A)
 Beta  Orbitals:
       Occupied  (A) (A) (A) (A) (A) (A) (A) (A) (A) (A) (A) (A)
                 (A) (A)
       Virtual   (A) (A) (A) (A) (A) (A) (A) (A) (A) (A) (A) (A)
                 (A) (A) (A) (A) (A) (A) (A) (A) (A) (A) (A) (A)
                 (A) (A) (A) (A) (A) (A) (A) (A) (A) (A) (A) (A)
                 (A) (A) (A) (A) (A) (A) (A) (A) (A) (A) (A) (A)
                 (A) (A) (A) (A) (A) (A) (A) (A) (A) (A) (A) (A)
                 (A) (A) (A) (A) (A) (A) (A) (A) (A) (A) (A) (A)
                 (A) (A) (A) (A) (A) (A) (A) (A) (A) (A) (A) (A)
                 (A) (A) (A) (A) (A) (A) (A) (A) (A) (A) (A) (A)
                 (A) (A) (A) (A) (A) (A) (A) (A) (A) (A) (A) (A)
                 (A) (A) (A) (A) (A) (A) (A) (A) (A) (A) (A) (A)
                 (A) (A) (A) (A) (A) (A) (A) (A) (A) (A) (A) (A)
                 (A) (A) (A) (A) (A) (A) (A) (A) (A) (A) (A) (A)
                 (A) (A) (A) (A) (A) (A) (A) (A) (A) (A) (A) (A)
                 (A) (A) (A) (A) (A) (A) (A) (A) (A) (A) (A)
 Initial guess <Sx>= 0.0000 <Sy>= 0.0000 <Sz>= 0.5000 <S**2>= 0.8013 S= 0.5253
 Requested convergence on RMS density matrix=1.00D-08 within 128 cycles.
 Requested convergence on MAX density matrix=1.00D-06.
 Requested convergence on             energy=1.00D-06.
 No special actions if energy rises.
 Keep R1 and R2 ints in memory in canonical form, NReq=416494248.
 SCF Done:  E(UM062X) =  -155.276936691     A.U. after   16 cycles
             Convg  =    0.5027D-08             -V/T =  2.0041
 <Sx>= 0.0000 <Sy>= 0.0000 <Sz>= 0.5000 <S**2>= 0.7711 S= 0.5105
 <L.S>= 0.000000000000E+00
 Annihilation of the first spin contaminant:
 S**2 before annihilation     0.7711,   after     0.7501
 Calling FoFJK, ICntrl=      2127 FMM=F ISym2X=0 I1Cent= 0 IOpClX= 1 NMat=1 NMatS=1 NMatT=0.
 ***** Axes restored to original set *****
 -------------------------------------------------------------------
 Center     Atomic                   Forces (Hartrees/Bohr)
 Number     Number              X              Y              Z
 -------------------------------------------------------------------
      1        6           0.000034813   -0.000532741   -0.000160454
      2        6           0.000352781    0.000601884    0.000347460
      3        6          -0.000036944    0.000126503    0.000026483
      4        6          -0.000194879    0.000028591   -0.000073038
      5        1          -0.000076180    0.000065332   -0.000010921
      6        1          -0.000212440   -0.000155095   -0.000141074
      7        1          -0.000005935   -0.000021370   -0.000009735
      8        1          -0.000011068   -0.000024905   -0.000013172
      9        1           0.000149853   -0.000088198    0.000034452
 -------------------------------------------------------------------
 Cartesian Forces:  Max     0.000601884 RMS     0.000202998

 GradGradGradGradGradGradGradGradGradGradGradGradGradGradGradGradGradGrad
 Berny optimization.
 Using GDIIS optimizer.
 Internal  Forces:  Max     0.000393073 RMS     0.000147279
 Search for a local minimum.
 Step number   4 out of a maximum of   38
 All quantities printed in internal units (Hartrees-Bohrs-Radians)
 Swaping is turned off.
 Update second derivatives using D2CorX and points    1    2    3    4
 DE= -1.85D-05 DEPred=-1.64D-05 R= 1.13D+00
 SS=  1.41D+00  RLast= 1.44D-02 DXNew= 8.4853D-01 4.3258D-02
 Trust test= 1.13D+00 RLast= 1.44D-02 DXMaxT set to 5.05D-01
 ITU=  1  1  1  0
     Eigenvalues ---    0.01184   0.01831   0.02137   0.03018   0.03018
     Eigenvalues ---    0.03064   0.08640   0.15790   0.16000   0.16002
     Eigenvalues ---    0.16122   0.21926   0.22352   0.35452   0.35541
     Eigenvalues ---    0.35620   0.35716   0.36513   0.37198   0.59635
     Eigenvalues ---    0.64488
 DIIS coeff's:      1.49302     -0.48328     -0.01857      0.00883
 Cosine:  1.000 >  0.710
 Length:  1.088
 GDIIS step was calculated using  4 of the last  4 vectors.
 Iteration  1 RMS(Cart)=  0.00226370 RMS(Int)=  0.00000591
 Iteration  2 RMS(Cart)=  0.00000568 RMS(Int)=  0.00000000
 Iteration  3 RMS(Cart)=  0.00000000 RMS(Int)=  0.00000000
 Variable       Old X    -DE/DX   Delta X   Delta X   Delta X     New X
                                  (DIIS)     (GDIIS)  (Total)
    R1        2.76174   0.00035   0.00187  -0.00038   0.00150   2.76324
    R2        2.51130   0.00009  -0.00005   0.00014   0.00009   2.51139
    R3        2.04854  -0.00009   0.00012  -0.00042  -0.00029   2.04825
    R4        2.47727  -0.00002  -0.00033  -0.00013  -0.00045   2.47681
    R5        2.06427  -0.00011   0.00073  -0.00094  -0.00020   2.06406
    R6        2.04678  -0.00001   0.00006  -0.00006   0.00000   2.04678
    R7        2.04185   0.00002   0.00022  -0.00014   0.00008   2.04193
    R8        2.03528   0.00009  -0.00065   0.00070   0.00005   2.03533
    A1        2.15293  -0.00023  -0.00102  -0.00058  -0.00160   2.15133
    A2        2.02908   0.00019   0.00106   0.00024   0.00130   2.03038
    A3        2.10118   0.00004  -0.00004   0.00033   0.00030   2.10147
    A4        2.17632  -0.00023  -0.00022  -0.00104  -0.00126   2.17505
    A5        2.03095  -0.00016  -0.00210  -0.00034  -0.00244   2.02851
    A6        2.07591   0.00039   0.00232   0.00139   0.00371   2.07962
    A7        2.11490   0.00000  -0.00004   0.00007   0.00003   2.11493
    A8        2.12095   0.00001   0.00041  -0.00018   0.00022   2.12117
    A9        2.04734  -0.00001  -0.00037   0.00012  -0.00025   2.04708
   A10        2.37959   0.00035   0.00447   0.00078   0.00525   2.38485
    D1        3.14159   0.00000   0.00000   0.00000   0.00000   3.14159
    D2       -0.00001   0.00000   0.00000   0.00002   0.00001   0.00001
    D3        0.00000   0.00000   0.00001  -0.00002  -0.00001  -0.00001
    D4        3.14159   0.00000   0.00000   0.00000   0.00000  -3.14159
    D5        0.00000   0.00000   0.00000   0.00000   0.00000   0.00000
    D6       -3.14159   0.00000   0.00001  -0.00002  -0.00001   3.14158
    D7        3.14159   0.00000  -0.00001   0.00002   0.00001  -3.14159
    D8        0.00000   0.00000   0.00000  -0.00001   0.00000   0.00000
    D9       -3.14159   0.00000  -0.00001   0.00001   0.00001  -3.14159
   D10        0.00001   0.00000   0.00000  -0.00001  -0.00001   0.00000
         Item               Value     Threshold  Converged?
 Maximum Force            0.000393     0.000002     NO 
 RMS     Force            0.000147     0.000001     NO 
 Maximum Displacement     0.007283     0.000006     NO 
 RMS     Displacement     0.002263     0.000004     NO 
 Predicted change in Energy=-2.372489D-06
 GradGradGradGradGradGradGradGradGradGradGradGradGradGradGradGradGradGrad

                          Input orientation:                          
 ---------------------------------------------------------------------
 Center     Atomic      Atomic             Coordinates (Angstroms)
 Number     Number       Type             X           Y           Z
 ---------------------------------------------------------------------
      1          6           0       -0.268704   -0.525743   -0.259252
      2          6           0        0.690133    0.335471    0.431468
      3          6           0       -1.475670   -0.116993   -0.636496
      4          6           0        1.886006   -0.039372    0.815190
      5          1           0        0.053310   -1.541513   -0.457575
      6          1           0        0.363842    1.358685    0.630433
      7          1           0       -1.810228    0.895140   -0.444699
      8          1           0       -2.162513   -0.777681   -1.145721
      9          1           0        2.723923    0.411905    1.319452
 ---------------------------------------------------------------------
                    Distance matrix (angstroms):
                    1          2          3          4          5
     1  C    0.000000
     2  C    1.462242   0.000000
     3  C    1.328968   2.456821   0.000000
     4  C    2.456371   1.310672   3.662551   0.000000
     5  H    1.083888   2.172328   2.097391   2.689820   0.000000
     6  H    2.177779   1.092254   2.677038   2.075014   3.113092
     7  H    2.104661   2.707896   1.083110   4.015318   3.067608
     8  H    2.106137   3.444448   1.080543   4.558594   2.442715
     9  H    3.511026   2.220509   4.662836   1.077050   3.755775
                    6          7          8          9
     6  H    0.000000
     7  H    2.469283   0.000000
     8  H    3.755163   1.847665   0.000000
     9  H    2.634601   4.889199   5.600844   0.000000
 Stoichiometry    C4H5(2)
 Framework group  C1[X(C4H5)]
 Deg. of freedom    21
 Full point group                 C1      NOp   1
 Largest Abelian subgroup         C1      NOp   1
 Largest concise Abelian subgroup C1      NOp   1
                         Standard orientation:                         
 ---------------------------------------------------------------------
 Center     Atomic      Atomic             Coordinates (Angstroms)
 Number     Number       Type             X           Y           Z
 ---------------------------------------------------------------------
      1          6           0        0.560171   -0.425527   -0.000001
      2          6           0       -0.687896    0.336367    0.000002
      3          6           0        1.761317    0.143160   -0.000001
      4          6           0       -1.885475   -0.196237    0.000000
      5          1           0        0.464379   -1.505174    0.000002
      6          1           0       -0.589334    1.424165   -0.000002
      7          1           0        1.871548    1.220646    0.000002
      8          1           0        2.666194   -0.447408    0.000004
      9          1           0       -2.901485    0.161199   -0.000003
 ---------------------------------------------------------------------
 Rotational constants (GHZ):     49.1892497      4.6346927      4.2356068
 Standard basis: 6-311+G(2df,2p) (5D, 7F)
 There are   181 symmetry adapted basis functions of A   symmetry.
 Integral buffers will be    131072 words long.
 Raffenetti 2 integral format.
 Two-electron integral symmetry is turned on.
   181 basis functions,   263 primitive gaussians,   201 cartesian basis functions
    15 alpha electrons       14 beta electrons
       nuclear repulsion energy        96.9505968146 Hartrees.
 NAtoms=    9 NActive=    9 NUniq=    9 SFac= 1.00D+00 NAtFMM=   50 NAOKFM=F Big=F
 One-electron integrals computed using PRISM.
 NBasis=   181 RedAO= T  NBF=   181
 NBsUse=   181 1.00D-06 NBFU=   181
 Initial guess read from the read-write file.
 B after Tr=     0.000000    0.000000    0.000000
         Rot=    1.000000    0.000000    0.000000    0.000000 Ang=   0.00 deg.
 Initial guess orbital symmetries:
 Alpha Orbitals:
       Occupied  (A) (A) (A) (A) (A) (A) (A) (A) (A) (A) (A) (A)
                 (A) (A) (A)
       Virtual   (A) (A) (A) (A) (A) (A) (A) (A) (A) (A) (A) (A)
                 (A) (A) (A) (A) (A) (A) (A) (A) (A) (A) (A) (A)
                 (A) (A) (A) (A) (A) (A) (A) (A) (A) (A) (A) (A)
                 (A) (A) (A) (A) (A) (A) (A) (A) (A) (A) (A) (A)
                 (A) (A) (A) (A) (A) (A) (A) (A) (A) (A) (A) (A)
                 (A) (A) (A) (A) (A) (A) (A) (A) (A) (A) (A) (A)
                 (A) (A) (A) (A) (A) (A) (A) (A) (A) (A) (A) (A)
                 (A) (A) (A) (A) (A) (A) (A) (A) (A) (A) (A) (A)
                 (A) (A) (A) (A) (A) (A) (A) (A) (A) (A) (A) (A)
                 (A) (A) (A) (A) (A) (A) (A) (A) (A) (A) (A) (A)
                 (A) (A) (A) (A) (A) (A) (A) (A) (A) (A) (A) (A)
[...]
     6   1     0.24   0.09   0.00    -0.09   0.99   0.00     0.00   0.01   0.00
     7   1     0.39   0.24   0.00     0.00   0.00   0.00    -0.08   0.81   0.00
     8   1     0.00  -0.40   0.00     0.00   0.00   0.00    -0.46  -0.32   0.00
     9   1     0.16   0.00   0.00    -0.06  -0.02   0.00     0.00   0.00   0.00
                    19                     20                     21
                     A                      A                      A
 Frequencies --  3177.0065              3252.3650              3273.4707
 Red. masses --     1.0932                 1.1150                 1.1024
 Frc consts  --     6.5008                 6.9493                 6.9596
 IR Inten    --     2.9421                 4.6760                 2.4609
  Atom  AN      X      Y      Z        X      Y      Z        X      Y      Z
     1   6     0.01  -0.08   0.00     0.00   0.01   0.00     0.00   0.00   0.00
     2   6     0.00   0.00   0.00     0.00   0.00   0.00    -0.01   0.01   0.00
     3   6    -0.01   0.02   0.00     0.06   0.08   0.00     0.00   0.00   0.00
     4   6     0.00   0.00   0.00     0.00   0.00   0.00     0.09   0.02   0.00
     5   1    -0.08   0.97   0.00     0.01  -0.13   0.00     0.00   0.00   0.00
     6   1     0.00   0.03   0.00     0.00   0.00   0.00     0.01  -0.05   0.00
     7   1     0.02  -0.20   0.00     0.06  -0.53   0.00     0.00   0.00   0.00
     8   1    -0.01  -0.01   0.00    -0.70  -0.45   0.00     0.00   0.00   0.00
     9   1     0.00   0.00   0.00     0.00   0.00   0.00    -0.94  -0.32   0.00

 -------------------
 - Thermochemistry -
 -------------------
 Temperature   298.150 Kelvin.  Pressure   1.00000 Atm.
 Atom     1 has atomic number  6 and mass  12.00000
 Atom     2 has atomic number  6 and mass  12.00000
 Atom     3 has atomic number  6 and mass  12.00000
 Atom     4 has atomic number  6 and mass  12.00000
 Atom     5 has atomic number  1 and mass   1.00783
 Atom     6 has atomic number  1 and mass   1.00783
 Atom     7 has atomic number  1 and mass   1.00783
 Atom     8 has atomic number  1 and mass   1.00783
 Atom     9 has atomic number  1 and mass   1.00783
 Molecular mass:    53.03913 amu.
 Principal axes and moments of inertia in atomic units:
                           1         2         3
     Eigenvalues --    36.70306 389.34354 426.04661
           X            0.99996   0.00894   0.00000
           Y           -0.00894   0.99996   0.00000
           Z            0.00000   0.00000   1.00000
 This molecule is an asymmetric top.
 Rotational symmetry number  1.
 Rotational temperatures (Kelvin)      2.35985     0.22246     0.20330
 Rotational constants (GHZ):          49.17140     4.63534     4.23602
 Zero-point vibrational energy     188642.5 (Joules/Mol)
                                   45.08663 (Kcal/Mol)
 Warning -- explicit consideration of   4 degrees of freedom as
           vibrations may cause significant error
 Vibrational temperatures:    245.09   435.18   741.12   845.71  1104.62
          (Kelvin)           1168.49  1293.85  1375.17  1405.76  1502.21
                             1705.23  1800.07  1897.15  2085.29  2376.12
                             2463.57  4426.81  4545.27  4571.00  4679.42
                             4709.79
 
 Zero-point correction=                           0.071850 (Hartree/Particle)
 Thermal correction to Energy=                    0.076473
 Thermal correction to Enthalpy=                  0.077417
 Thermal correction to Gibbs Free Energy=         0.044894
 Sum of electronic and zero-point Energies=           -155.205089
 Sum of electronic and thermal Energies=              -155.200466
 Sum of electronic and thermal Enthalpies=            -155.199522
 Sum of electronic and thermal Free Energies=         -155.232045
 
                     E (Thermal)             CV                S
                      KCal/Mol        Cal/Mol-Kelvin    Cal/Mol-Kelvin
 Total                   47.988             15.480             68.451
 Electronic               0.000              0.000              1.377
 Translational            0.889              2.981             37.828
 Rotational               0.889              2.981             23.325
 Vibrational             46.210              9.519              5.921
 Vibration     1          0.625              1.879              2.432
 Vibration     2          0.694              1.669              1.403
 Vibration     3          0.870              1.217              0.621
 Vibration     4          0.945              1.058              0.471
                       Q            Log10(Q)             Ln(Q)
 Total Bot       0.223991D-20        -20.649770        -47.547853
 Total V=0       0.250565D+13         12.398921         28.549570
 Vib (Bot)       0.264093D-32        -32.578242        -75.014175
 Vib (Bot)    1  0.118290D+01          0.072948          0.167969
 Vib (Bot)    2  0.627885D+00         -0.202120         -0.465399
 Vib (Bot)    3  0.314768D+00         -0.502010         -1.155921
 Vib (Bot)    4  0.257216D+00         -0.589701         -1.357838
 Vib (V=0)       0.295426D+01          0.470448          1.083248
 Vib (V=0)    1  0.178423D+01          0.251451          0.578988
 Vib (V=0)    2  0.130265D+01          0.114826          0.264397
 Vib (V=0)    3  0.109083D+01          0.037757          0.086938
 Vib (V=0)    4  0.106228D+01          0.026240          0.060419
 Electronic      0.200000D+01          0.301030          0.693147
 Translational   0.151827D+08          7.181350         16.535669
 Rotational      0.279314D+05          4.446093         10.237507
 ***** Axes restored to original set *****
 -------------------------------------------------------------------
 Center     Atomic                   Forces (Hartrees/Bohr)
 Number     Number              X              Y              Z
 -------------------------------------------------------------------
      1        6           0.000004327   -0.000002967    0.000000785
      2        6          -0.000003549    0.000005603    0.000000524
      3        6           0.000002253   -0.000011546   -0.000002833
      4        6          -0.000001442    0.000015399    0.000004434
      5        1           0.000011358   -0.000000906    0.000004511
      6        1          -0.000010289    0.000004140   -0.000003062
      7        1          -0.000004977   -0.000013559   -0.000006598
      8        1           0.000007762   -0.000017874   -0.000002593
      9        1          -0.000005443    0.000021711    0.000004832
 -------------------------------------------------------------------
 Cartesian Forces:  Max     0.000021711 RMS     0.000008440

 GradGradGradGradGradGradGradGradGradGradGradGradGradGradGradGradGradGrad
 Berny optimization.
 Internal  Forces:  Max     0.000000581 RMS     0.000000134
 Search for a local minimum.
 Step number   1 out of a maximum of    2
 All quantities printed in internal units (Hartrees-Bohrs-Radians)
 Swaping is turned off.
 Second derivative matrix not updated -- analytic derivatives used.
 ITU=  0
     Eigenvalues ---    0.00654   0.01612   0.02504   0.02981   0.03548
     Eigenvalues ---    0.04236   0.08220   0.10348   0.10716   0.11364
     Eigenvalues ---    0.12290   0.13789   0.17982   0.33599   0.33919
     Eigenvalues ---    0.35776   0.35980   0.36735   0.37537   0.63031
     Eigenvalues ---    0.64461
 Angle between quadratic step and forces=  25.30 degrees.
 Linear search not attempted -- option 19 set.
 Iteration  1 RMS(Cart)=  0.00000162 RMS(Int)=  0.00000001
 Iteration  2 RMS(Cart)=  0.00000001 RMS(Int)=  0.00000001
 Variable       Old X    -DE/DX   Delta X   Delta X   Delta X     New X
                                 (Linear)    (Quad)   (Total)
    R1        2.76335   0.00000   0.00000   0.00000   0.00000   2.76335
    R2        2.51146   0.00000   0.00000   0.00000   0.00000   2.51146
    R3        2.04821   0.00000   0.00000   0.00000   0.00000   2.04821
    R4        2.47693   0.00000   0.00000   0.00000   0.00000   2.47693
    R5        2.06379   0.00000   0.00000   0.00000   0.00000   2.06379
    R6        2.04676   0.00000   0.00000   0.00000   0.00000   2.04676
    R7        2.04193   0.00000   0.00000   0.00000   0.00000   2.04193
    R8        2.03537   0.00000   0.00000   0.00000   0.00000   2.03537
    A1        2.15134   0.00000   0.00000   0.00000   0.00000   2.15134
    A2        2.03038   0.00000   0.00000   0.00000   0.00000   2.03038
    A3        2.10146   0.00000   0.00000   0.00000   0.00000   2.10147
    A4        2.17412   0.00000   0.00000   0.00000   0.00000   2.17412
    A5        2.02876   0.00000   0.00000   0.00000   0.00000   2.02876
    A6        2.08031   0.00000   0.00000   0.00000   0.00000   2.08030
    A7        2.11487   0.00000   0.00000   0.00000   0.00000   2.11487
    A8        2.12112   0.00000   0.00000   0.00000   0.00000   2.12112
    A9        2.04720   0.00000   0.00000   0.00000   0.00000   2.04720
   A10        2.38436   0.00000   0.00000   0.00001   0.00001   2.38437
    D1        3.14159   0.00000   0.00000   0.00000   0.00000  -3.14159
    D2        0.00000   0.00000   0.00000   0.00000   0.00000   0.00000
    D3        0.00000   0.00000   0.00000   0.00000   0.00000   0.00000
    D4       -3.14159   0.00000   0.00000   0.00000   0.00000  -3.14159
    D5        0.00000   0.00000   0.00000   0.00000   0.00000   0.00000
    D6        3.14159   0.00000   0.00000   0.00000   0.00000  -3.14159
    D7        3.14159   0.00000   0.00000   0.00000   0.00000   3.14159
    D8        0.00000   0.00000   0.00000   0.00000   0.00000   0.00000
    D9       -3.14159   0.00000   0.00000   0.00000   0.00000   3.14159
   D10        0.00000   0.00000   0.00000   0.00000   0.00000   0.00000
         Item               Value     Threshold  Converged?
 Maximum Force            0.000001     0.000002     YES
 RMS     Force            0.000000     0.000001     YES
 Maximum Displacement     0.000005     0.000006     YES
 RMS     Displacement     0.000002     0.000004     YES
 Predicted change in Energy=-2.256336D-12
 Optimization completed.
    -- Stationary point found.
                           ----------------------------
                           !   Optimized Parameters   !
                           ! (Angstroms and Degrees)  !
 --------------------------                            --------------------------
 ! Name  Definition              Value          Derivative Info.                !
 --------------------------------------------------------------------------------
 ! R1    R(1,2)                  1.4623         -DE/DX =    0.0                 !
 ! R2    R(1,3)                  1.329          -DE/DX =    0.0                 !
 ! R3    R(1,5)                  1.0839         -DE/DX =    0.0                 !
 ! R4    R(2,4)                  1.3107         -DE/DX =    0.0                 !
 ! R5    R(2,6)                  1.0921         -DE/DX =    0.0                 !
 ! R6    R(3,7)                  1.0831         -DE/DX =    0.0                 !
 ! R7    R(3,8)                  1.0805         -DE/DX =    0.0                 !
 ! R8    R(4,9)                  1.0771         -DE/DX =    0.0                 !
 ! A1    A(2,1,3)              123.2629         -DE/DX =    0.0                 !
 ! A2    A(2,1,5)              116.332          -DE/DX =    0.0                 !
 ! A3    A(3,1,5)              120.4051         -DE/DX =    0.0                 !
 ! A4    A(1,2,4)              124.5679         -DE/DX =    0.0                 !
 ! A5    A(1,2,6)              116.2394         -DE/DX =    0.0                 !
 ! A6    A(4,2,6)              119.1927         -DE/DX =    0.0                 !
 ! A7    A(1,3,7)              121.1731         -DE/DX =    0.0                 !
 ! A8    A(1,3,8)              121.5313         -DE/DX =    0.0                 !
 ! A9    A(7,3,8)              117.2957         -DE/DX =    0.0                 !
 ! A10   A(2,4,9)              136.6138         -DE/DX =    0.0                 !
 ! D1    D(3,1,2,4)           -180.0001         -DE/DX =    0.0                 !
 ! D2    D(3,1,2,6)              0.0001         -DE/DX =    0.0                 !
 ! D3    D(5,1,2,4)             -0.0001         -DE/DX =    0.0                 !
 ! D4    D(5,1,2,6)           -179.9999         -DE/DX =    0.0                 !
 ! D5    D(2,1,3,7)              0.0            -DE/DX =    0.0                 !
 ! D6    D(2,1,3,8)           -180.0            -DE/DX =    0.0                 !
 ! D7    D(5,1,3,7)            180.0            -DE/DX =    0.0                 !
 ! D8    D(5,1,3,8)              0.0            -DE/DX =    0.0                 !
 ! D9    D(1,2,4,9)            180.0001         -DE/DX =    0.0                 !
 ! D10   D(6,2,4,9)             -0.0001         -DE/DX =    0.0                 !
 --------------------------------------------------------------------------------
 GradGradGradGradGradGradGradGradGradGradGradGradGradGradGradGradGradGrad


 Test job not archived.
 1\1\GINC-COMPUTE-3-042\Freq\UM062X\6-311+G(2df,2p)\C4H5(2)\ROOT\01-Aug
 -2017\0\\#N Geom=AllCheck Guess=TCheck SCRF=Check Test GenChk UM062X/6
 -311+G(2df,2p) Freq\\InChI=1S/C4H5/c1-3-4-2/h1,3-4H,2H2/u1\\0,2\C,-0.2
 686223246,-0.5255251777,-0.2591476388\C,0.6900357469,0.3359700334,0.43
 15932851\C,-1.4756809773,-0.1170479859,-0.636521731\C,1.8858099331,-0.
 0397370694,0.814986637\H,0.0535997729,-1.5412257902,-0.4573576983\H,0.
 3638110616,1.3590562328,0.6305418783\H,-1.8104010123,0.8950318137,-0.4
 448071632\H,-2.1623165775,-0.7779661493,-1.1457294539\H,2.7238643772,0
 .4113440927,1.3192418848\\Version=EM64L-G09RevB.01\State=2-A\HF=-155.2
 769394\S2=0.771035\S2-1=0.\S2A=0.750136\RMSD=1.068e-09\RMSF=8.440e-06\
 ZeroPoint=0.0718501\Thermal=0.0764732\Dipole=-0.0626357,0.2282784,0.04
 86989\DipoleDeriv=0.1562025,-0.0065715,0.1147924,0.0796053,0.0600351,0
 .092968,0.1432074,0.0564099,-0.0401492,-0.0044062,-0.0049163,0.0445726
 ,0.0299222,0.0367275,0.0621608,0.056059,0.0473817,-0.0738923,-0.227375
 5,-0.0375819,0.0167378,-0.0655931,0.0434206,0.0841037,0.0075019,0.0959
 868,-0.2612099,-0.1833014,-0.0620975,0.0018171,-0.0016807,-0.1266594,0
 .03529,0.0217384,0.0096599,-0.2234426,0.0360457,0.0491895,-0.0295146,0
 .007008,-0.0379369,-0.0569677,-0.0434229,-0.0390734,0.1125474,0.031544
 3,0.0681359,-0.0164805,0.0171596,-0.0362391,-0.0453419,-0.0332885,-0.0
 237169,0.10141,0.066134,0.0032071,-0.0344629,0.0490083,-0.0536521,-0.0
 463145,-0.0193609,-0.0657444,0.1199736,0.0231057,-0.0164809,-0.0569735
 ,-0.0415443,0.0180534,-0.0593489,-0.0652376,-0.0487165,0.100859,0.1020
 509,0.0071157,-0.0404884,-0.0738854,0.096251,-0.0665495,-0.0671968,-0.
 0321871,0.1639039\Polar=74.7881439,-3.0731991,39.8999494,16.580407,0.8
 674552,40.6349819\PG=C01 [X(C4H5)]\NImag=0\\0.72266480,-0.15550747,0.6
 2147361,0.19993942,0.09592181,0.24693355,-0.12795618,-0.05302300,-0.04
 510905,0.71657542,-0.06669648,-0.16167904,-0.06088572,-0.13057432,0.53
 892464,-0.04961759,-0.05508517,-0.10204641,0.20824515,0.08135387,0.239
 36571,-0.46132577,0.13813144,-0.12732159,-0.03901599,0.00142487,-0.019
 06596,0.74691773,0.13169129,-0.15751165,0.02168052,-0.01750283,0.01242
 363,-0.00564827,-0.10662347,0.62016414,-0.12944507,0.02441256,-0.10069
 654,-0.02530692,0.00238126,-0.00291566,0.23374499,0.12197832,0.2524255
 9,-0.04503797,-0.00195327,-0.01859936,-0.48053747,0.15225568,-0.137013
 24,0.00604904,-0.00446265,0.00020048,0.76462633,-0.00941756,0.01322355
 ,0.00125945,0.11183525,-0.11319469,0.02305203,-0.00411346,-0.00212275,
 -0.00313996,-0.03148624,0.20004670,-0.02106054,0.00442598,-0.01018763,
 -0.15034096,0.04019929,-0.08974468,0.00031562,-0.00328810,0.00115758,0
 .29306483,0.03633984,0.18563207,-0.07783743,0.07691470,0.01044386,0.00
 725725,-0.01970648,-0.00492723,-0.00509369,0.02936728,0.00459940,0.000
 97322,-0.00048518,0.00068659,0.07977613,0.07882714,-0.30066553,-0.0516
 2644,0.00522182,-0.01346262,-0.00339599,0.00162537,-0.00486295,-0.0031
 8577,0.00051966,0.00013729,0.00060282,-0.08560762,0.31737968,0.0110744
 5,-0.05243774,-0.05526637,0.00329230,-0.01397110,0.00034512,-0.0045478
 5,0.00858293,0.00779083,0.00101792,0.00017654,-0.00053232,-0.00600388,
 0.05930069,0.04439623,0.00794925,-0.01876996,-0.00670851,-0.06836905,0
 .07573361,0.01286221,0.00100043,-0.00103584,0.00066377,-0.01215504,0.0
 3135123,-0.00181498,-0.00221592,-0.00170971,-0.00250537,0.07300770,0.0
 0827183,-0.01701072,-0.00512472,0.06744711,-0.27498130,-0.04892525,0.0
 0067155,0.00132975,0.00117486,0.00999502,-0.00834133,-0.00394785,-0.00
 190160,-0.00086737,-0.00187118,-0.08288678,0.29805850,0.00220792,-0.01
 659640,0.00463830,0.01012993,-0.04540999,-0.05049994,0.00122675,0.0004
 5055,-0.00070039,-0.00885673,0.00511195,0.01441947,-0.00256864,-0.0017
 8978,0.00068120,-0.00374843,0.05737204,0.03474663,-0.00486278,0.029546
 83,0.00492439,0.00011436,0.00037657,0.00371269,-0.07980396,0.07773591,
 0.00743246,0.00019217,-0.00037634,-0.00011649,-0.00261852,0.00199140,-
 0.00518902,-0.00019464,-0.00075860,-0.00038367,0.07874868,0.00247289,-
 0.00720977,-0.00346961,-0.00263428,0.00065437,0.00184973,0.08201806,-0
 .30193492,-0.05259407,-0.00009409,0.00015981,-0.00004468,0.00233138,0.
 00195048,-0.00204799,0.00073626,0.00033919,0.00038456,-0.09169530,0.31
 726582,-0.00400262,0.00801573,0.00743948,0.00271993,0.00312699,-0.0061
 5982,0.00884441,-0.05441066,-0.05109247,-0.00002342,-0.00016441,0.0001
 1010,-0.00507692,-0.00219222,0.00828460,0.00010922,-0.00024959,0.00008
 418,-0.00696978,0.05782888,0.04001891,-0.01338698,-0.01948789,-0.01463
 553,-0.00162214,0.00433367,-0.00453785,-0.16825681,-0.10819010,-0.0915
 2616,-0.00035337,-0.00090601,-0.00057732,-0.00016211,-0.00082262,0.002
 87092,0.00001347,-0.00015724,0.00017258,0.00835583,0.00674442,0.004549
 31,0.17588510,0.00927909,0.00982352,0.00520839,0.00332701,0.00084703,-
 0.00241215,-0.11310519,-0.16810245,-0.09134256,-0.00004927,0.00060430,
 0.00007834,-0.00124691,0.00027661,0.00205794,0.00017949,0.00028539,0.0
 0034024,-0.01689721,-0.01126612,-0.01183054,0.11851713,0.16770687,-0.0
 0515029,-0.00699517,0.00147442,-0.00486977,-0.00198510,0.00972270,-0.0
 9314680,-0.08925747,-0.10554214,-0.00029483,-0.00028511,0.00008425,0.0
 0273102,0.00223793,-0.00567254,0.00028361,0.00019740,-0.00033016,-0.00
 324597,-0.00180126,0.00090310,0.10334417,0.09753169,0.10039317,-0.0002
 0692,0.00414863,-0.00293363,-0.00644619,-0.01714712,-0.00965819,-0.000
 47100,-0.00097958,-0.00036295,-0.23375691,-0.09640170,-0.12015675,-0.0
 0007893,-0.00004544,-0.00000946,0.00096381,-0.00068130,0.00182030,0.00
 006887,0.00012065,-0.00015013,-0.00047299,-0.00000414,0.00034885,0.240
 40026,0.00107927,-0.00044397,-0.00296368,0.01590323,0.01046798,0.00921
 120,-0.00002917,0.00061719,0.00031537,-0.12472484,-0.09051289,-0.07436
 564,0.00033442,0.00011441,0.00020991,-0.00359829,0.00118789,0.00013684
 ,0.00007675,0.00004116,-0.00012419,-0.00003138,-0.00017516,0.00035710,
 0.11099000,0.07870338,-0.00394567,-0.00166159,0.00771118,0.00123939,-0
 .00480950,0.00193298,-0.00004958,-0.00008782,-0.00042679,-0.12949565,-
 0.06235033,-0.10093882,0.00011579,0.00004876,-0.00002675,0.00085848,0.
 00137429,-0.00303930,-0.00016461,-0.00010557,0.00041191,0.00033987,0.0
 0036865,-0.00103280,0.13110197,0.06722308,0.09540838\\-0.00000433,0.00
 000297,-0.00000079,0.00000355,-0.00000560,-0.00000052,-0.00000225,0.00
 001155,0.00000283,0.00000144,-0.00001540,-0.00000443,-0.00001136,0.000
 00091,-0.00000451,0.00001029,-0.00000414,0.00000306,0.00000498,0.00001
 356,0.00000660,-0.00000776,0.00001787,0.00000259,0.00000544,-0.0000217
 1,-0.00000483\\\@


 WE STILL HAVE JUDGEMENT HERE,
 THAT WE TEACH BUT BLOODY INSTRUCTIONS,
 WHICH, BEING TAUGHT,
 RETURN TO PLAGUE THE INVENTOR.
           MACBETH ACT I, SCENE VII
 Job cpu time:  0 days  0 hours 42 minutes 36.8 seconds.
 File lengths (MBytes):  RWF=   1440 Int=      0 D2E=      0 Chk=     32 Scr=     32
 Normal termination of Gaussian 09 at Tue Aug  1 18:28:59 2017.
