 Entering Gaussian System, Link 0=/shared/apps/gaussian/G09_LINUX_LINDA/g09/g09
 Input=/gss_gpfs_scratch/westgroup/QMscratch/AIJULSRZWUXGPQ-UHFFFAOYSA.gjf
 Output=/gss_gpfs_scratch/westgroup/QMscratch/AIJULSRZWUXGPQ-UHFFFAOYSA.log
 Initial command:
 /shared/apps/gaussian/G09_LINUX_LINDA/g09/l1.exe /gss_gpfs_scratch/westgroup/rwest-autotst-1/Gau-11133.inp -scrdir=/gss_gpfs_scratch/westgroup/rwest-autotst-1/
 Entering Link 1 = /shared/apps/gaussian/G09_LINUX_LINDA/g09/l1.exe PID=     11134.
  
 Copyright (c) 1988,1990,1992,1993,1995,1998,2003,2009,2010,
            Gaussian, Inc.  All Rights Reserved.
  
 This is part of the Gaussian(R) 09 program.  It is based on
 the Gaussian(R) 03 system (copyright 2003, Gaussian, Inc.),
 the Gaussian(R) 98 system (copyright 1998, Gaussian, Inc.),
 the Gaussian(R) 94 system (copyright 1995, Gaussian, Inc.),
 the Gaussian 92(TM) system (copyright 1992, Gaussian, Inc.),
 the Gaussian 90(TM) system (copyright 1990, Gaussian, Inc.),
 the Gaussian 88(TM) system (copyright 1988, Gaussian, Inc.),
 the Gaussian 86(TM) system (copyright 1986, Carnegie Mellon
 University), and the Gaussian 82(TM) system (copyright 1983,
 Carnegie Mellon University). Gaussian is a federally registered
 trademark of Gaussian, Inc.
  
 This software contains proprietary and confidential information,
 including trade secrets, belonging to Gaussian, Inc.
  
 This software is provided under written license and may be
 used, copied, transmitted, or stored only in accord with that
 written license.
  
 The following legend is applicable only to US Government
 contracts under FAR:
  
                    RESTRICTED RIGHTS LEGEND
  
 Use, reproduction and disclosure by the US Government is
 subject to restrictions as set forth in subparagraphs (a)
 and (c) of the Commercial Computer Software - Restricted
 Rights clause in FAR 52.227-19.
  
 Gaussian, Inc.
 340 Quinnipiac St., Bldg. 40, Wallingford CT 06492
  
  
 ---------------------------------------------------------------
 Warning -- This program may not be used in any manner that
 competes with the business of Gaussian, Inc. or will provide
 assistance to any competitor of Gaussian, Inc.  The licensee
 of this program is prohibited from giving any competitor of
 Gaussian, Inc. access to this program.  By using this program,
 the user acknowledges that Gaussian, Inc. is engaged in the
 business of creating and licensing software in the field of
 computational chemistry and represents and warrants to the
 licensee that it is not a competitor of Gaussian, Inc. and that
 it will not use this program in any manner prohibited above.
 ---------------------------------------------------------------
  

 Cite this work as:
 Gaussian 09, Revision B.01,
 M. J. Frisch, G. W. Trucks, H. B. Schlegel, G. E. Scuseria, 
 M. A. Robb, J. R. Cheeseman, G. Scalmani, V. Barone, B. Mennucci, 
 G. A. Petersson, H. Nakatsuji, M. Caricato, X. Li, H. P. Hratchian, 
 A. F. Izmaylov, J. Bloino, G. Zheng, J. L. Sonnenberg, M. Hada, 
 M. Ehara, K. Toyota, R. Fukuda, J. Hasegawa, M. Ishida, T. Nakajima, 
 Y. Honda, O. Kitao, H. Nakai, T. Vreven, J. A. Montgomery, Jr., 
 J. E. Peralta, F. Ogliaro, M. Bearpark, J. J. Heyd, E. Brothers, 
 K. N. Kudin, V. N. Staroverov, T. Keith, R. Kobayashi, J. Normand, 
 K. Raghavachari, A. Rendell, J. C. Burant, S. S. Iyengar, J. Tomasi, 
 M. Cossi, N. Rega, J. M. Millam, M. Klene, J. E. Knox, J. B. Cross, 
 V. Bakken, C. Adamo, J. Jaramillo, R. Gomperts, R. E. Stratmann, 
 O. Yazyev, A. J. Austin, R. Cammi, C. Pomelli, J. W. Ochterski, 
 R. L. Martin, K. Morokuma, V. G. Zakrzewski, G. A. Voth, 
 P. Salvador, J. J. Dannenberg, S. Dapprich, A. D. Daniels, 
 O. Farkas, J. B. Foresman, J. V. Ortiz, J. Cioslowski, 
 and D. J. Fox, Gaussian, Inc., Wallingford CT, 2010.
 
 ******************************************
 Gaussian 09:  EM64L-G09RevB.01 12-Aug-2010
                16-Feb-2017 
 ******************************************
 %nprocshared=20
 Will use up to   20 processors via shared memory.
 %mem=5GB
 --------------------------------------------------------------
 # m062x/6-311+g(2df,2p) opt=(verytight,gdiis) freq IOP(2/16=3)
 --------------------------------------------------------------

 Warning!  Use of Opt=GDIIS is deprecated since it is seldom a good choice.

 1/7=1,14=-1,18=20,19=11,26=3,38=1/1,3;
 2/9=110,12=2,16=3,17=6,18=5,40=1/2;
 3/5=4,6=6,7=214,11=2,16=1,25=1,30=1,71=1,74=-55/1,2,3;
 4//1;
 5/5=2,38=5/2;
 6/7=2,8=2,9=2,10=2,28=1/1;
 7//1,2,3,16;
 1/7=1,14=-1,18=20,19=11/3(2);
 2/9=110,16=3/2;
 99//99;
 2/9=110,16=3/2;
 3/5=4,6=6,7=214,11=2,16=1,25=1,30=1,71=1,74=-55/1,2,3;
 4/5=5,16=3/1;
 5/5=2,38=5/2;
 7//1,2,3,16;
 1/7=1,14=-1,18=20,19=11/3(-5);
 2/9=110,16=3/2;
 6/7=2,8=2,9=2,10=2,19=2,28=1/1;
 99/9=1/99;
 ----------------------------------
 InChI=1S/C3H4O2/c1-3(5)2-4/h2H,1H3
 ----------------------------------
 Symbolic Z-matrix:
 Charge =  0 Multiplicity = 1
 C                    -1.1668    0.0669   -0.0847 
 C                     0.1878   -0.0641    0.5325 
 C                     1.3864   -0.0369   -0.3127 
 H                    -1.2415    1.0367   -0.6198 
 H                    -1.3311   -0.762    -0.8048 
 H                    -1.9569    0.026     0.6951 
 O                     0.2987   -0.198     1.7808 
 O                     2.532    -0.1466    0.1984 
 H                     1.2914    0.078    -1.3847 
 

 GradGradGradGradGradGradGradGradGradGradGradGradGradGradGradGradGradGrad
 Berny optimization.
 Initialization pass.
                           ----------------------------
                           !    Initial Parameters    !
                           ! (Angstroms and Degrees)  !
 --------------------------                            --------------------------
 ! Name  Definition              Value          Derivative Info.                !
 --------------------------------------------------------------------------------
 ! R1    R(1,2)                  1.4943         estimate D2E/DX2                !
 ! R2    R(1,4)                  1.1101         estimate D2E/DX2                !
 ! R3    R(1,5)                  1.1102         estimate D2E/DX2                !
 ! R4    R(1,6)                  1.1109         estimate D2E/DX2                !
 ! R5    R(2,3)                  1.4669         estimate D2E/DX2                !
 ! R6    R(2,7)                  1.2603         estimate D2E/DX2                !
 ! R7    R(3,8)                  1.2592         estimate D2E/DX2                !
 ! R8    R(3,9)                  1.0823         estimate D2E/DX2                !
 ! A1    A(2,1,4)              109.6735         estimate D2E/DX2                !
 ! A2    A(2,1,5)              109.6692         estimate D2E/DX2                !
 ! A3    A(2,1,6)              110.5838         estimate D2E/DX2                !
 ! A4    A(4,1,5)              109.246          estimate D2E/DX2                !
 ! A5    A(4,1,6)              108.8241         estimate D2E/DX2                !
 ! A6    A(5,1,6)              108.8178         estimate D2E/DX2                !
 ! A7    A(1,2,3)              120.0723         estimate D2E/DX2                !
 ! A8    A(1,2,7)              119.878          estimate D2E/DX2                !
 ! A9    A(3,2,7)              120.0497         estimate D2E/DX2                !
 ! A10   A(2,3,8)              120.5236         estimate D2E/DX2                !
 ! A11   A(2,3,9)              120.0624         estimate D2E/DX2                !
 ! A12   A(8,3,9)              119.414          estimate D2E/DX2                !
 ! D1    D(4,1,2,3)            -59.9835         estimate D2E/DX2                !
 ! D2    D(4,1,2,7)            120.015          estimate D2E/DX2                !
 ! D3    D(5,1,2,3)             59.9866         estimate D2E/DX2                !
 ! D4    D(5,1,2,7)           -120.0149         estimate D2E/DX2                !
 ! D5    D(6,1,2,3)            179.9963         estimate D2E/DX2                !
 ! D6    D(6,1,2,7)             -0.0052         estimate D2E/DX2                !
 ! D7    D(1,2,3,8)           -179.9984         estimate D2E/DX2                !
 ! D8    D(1,2,3,9)             -0.0062         estimate D2E/DX2                !
 ! D9    D(7,2,3,8)              0.0031         estimate D2E/DX2                !
 ! D10   D(7,2,3,9)            179.9953         estimate D2E/DX2                !
 --------------------------------------------------------------------------------
 Trust Radius=3.00D-01 FncErr=1.00D-07 GrdErr=1.00D-06
 Number of steps in this run=     40 maximum allowed number of steps=    100.
 GradGradGradGradGradGradGradGradGradGradGradGradGradGradGradGradGradGrad

                          Input orientation:                          
 ---------------------------------------------------------------------
 Center     Atomic      Atomic             Coordinates (Angstroms)
 Number     Number       Type             X           Y           Z
 ---------------------------------------------------------------------
      1          6           0       -1.166800    0.066900   -0.084700
      2          6           0        0.187800   -0.064100    0.532500
      3          6           0        1.386400   -0.036900   -0.312700
      4          1           0       -1.241500    1.036700   -0.619800
      5          1           0       -1.331100   -0.762000   -0.804800
      6          1           0       -1.956900    0.026000    0.695100
      7          8           0        0.298700   -0.198000    1.780800
      8          8           0        2.532000   -0.146600    0.198400
      9          1           0        1.291400    0.078000   -1.384700
 ---------------------------------------------------------------------
                    Distance matrix (angstroms):
                    1          2          3          4          5
     1  C    0.000000
     2  C    1.494335   0.000000
     3  C    2.565461   1.466883   0.000000
     4  H    1.110146   2.140667   2.855308   0.000000
     5  H    1.110231   2.140676   2.855300   1.810407   0.000000
     6  H    1.110864   2.152741   3.492459   1.806177   1.806175
     7  O    2.387038   1.260350   2.364696   3.107987   3.108001
     8  O    3.715757   2.369325   1.259229   4.038434   4.038399
     9  H    2.780804   2.216705   1.082317   2.814207   2.814141
                    6          7          8          9
     6  H    0.000000
     7  O    2.513295   0.000000
     8  O    4.519593   2.737565   0.000000
     9  H    3.857425   3.328967   2.023793   0.000000
 Stoichiometry    C3H4O2
 Framework group  C1[X(C3H4O2)]
 Deg. of freedom    21
 Full point group                 C1      NOp   1
 Largest Abelian subgroup         C1      NOp   1
 Largest concise Abelian subgroup C1      NOp   1
                         Standard orientation:                         
 ---------------------------------------------------------------------
 Center     Atomic      Atomic             Coordinates (Angstroms)
 Number     Number       Type             X           Y           Z
 ---------------------------------------------------------------------
      1          6           0       -1.713094   -0.579390   -0.000016
      2          6           0       -0.395758    0.126064   -0.000003
      3          6           0        0.851502   -0.646002   -0.000028
      4          1           0       -1.795702   -1.216797   -0.905174
      5          1           0       -1.795648   -1.216824    0.905233
      6          1           0       -2.548331    0.153002    0.000074
      7          8           0       -0.358188    1.385854    0.000000
      8          8           0        1.966226   -0.060300    0.000012
      9          1           0        0.819478   -1.727846    0.000045
 ---------------------------------------------------------------------
 Rotational constants (GHZ):     10.6731370      4.0502830      2.9935337
 Standard basis: 6-311+G(2df,2p) (5D, 7F)
 There are   206 symmetry adapted basis functions of A   symmetry.
 Integral buffers will be    131072 words long.
 Raffenetti 2 integral format.
 Two-electron integral symmetry is turned on.
   206 basis functions,   304 primitive gaussians,   231 cartesian basis functions
    19 alpha electrons       19 beta electrons
       nuclear repulsion energy       158.6535447572 Hartrees.
 NAtoms=    9 NActive=    9 NUniq=    9 SFac= 1.00D+00 NAtFMM=   50 NAOKFM=F Big=F
 One-electron integrals computed using PRISM.
 NBasis=   206 RedAO= T  NBF=   206
 NBsUse=   206 1.00D-06 NBFU=   206
 Harris functional with IExCor= 1009 diagonalized for initial guess.
 ExpMin= 4.38D-02 ExpMax= 8.59D+03 ExpMxC= 1.30D+03 IAcc=2 IRadAn=         0 AccDes= 0.00D+00
 HarFok:  IExCor= 1009 AccDes= 0.00D+00 IRadAn=         0 IDoV= 1
 ScaDFX=  1.000000  1.000000  1.000000  1.000000
 FoFCou: FMM=F IPFlag=           0 FMFlag=      100000 FMFlg1=           0
         NFxFlg=           0 DoJE=T BraDBF=F KetDBF=T FulRan=T
         Omega=  0.000000  0.000000  1.000000  0.000000  0.000000 ICntrl=     500 IOpCl=  0
         NMat0=    1 NMatS0=    1 NMatT0=    0 NMatD0=    1 NMtDS0=    0 NMtDT0=    0
         I1Cent=           4 NGrid=           0.
 Petite list used in FoFCou.
 Initial guess orbital symmetries:
       Occupied  (A) (A) (A) (A) (A) (A) (A) (A) (A) (A) (A) (A)
                 (A) (A) (A) (A) (A) (A) (A)
       Virtual   (A) (A) (A) (A) (A) (A) (A) (A) (A) (A) (A) (A)
                 (A) (A) (A) (A) (A) (A) (A) (A) (A) (A) (A) (A)
                 (A) (A) (A) (A) (A) (A) (A) (A) (A) (A) (A) (A)
                 (A) (A) (A) (A) (A) (A) (A) (A) (A) (A) (A) (A)
                 (A) (A) (A) (A) (A) (A) (A) (A) (A) (A) (A) (A)
                 (A) (A) (A) (A) (A) (A) (A) (A) (A) (A) (A) (A)
                 (A) (A) (A) (A) (A) (A) (A) (A) (A) (A) (A) (A)
                 (A) (A) (A) (A) (A) (A) (A) (A) (A) (A) (A) (A)
                 (A) (A) (A) (A) (A) (A) (A) (A) (A) (A) (A) (A)
                 (A) (A) (A) (A) (A) (A) (A) (A) (A) (A) (A) (A)
                 (A) (A) (A) (A) (A) (A) (A) (A) (A) (A) (A) (A)
                 (A) (A) (A) (A) (A) (A) (A) (A) (A) (A) (A) (A)
                 (A) (A) (A) (A) (A) (A) (A) (A) (A) (A) (A) (A)
                 (A) (A) (A) (A) (A) (A) (A) (A) (A) (A) (A) (A)
                 (A) (A) (A) (A) (A) (A) (A) (A) (A) (A) (A) (A)
                 (A) (A) (A) (A) (A) (A) (A)
 The electronic state of the initial guess is 1-A.
 Requested convergence on RMS density matrix=1.00D-08 within 128 cycles.
 Requested convergence on MAX density matrix=1.00D-06.
 Requested convergence on             energy=1.00D-06.
 No special actions if energy rises.
 Keep R1 ints in memory in canonical form, NReq=365531615.
 SCF Done:  E(RM062X) =  -267.107545636     A.U. after   12 cycles
             Convg  =    0.4506D-08             -V/T =  2.0047

 **********************************************************************

            Population analysis using the SCF density.

 **********************************************************************

 Orbital symmetries:
       Occupied  (A) (A) (A) (A) (A) (A) (A) (A) (A) (A) (A) (A)
                 (A) (A) (A) (A) (A) (A) (A)
       Virtual   (A) (A) (A) (A) (A) (A) (A) (A) (A) (A) (A) (A)
                 (A) (A) (A) (A) (A) (A) (A) (A) (A) (A) (A) (A)
                 (A) (A) (A) (A) (A) (A) (A) (A) (A) (A) (A) (A)
                 (A) (A) (A) (A) (A) (A) (A) (A) (A) (A) (A) (A)
                 (A) (A) (A) (A) (A) (A) (A) (A) (A) (A) (A) (A)
                 (A) (A) (A) (A) (A) (A) (A) (A) (A) (A) (A) (A)
                 (A) (A) (A) (A) (A) (A) (A) (A) (A) (A) (A) (A)
                 (A) (A) (A) (A) (A) (A) (A) (A) (A) (A) (A) (A)
                 (A) (A) (A) (A) (A) (A) (A) (A) (A) (A) (A) (A)
                 (A) (A) (A) (A) (A) (A) (A) (A) (A) (A) (A) (A)
                 (A) (A) (A) (A) (A) (A) (A) (A) (A) (A) (A) (A)
                 (A) (A) (A) (A) (A) (A) (A) (A) (A) (A) (A) (A)
                 (A) (A) (A) (A) (A) (A) (A) (A) (A) (A) (A) (A)
                 (A) (A) (A) (A) (A) (A) (A) (A) (A) (A) (A) (A)
                 (A) (A) (A) (A) (A) (A) (A) (A) (A) (A) (A) (A)
                 (A) (A) (A) (A) (A) (A) (A)
 The electronic state is 1-A.
 Alpha  occ. eigenvalues --  -19.66547 -19.65030 -10.66034 -10.65984 -10.57304
 Alpha  occ. eigenvalues --   -1.18976  -1.15605  -0.88976  -0.78862  -0.65106
 Alpha  occ. eigenvalues --   -0.58926  -0.55867  -0.54657  -0.51063  -0.48717
 Alpha  occ. eigenvalues --   -0.48043  -0.42703  -0.38939  -0.35133
 Alpha virt. eigenvalues --   -0.08811   0.00035   0.02696   0.02787   0.04031
 Alpha virt. eigenvalues --    0.06109   0.06339   0.06621   0.08045   0.09054
 Alpha virt. eigenvalues --    0.10330   0.12075   0.12535   0.13822   0.17479
 Alpha virt. eigenvalues --    0.18718   0.19471   0.22196   0.25092   0.25117
 Alpha virt. eigenvalues --    0.25620   0.26669   0.29166   0.30328   0.31444
 Alpha virt. eigenvalues --    0.33731   0.36079   0.38717   0.40663   0.41550
 Alpha virt. eigenvalues --    0.43425   0.48152   0.48376   0.49702   0.52466
 Alpha virt. eigenvalues --    0.54534   0.57078   0.57357   0.59275   0.61470
 Alpha virt. eigenvalues --    0.62262   0.64750   0.66366   0.72317   0.73708
 Alpha virt. eigenvalues --    0.75895   0.77002   0.79800   0.84349   0.86063
 Alpha virt. eigenvalues --    0.90592   0.93468   0.95576   1.02022   1.02459
 Alpha virt. eigenvalues --    1.03753   1.09123   1.12014   1.13733   1.14614
 Alpha virt. eigenvalues --    1.15095   1.16378   1.20549   1.22562   1.23381
 Alpha virt. eigenvalues --    1.24632   1.24986   1.27182   1.27514   1.33211
 Alpha virt. eigenvalues --    1.37834   1.39012   1.41350   1.41853   1.48477
 Alpha virt. eigenvalues --    1.54677   1.56207   1.59295   1.63554   1.66438
 Alpha virt. eigenvalues --    1.66515   1.81093   1.82411   1.87287   1.91199
 Alpha virt. eigenvalues --    2.02794   2.08101   2.22962   2.31129   2.42238
 Alpha virt. eigenvalues --    2.43567   2.52121   2.56190   2.58561   2.66951
 Alpha virt. eigenvalues --    2.68595   2.72132   2.76233   2.76772   2.80513
 Alpha virt. eigenvalues --    2.81743   2.93449   2.96810   3.01965   3.02981
 Alpha virt. eigenvalues --    3.04992   3.06355   3.10255   3.11080   3.12559
 Alpha virt. eigenvalues --    3.17610   3.20921   3.22531   3.27427   3.31342
 Alpha virt. eigenvalues --    3.32258   3.36767   3.37472   3.40688   3.45275
 Alpha virt. eigenvalues --    3.45919   3.51288   3.53141   3.61781   3.66261
 Alpha virt. eigenvalues --    3.66835   3.71730   3.74143   3.75794   3.83740
 Alpha virt. eigenvalues --    3.85655   3.90712   3.95189   4.03825   4.08241
 Alpha virt. eigenvalues --    4.12343   4.15740   4.16036   4.18484   4.20904
 Alpha virt. eigenvalues --    4.29370   4.33889   4.39389   4.45423   4.52946
 Alpha virt. eigenvalues --    4.56088   4.73359   4.79957   5.05752   5.06318
 Alpha virt. eigenvalues --    5.08734   5.10407   5.10693   5.10998   5.16854
 Alpha virt. eigenvalues --    5.23998   5.31522   5.37057   5.40706   5.44235
 Alpha virt. eigenvalues --    5.46542   5.50186   5.52934   5.55626   5.63572
 Alpha virt. eigenvalues --    5.80614   5.97912   6.16916   6.22801   6.70739
 Alpha virt. eigenvalues --    6.78116   6.79366   6.84372   6.86949   6.87817
 Alpha virt. eigenvalues --    7.04887   7.13617   7.24750   7.32428   7.47039
 Alpha virt. eigenvalues --    7.54154   7.66676  24.28026  24.44684  24.73112
 Alpha virt. eigenvalues --   50.11341  50.23556
          Condensed to atoms (all electrons):
              1          2          3          4          5          6
     1  C    5.555489  -0.158507  -0.111143   0.390944   0.390939   0.416416
     2  C   -0.158507   5.842307  -0.148817  -0.031423  -0.031441  -0.024436
     3  C   -0.111143  -0.148817   5.437672   0.001398   0.001404  -0.002639
     4  H    0.390944  -0.031423   0.001398   0.551052  -0.035334  -0.019550
     5  H    0.390939  -0.031441   0.001404  -0.035334   0.551092  -0.019556
     6  H    0.416416  -0.024436  -0.002639  -0.019550  -0.019556   0.489671
     7  O   -0.116934   0.442279  -0.093025   0.003230   0.003232  -0.004084
     8  O    0.015499  -0.132345   0.435634  -0.000401  -0.000401  -0.000086
     9  H    0.050195  -0.069378   0.386435  -0.002434  -0.002434  -0.000210
              7          8          9
     1  C   -0.116934   0.015499   0.050195
     2  C    0.442279  -0.132345  -0.069378
     3  C   -0.093025   0.435634   0.386435
     4  H    0.003230  -0.000401  -0.002434
     5  H    0.003232  -0.000401  -0.002434
     6  H   -0.004084  -0.000086  -0.000210
     7  O    8.058742   0.016080   0.005965
     8  O    0.016080   7.965142  -0.039918
     9  H    0.005965  -0.039918   0.518523
 Mulliken atomic charges:
              1
     1  C   -0.432899
     2  C    0.311761
     3  C    0.093083
     4  H    0.142518
     5  H    0.142498
     6  H    0.164474
     7  O   -0.315485
     8  O   -0.259206
     9  H    0.153256
 Sum of Mulliken atomic charges =   0.00000
 Mulliken charges with hydrogens summed into heavy atoms:
              1
     1  C    0.016592
     2  C    0.311761
     3  C    0.246338
     7  O   -0.315485
     8  O   -0.259206
 Sum of Mulliken charges with hydrogens summed into heavy atoms =   0.00000
 Electronic spatial extent (au):  <R**2>=            410.8838
 Charge=              0.0000 electrons
 Dipole moment (field-independent basis, Debye):
    X=             -2.8811    Y=             -3.8573    Z=              0.0000  Tot=              4.8145
 Quadrupole moment (field-independent basis, Debye-Ang):
   XX=            -32.3131   YY=            -30.9593   ZZ=            -27.8715
   XY=              0.2610   XZ=             -0.0001   YZ=              0.0000
 Traceless Quadrupole moment (field-independent basis, Debye-Ang):
   XX=             -1.9318   YY=             -0.5780   ZZ=              2.5098
   XY=              0.2610   XZ=             -0.0001   YZ=              0.0000
 Octapole moment (field-independent basis, Debye-Ang**2):
  XXX=            -13.6186  YYY=             -4.9556  ZZZ=             -0.0001  XYY=              3.4254
  XXY=              0.3610  XXZ=              0.0001  XZZ=              1.0888  YZZ=              0.1820
  YYZ=              0.0000  XYZ=             -0.0002
 Hexadecapole moment (field-independent basis, Debye-Ang**3):
 XXXX=           -354.4251 YYYY=           -145.6475 ZZZZ=            -33.0753 XXXY=             -1.7595
 XXXZ=             -0.0004 YYYX=             -2.7045 YYYZ=             -0.0001 ZZZX=              0.0004
 ZZZY=              0.0001 XXYY=            -80.2438 XXZZ=            -60.3031 YYZZ=            -27.7449
 XXYZ=              0.0006 YYXZ=              0.0004 ZZXY=              1.4282
 N-N= 1.586535447572D+02 E-N=-9.431327178906D+02  KE= 2.658637330457D+02
 Calling FoFJK, ICntrl=      2127 FMM=F ISym2X=0 I1Cent= 0 IOpClX= 0 NMat=1 NMatS=1 NMatT=0.
 ***** Axes restored to original set *****
 -------------------------------------------------------------------
 Center     Atomic                   Forces (Hartrees/Bohr)
 Number     Number              X              Y              Z
 -------------------------------------------------------------------
      1        6          -0.012471201    0.001120778   -0.005335644
      2        6          -0.026486400   -0.009318957    0.103555806
      3        6           0.106036962   -0.008602115    0.032100447
      4        1           0.000285577   -0.011473888    0.001927687
      5        1           0.001400366    0.010795507    0.004240922
      6        1           0.013668261    0.000331245   -0.009789874
      7        8          -0.000896611    0.008196616   -0.079289933
      8        8          -0.077962272    0.007749632   -0.037503700
      9        1          -0.003574682    0.001201182   -0.009905711
 -------------------------------------------------------------------
 Cartesian Forces:  Max     0.106036962 RMS     0.037816488

 GradGradGradGradGradGradGradGradGradGradGradGradGradGradGradGradGradGrad
 Berny optimization.
 Internal  Forces:  Max     0.086823957 RMS     0.022856336
 Search for a local minimum.
 Step number   1 out of a maximum of   40
 All quantities printed in internal units (Hartrees-Bohrs-Radians)
 Swaping is turned off.
 Second derivative matrix not updated -- first step.
 ITU=  0
     Eigenvalues ---    0.00841   0.00986   0.01204   0.01204   0.07436
     Eigenvalues ---    0.07523   0.16000   0.16000   0.16000   0.16000
     Eigenvalues ---    0.22000   0.25000   0.25000   0.32509   0.32576
     Eigenvalues ---    0.32585   0.32979   0.35716   0.36116   0.79527
     Eigenvalues ---    0.79918
 Angle between quadratic step and forces=  25.92 degrees.
 Linear search not attempted -- option 19 set.
 Iteration  1 RMS(Cart)=  0.03273994 RMS(Int)=  0.00072767
 Iteration  2 RMS(Cart)=  0.00099608 RMS(Int)=  0.00002588
 Iteration  3 RMS(Cart)=  0.00000051 RMS(Int)=  0.00002588
 Variable       Old X    -DE/DX   Delta X   Delta X   Delta X     New X
                                 (Linear)    (Quad)   (Total)
    R1        2.82388   0.00115   0.00000   0.00350   0.00350   2.82739
    R2        2.09787  -0.01097   0.00000  -0.03367  -0.03367   2.06420
    R3        2.09803  -0.01102   0.00000  -0.03382  -0.03382   2.06421
    R4        2.09923  -0.01661   0.00000  -0.05108  -0.05108   2.04815
    R5        2.77201   0.02885   0.00000   0.07987   0.07987   2.85188
    R6        2.38172  -0.07948   0.00000  -0.09994  -0.09994   2.28177
    R7        2.37960  -0.08682   0.00000  -0.10864  -0.10864   2.27096
    R8        2.04528   0.01025   0.00000   0.02870   0.02870   2.07399
    A1        1.91416   0.00238   0.00000   0.01240   0.01245   1.92661
    A2        1.91409   0.00238   0.00000   0.01244   0.01249   1.92658
    A3        1.93005  -0.00390   0.00000  -0.01943  -0.01936   1.91069
    A4        1.90670  -0.00416   0.00000  -0.03595  -0.03592   1.87078
    A5        1.89934   0.00162   0.00000   0.01504   0.01511   1.91444
    A6        1.89923   0.00163   0.00000   0.01510   0.01516   1.91439
    A7        2.09566  -0.00948   0.00000  -0.03794  -0.03794   2.05772
    A8        2.09227   0.01204   0.00000   0.04816   0.04816   2.14042
    A9        2.09526  -0.00255   0.00000  -0.01022  -0.01022   2.08504
   A10        2.10353   0.00578   0.00000   0.02629   0.02629   2.12983
   A11        2.09548  -0.00564   0.00000  -0.03033  -0.03033   2.06516
   A12        2.08417  -0.00014   0.00000   0.00403   0.00403   2.08820
    D1       -1.04691   0.00108   0.00000   0.01434   0.01432  -1.03259
    D2        2.09466   0.00108   0.00000   0.01449   0.01448   2.10913
    D3        1.04696  -0.00109   0.00000  -0.01447  -0.01446   1.03251
    D4       -2.09466  -0.00108   0.00000  -0.01432  -0.01430  -2.10896
    D5        3.14153   0.00000   0.00000  -0.00002  -0.00002   3.14151
    D6       -0.00009   0.00000   0.00000   0.00014   0.00014   0.00005
    D7       -3.14156   0.00000   0.00000  -0.00027  -0.00027   3.14135
    D8       -0.00011   0.00001   0.00000   0.00046   0.00045   0.00035
    D9        0.00006  -0.00001   0.00000  -0.00043  -0.00042  -0.00037
   D10        3.14151   0.00000   0.00000   0.00030   0.00030  -3.14137
         Item               Value     Threshold  Converged?
 Maximum Force            0.086824     0.000002     NO 
 RMS     Force            0.022856     0.000001     NO 
 Maximum Displacement     0.092403     0.000006     NO 
 RMS     Displacement     0.032852     0.000004     NO 
 Predicted change in Energy=-1.162644D-02
 GradGradGradGradGradGradGradGradGradGradGradGradGradGradGradGradGradGrad

                          Input orientation:                          
 ---------------------------------------------------------------------
 Center     Atomic      Atomic             Coordinates (Angstroms)
 Number     Number       Type             X           Y           Z
 ---------------------------------------------------------------------
      1          6           0       -1.163345    0.066269   -0.080503
      2          6           0        0.171700   -0.068345    0.581398
      3          6           0        1.400268   -0.039639   -0.294572
      4          1           0       -1.223793    1.010280   -0.626736
      5          1           0       -1.310884   -0.736644   -0.806282
      6          1           0       -1.944283    0.028028    0.670074
      7          8           0        0.296503   -0.197385    1.775440
      8          8           0        2.508650   -0.141245    0.158571
      9          1           0        1.265184    0.078680   -1.377289
 ---------------------------------------------------------------------
                    Distance matrix (angstroms):
                    1          2          3          4          5
     1  C    0.000000
     2  C    1.496188   0.000000
     3  C    2.574714   1.509147   0.000000
     4  H    1.092328   2.137854   2.845761   0.000000
     5  H    1.092334   2.137835   2.845700   1.758285   0.000000
     6  H    1.083832   2.120032   3.481543   1.779225   1.779198
     7  O    2.375962   1.207462   2.351199   3.088722   3.088654
     8  O    3.685617   2.376012   1.201738   3.984200   3.984255
     9  H    2.753101   2.248060   1.097507   2.761560   2.761690
                    6          7          8          9
     6  H    0.000000
     7  O    2.508738   0.000000
     8  O    4.485410   2.740624   0.000000
     9  H    3.807222   3.309721   1.988326   0.000000
 Stoichiometry    C3H4O2
 Framework group  C1[X(C3H4O2)]
 Deg. of freedom    21
 Full point group                 C1      NOp   1
 Largest Abelian subgroup         C1      NOp   1
 Largest concise Abelian subgroup C1      NOp   1
                         Standard orientation:                         
 ---------------------------------------------------------------------
 Center     Atomic      Atomic             Coordinates (Angstroms)
 Number     Number       Type             X           Y           Z
 ---------------------------------------------------------------------
      1          6           0       -1.695398   -0.604213   -0.000034
      2          6           0       -0.412959    0.166455   -0.000012
      3          6           0        0.879301   -0.613026    0.000148
      4          1           0       -1.751150   -1.250162   -0.879137
      5          1           0       -1.751204   -1.250061    0.879148
      6          1           0       -2.531445    0.085510   -0.000069
      7          8           0       -0.378532    1.373426    0.000015
      8          8           0        1.951274   -0.069843   -0.000073
      9          1           0        0.826201   -1.709248   -0.000093
 ---------------------------------------------------------------------
 Rotational constants (GHZ):     10.8029686      4.0873880      3.0206280
 Standard basis: 6-311+G(2df,2p) (5D, 7F)
 There are   206 symmetry adapted basis functions of A   symmetry.
 Integral buffers will be    131072 words long.
 Raffenetti 2 integral format.
 Two-electron integral symmetry is turned on.
   206 basis functions,   304 primitive gaussians,   231 cartesian basis functions
    19 alpha electrons       19 beta electrons
       nuclear repulsion energy       160.4979572042 Hartrees.
 NAtoms=    9 NActive=    9 NUniq=    9 SFac= 1.00D+00 NAtFMM=   50 NAOKFM=F Big=F
 One-electron integrals computed using PRISM.
 NBasis=   206 RedAO= T  NBF=   206
 NBsUse=   206 1.00D-06 NBFU=   206
 Initial guess read from the read-write file.
 B after Tr=     0.000000    0.000000    0.000000
         Rot=    1.000000    0.000000    0.000000    0.000000 Ang=   0.00 deg.
 Initial guess orbital symmetries:
       Occupied  (A) (A) (A) (A) (A) (A) (A) (A) (A) (A) (A) (A)
                 (A) (A) (A) (A) (A) (A) (A)
       Virtual   (A) (A) (A) (A) (A) (A) (A) (A) (A) (A) (A) (A)
                 (A) (A) (A) (A) (A) (A) (A) (A) (A) (A) (A) (A)
                 (A) (A) (A) (A) (A) (A) (A) (A) (A) (A) (A) (A)
                 (A) (A) (A) (A) (A) (A) (A) (A) (A) (A) (A) (A)
                 (A) (A) (A) (A) (A) (A) (A) (A) (A) (A) (A) (A)
                 (A) (A) (A) (A) (A) (A) (A) (A) (A) (A) (A) (A)
                 (A) (A) (A) (A) (A) (A) (A) (A) (A) (A) (A) (A)
                 (A) (A) (A) (A) (A) (A) (A) (A) (A) (A) (A) (A)
                 (A) (A) (A) (A) (A) (A) (A) (A) (A) (A) (A) (A)
                 (A) (A) (A) (A) (A) (A) (A) (A) (A) (A) (A) (A)
                 (A) (A) (A) (A) (A) (A) (A) (A) (A) (A) (A) (A)
                 (A) (A) (A) (A) (A) (A) (A) (A) (A) (A) (A) (A)
                 (A) (A) (A) (A) (A) (A) (A) (A) (A) (A) (A) (A)
                 (A) (A) (A) (A) (A) (A) (A) (A) (A) (A) (A) (A)
                 (A) (A) (A) (A) (A) (A) (A) (A) (A) (A) (A) (A)
                 (A) (A) (A) (A) (A) (A) (A)
 Harris functional with IExCor= 1009 diagonalized for initial guess.
 ExpMin= 4.38D-02 ExpMax= 8.59D+03 ExpMxC= 1.30D+03 IAcc=2 IRadAn=         0 AccDes= 0.00D+00
 HarFok:  IExCor= 1009 AccDes= 0.00D+00 IRadAn=         0 IDoV= 1
 ScaDFX=  1.000000  1.000000  1.000000  1.000000
 FoFCou: FMM=F IPFlag=           0 FMFlag=      100000 FMFlg1=           0
         NFxFlg=           0 DoJE=T BraDBF=F KetDBF=T FulRan=T
         Omega=  0.000000  0.000000  1.000000  0.000000  0.000000 ICntrl=     500 IOpCl=  0
         NMat0=    1 NMatS0=    1 NMatT0=    0 NMatD0=    1 NMtDS0=    0 NMtDT0=    0
         I1Cent=           4 NGrid=           0.
 Petite list used in FoFCou.
 Requested convergence on RMS density matrix=1.00D-08 within 128 cycles.
 Requested convergence on MAX density matrix=1.00D-06.
 Requested convergence on             energy=1.00D-06.
 No special actions if energy rises.
 Keep R1 ints in memory in canonical form, NReq=365531615.
 SCF Done:  E(RM062X) =  -267.122004865     A.U. after   11 cycles
             Convg  =    0.7315D-08             -V/T =  2.0033
 Calling FoFJK, ICntrl=      2127 FMM=F ISym2X=0 I1Cent= 0 IOpClX= 0 NMat=1 NMatS=1 NMatT=0.
 ***** Axes restored to original set *****
 -------------------------------------------------------------------
 Center     Atomic                   Forces (Hartrees/Bohr)
 Number     Number              X              Y              Z
 -------------------------------------------------------------------
      1        6          -0.001879863    0.000501296   -0.003943987
      2        6          -0.011389173   -0.002277382    0.027328269
      3        6           0.029248011   -0.001214312   -0.001739137
      4        1           0.000572847   -0.000381648   -0.000568220
      5        1           0.000617660    0.000432724   -0.000484135
      6        1          -0.000575349   -0.000025842    0.000560098
      7        8           0.000882012    0.001377920   -0.013756891
      8        8          -0.012639797    0.000915062   -0.002997821
      9        1          -0.004836348    0.000672182   -0.004398176
 -------------------------------------------------------------------
 Cartesian Forces:  Max     0.029248011 RMS     0.008960754

 GradGradGradGradGradGradGradGradGradGradGradGradGradGradGradGradGradGrad
 Berny optimization.
 Using GDIIS optimizer.
 Internal  Forces:  Max     0.014894727 RMS     0.004880828
 Search for a local minimum.
 Step number   2 out of a maximum of   40
 All quantities printed in internal units (Hartrees-Bohrs-Radians)
 Swaping is turned off.
 Update second derivatives using D2CorX and points    1    2
 DE= -1.45D-02 DEPred=-1.16D-02 R= 1.24D+00
 SS=  1.41D+00  RLast= 2.07D-01 DXNew= 5.0454D-01 6.1953D-01
 Trust test= 1.24D+00 RLast= 2.07D-01 DXMaxT set to 5.05D-01
 ITU=  1  0
     Eigenvalues ---    0.00841   0.00980   0.01204   0.01204   0.07430
     Eigenvalues ---    0.07448   0.15535   0.16000   0.16000   0.16145
     Eigenvalues ---    0.22036   0.23580   0.25021   0.31724   0.32553
     Eigenvalues ---    0.32580   0.33234   0.33742   0.35763   0.74793
     Eigenvalues ---    0.79883
 DIIS coeff's:      1.25561     -0.25561
 Cosine:  1.000 >  0.970
 Length:  1.000
 GDIIS step was calculated using  2 of the last  2 vectors.
 Iteration  1 RMS(Cart)=  0.02524143 RMS(Int)=  0.00049440
 Iteration  2 RMS(Cart)=  0.00059361 RMS(Int)=  0.00001722
 Iteration  3 RMS(Cart)=  0.00000023 RMS(Int)=  0.00001722
 Variable       Old X    -DE/DX   Delta X   Delta X   Delta X     New X
                                  (DIIS)     (GDIIS)  (Total)
    R1        2.82739   0.00314   0.00090   0.01122   0.01211   2.83950
    R2        2.06420  -0.00008  -0.00861   0.00666  -0.00195   2.06225
    R3        2.06421  -0.00008  -0.00864   0.00668  -0.00196   2.06225
    R4        2.04815   0.00080  -0.01306   0.01367   0.00061   2.04876
    R5        2.85188   0.01489   0.02042   0.03527   0.05569   2.90756
    R6        2.28177  -0.01366  -0.02555  -0.00091  -0.02645   2.25532
    R7        2.27096  -0.01287  -0.02777   0.00224  -0.02552   2.24543
    R8        2.07399   0.00501   0.00734   0.01167   0.01901   2.09300
    A1        1.92661  -0.00052   0.00318  -0.00813  -0.00497   1.92165
    A2        1.92658  -0.00052   0.00319  -0.00816  -0.00499   1.92159
    A3        1.91069   0.00045  -0.00495   0.01048   0.00555   1.91625
    A4        1.87078  -0.00031  -0.00918  -0.00090  -0.01014   1.86064
    A5        1.91444   0.00044   0.00386   0.00323   0.00711   1.92155
    A6        1.91439   0.00045   0.00388   0.00327   0.00716   1.92156
    A7        2.05772  -0.00577  -0.00970  -0.02113  -0.03082   2.02690
    A8        2.14042   0.00552   0.01231   0.01777   0.03008   2.17050
    A9        2.08504   0.00025  -0.00261   0.00336   0.00074   2.08579
   A10        2.12983  -0.00010   0.00672  -0.00603   0.00069   2.13051
   A11        2.06516  -0.00436  -0.00775  -0.02808  -0.03584   2.02932
   A12        2.08820   0.00447   0.00103   0.03411   0.03514   2.12335
    D1       -1.03259   0.00051   0.00366   0.00604   0.00968  -1.02291
    D2        2.10913   0.00051   0.00370   0.00525   0.00891   2.11805
    D3        1.03251  -0.00051  -0.00370  -0.00520  -0.00887   1.02364
    D4       -2.10896  -0.00051  -0.00366  -0.00600  -0.00963  -2.11859
    D5        3.14151   0.00000   0.00000   0.00043   0.00043  -3.14124
    D6        0.00005   0.00000   0.00004  -0.00037  -0.00033  -0.00029
    D7        3.14135   0.00002  -0.00007   0.00168   0.00162  -3.14022
    D8        0.00035  -0.00002   0.00012  -0.00256  -0.00244  -0.00209
    D9       -0.00037   0.00002  -0.00011   0.00246   0.00234   0.00198
   D10       -3.14137  -0.00002   0.00008  -0.00178  -0.00171   3.14010
         Item               Value     Threshold  Converged?
 Maximum Force            0.014895     0.000002     NO 
 RMS     Force            0.004881     0.000001     NO 
 Maximum Displacement     0.081991     0.000006     NO 
 RMS     Displacement     0.025473     0.000004     NO 
 Predicted change in Energy=-1.173299D-03
 GradGradGradGradGradGradGradGradGradGradGradGradGradGradGradGradGradGrad

                          Input orientation:                          
 ---------------------------------------------------------------------
 Center     Atomic      Atomic             Coordinates (Angstroms)
 Number     Number       Type             X           Y           Z
 ---------------------------------------------------------------------
      1          6           0       -1.160856    0.066008   -0.079226
      2          6           0        0.166046   -0.071206    0.612368
      3          6           0        1.409088   -0.039092   -0.293806
      4          1           0       -1.199930    1.005707   -0.632735
      5          1           0       -1.286280   -0.732986   -0.811894
      6          1           0       -1.961062    0.030467    0.651390
      7          8           0        0.301159   -0.199139    1.791238
      8          8           0        2.510038   -0.140027    0.141641
      9          1           0        1.221797    0.080269   -1.378877
 ---------------------------------------------------------------------
                    Distance matrix (angstroms):
                    1          2          3          4          5
     1  C    0.000000
     2  C    1.502598   0.000000
     3  C    2.581028   1.538616   0.000000
     4  H    1.091298   2.139139   2.830804   0.000000
     5  H    1.091295   2.139094   2.831062   1.750030   0.000000
     6  H    1.084155   2.129894   3.500878   1.783084   1.783084
     7  O    2.388813   1.193464   2.366545   3.095249   3.095359
     8  O    3.683300   2.391782   1.188231   3.959322   3.958896
     9  H    2.714099   2.258896   1.107566   2.697763   2.696906
                    6          7          8          9
     6  H    0.000000
     7  O    2.543544   0.000000
     8  O    4.503293   2.757501   0.000000
     9  H    3.775586   3.312895   2.005011   0.000000
 Stoichiometry    C3H4O2
 Framework group  C1[X(C3H4O2)]
 Deg. of freedom    21
 Full point group                 C1      NOp   1
 Largest Abelian subgroup         C1      NOp   1
 Largest concise Abelian subgroup C1      NOp   1
                         Standard orientation:                         
 ---------------------------------------------------------------------
 Center     Atomic      Atomic             Coordinates (Angstroms)
 Number     Number       Type             X           Y           Z
 ---------------------------------------------------------------------
      1          6           0       -1.689554   -0.620786    0.000142
      2          6           0       -0.424034    0.189313    0.000033
      3          6           0        0.891446   -0.608716   -0.000833
      4          1           0       -1.717992   -1.272186   -0.874959
      5          1           0       -1.717614   -1.272427    0.875071
      6          1           0       -2.548719    0.040445    0.000417
      7          8           0       -0.387879    1.382229   -0.000059
      8          8           0        1.953092   -0.075052    0.000391
      9          1           0        0.795468   -1.712115    0.000773
 ---------------------------------------------------------------------
 Rotational constants (GHZ):     10.6311597      4.0818750      3.0035344
 Standard basis: 6-311+G(2df,2p) (5D, 7F)
 There are   206 symmetry adapted basis functions of A   symmetry.
 Integral buffers will be    131072 words long.
 Raffenetti 2 integral format.
 Two-electron integral symmetry is turned on.
   206 basis functions,   304 primitive gaussians,   231 cartesian basis functions
    19 alpha electrons       19 beta electrons
       nuclear repulsion energy       160.3597697728 Hartrees.
 NAtoms=    9 NActive=    9 NUniq=    9 SFac= 1.00D+00 NAtFMM=   50 NAOKFM=F Big=F
 One-electron integrals computed using PRISM.
 NBasis=   206 RedAO= T  NBF=   206
 NBsUse=   206 1.00D-06 NBFU=   206
 Initial guess read from the read-write file.
 B after Tr=     0.000000    0.000000    0.000000
         Rot=    1.000000    0.000000    0.000000    0.000000 Ang=   0.00 deg.
 Initial guess orbital symmetries:
       Occupied  (A) (A) (A) (A) (A) (A) (A) (A) (A) (A) (A) (A)
                 (A) (A) (A) (A) (A) (A) (A)
       Virtual   (A) (A) (A) (A) (A) (A) (A) (A) (A) (A) (A) (A)
                 (A) (A) (A) (A) (A) (A) (A) (A) (A) (A) (A) (A)
                 (A) (A) (A) (A) (A) (A) (A) (A) (A) (A) (A) (A)
                 (A) (A) (A) (A) (A) (A) (A) (A) (A) (A) (A) (A)
                 (A) (A) (A) (A) (A) (A) (A) (A) (A) (A) (A) (A)
                 (A) (A) (A) (A) (A) (A) (A) (A) (A) (A) (A) (A)
                 (A) (A) (A) (A) (A) (A) (A) (A) (A) (A) (A) (A)
                 (A) (A) (A) (A) (A) (A) (A) (A) (A) (A) (A) (A)
                 (A) (A) (A) (A) (A) (A) (A) (A) (A) (A) (A) (A)
                 (A) (A) (A) (A) (A) (A) (A) (A) (A) (A) (A) (A)
                 (A) (A) (A) (A) (A) (A) (A) (A) (A) (A) (A) (A)
                 (A) (A) (A) (A) (A) (A) (A) (A) (A) (A) (A) (A)
                 (A) (A) (A) (A) (A) (A) (A) (A) (A) (A) (A) (A)
                 (A) (A) (A) (A) (A) (A) (A) (A) (A) (A) (A) (A)
                 (A) (A) (A) (A) (A) (A) (A) (A) (A) (A) (A) (A)
                 (A) (A) (A) (A) (A) (A) (A)
 Harris functional with IExCor= 1009 diagonalized for initial guess.
 ExpMin= 4.38D-02 ExpMax= 8.59D+03 ExpMxC= 1.30D+03 IAcc=2 IRadAn=         0 AccDes= 0.00D+00
 HarFok:  IExCor= 1009 AccDes= 0.00D+00 IRadAn=         0 IDoV= 1
 ScaDFX=  1.000000  1.000000  1.000000  1.000000
 FoFCou: FMM=F IPFlag=           0 FMFlag=      100000 FMFlg1=           0
         NFxFlg=           0 DoJE=T BraDBF=F KetDBF=T FulRan=T
         Omega=  0.000000  0.000000  1.000000  0.000000  0.000000 ICntrl=     500 IOpCl=  0
         NMat0=    1 NMatS0=    1 NMatT0=    0 NMatD0=    1 NMtDS0=    0 NMtDT0=    0
         I1Cent=           4 NGrid=           0.
 Petite list used in FoFCou.
 Requested convergence on RMS density matrix=1.00D-08 within 128 cycles.
 Requested convergence on MAX density matrix=1.00D-06.
 Requested convergence on             energy=1.00D-06.
 No special actions if energy rises.
 Keep R1 ints in memory in canonical form, NReq=365531615.
 SCF Done:  E(RM062X) =  -267.123228688     A.U. after   12 cycles
             Convg  =    0.6216D-08             -V/T =  2.0031
 Calling FoFJK, ICntrl=      2127 FMM=F ISym2X=0 I1Cent= 0 IOpClX= 0 NMat=1 NMatS=1 NMatT=0.
 ***** Axes restored to original set *****
 -------------------------------------------------------------------
 Center     Atomic                   Forces (Hartrees/Bohr)
 Number     Number              X              Y              Z
 -------------------------------------------------------------------
      1        6           0.000328014   -0.000008863   -0.000535628
      2        6          -0.004032703    0.000581140   -0.001616973
      3        6          -0.001314734    0.000248828   -0.005362099
      4        1           0.000312055    0.000653514    0.000050545
      5        1           0.000222693   -0.000674623   -0.000094819
      6        1          -0.000764590    0.000020761    0.000133465
      7        8           0.000646354   -0.000614263    0.005253407
      8        8           0.005202496   -0.000371860    0.002242493
      9        1          -0.000599585    0.000165366   -0.000070391
 -------------------------------------------------------------------
 Cartesian Forces:  Max     0.005362099 RMS     0.002044087

 GradGradGradGradGradGradGradGradGradGradGradGradGradGradGradGradGradGrad
 Berny optimization.
 Using GDIIS optimizer.
 Internal  Forces:  Max     0.005674169 RMS     0.001730251
 Search for a local minimum.
 Step number   3 out of a maximum of   40
 All quantities printed in internal units (Hartrees-Bohrs-Radians)
 Swaping is turned off.
 Update second derivatives using D2CorX and points    1    2    3
 DE= -1.22D-03 DEPred=-1.17D-03 R= 1.04D+00
 SS=  1.41D+00  RLast= 1.00D-01 DXNew= 8.4853D-01 2.9985D-01
 Trust test= 1.04D+00 RLast= 1.00D-01 DXMaxT set to 5.05D-01
 ITU=  1  1  0
     Eigenvalues ---    0.00841   0.00977   0.01204   0.01205   0.07403
     Eigenvalues ---    0.07476   0.14665   0.16000   0.16001   0.16131
     Eigenvalues ---    0.21342   0.22215   0.25064   0.30157   0.32553
     Eigenvalues ---    0.32580   0.33074   0.33353   0.35836   0.79722
     Eigenvalues ---    0.94187
 DIIS coeff's:      1.29350     -0.41065      0.11715
 Cosine:  0.988 >  0.840
 Length:  1.270
 GDIIS step was calculated using  3 of the last  3 vectors.
 Iteration  1 RMS(Cart)=  0.01009646 RMS(Int)=  0.00007688
 Iteration  2 RMS(Cart)=  0.00007677 RMS(Int)=  0.00003257
 Iteration  3 RMS(Cart)=  0.00000000 RMS(Int)=  0.00003257
 Variable       Old X    -DE/DX   Delta X   Delta X   Delta X     New X
                                  (DIIS)     (GDIIS)  (Total)
    R1        2.83950   0.00012   0.00314  -0.00272   0.00043   2.83993
    R2        2.06225   0.00053   0.00337  -0.00200   0.00138   2.06363
    R3        2.06225   0.00053   0.00339  -0.00199   0.00140   2.06365
    R4        2.04876   0.00065   0.00616  -0.00468   0.00149   2.05024
    R5        2.90756   0.00454   0.00699   0.01036   0.01735   2.92491
    R6        2.25532   0.00533   0.00394   0.00278   0.00673   2.26205
    R7        2.24543   0.00567   0.00524   0.00181   0.00705   2.25248
    R8        2.09300   0.00019   0.00222  -0.00110   0.00111   2.09411
    A1        1.92165  -0.00067  -0.00292  -0.00226  -0.00519   1.91646
    A2        1.92159  -0.00062  -0.00293  -0.00187  -0.00482   1.91677
    A3        1.91625   0.00080   0.00390   0.00235   0.00626   1.92250
    A4        1.86064   0.00057   0.00123   0.00224   0.00343   1.86408
    A5        1.92155  -0.00005   0.00032  -0.00023   0.00009   1.92164
    A6        1.92156  -0.00006   0.00033  -0.00030   0.00003   1.92158
    A7        2.02690  -0.00182  -0.00460  -0.00528  -0.00989   2.01701
    A8        2.17050   0.00096   0.00319   0.00250   0.00569   2.17619
    A9        2.08579   0.00086   0.00142   0.00278   0.00419   2.08998
   A10        2.13051   0.00016  -0.00288   0.00439   0.00142   2.13193
   A11        2.02932  -0.00069  -0.00697   0.00131  -0.00575   2.02357
   A12        2.12335   0.00053   0.00984  -0.00562   0.00413   2.12747
    D1       -1.02291   0.00002   0.00116  -0.00267  -0.00153  -1.02444
    D2        2.11805   0.00005   0.00092   0.00216   0.00306   2.12111
    D3        1.02364  -0.00006  -0.00091  -0.00241  -0.00330   1.02034
    D4       -2.11859  -0.00002  -0.00115   0.00242   0.00129  -2.11730
    D5       -3.14124  -0.00001   0.00013  -0.00246  -0.00233   3.13961
    D6       -0.00029   0.00002  -0.00011   0.00237   0.00226   0.00197
    D7       -3.14022  -0.00010   0.00051  -0.01080  -0.01030   3.13267
    D8       -0.00209   0.00014  -0.00077   0.01579   0.01502   0.01293
    D9        0.00198  -0.00013   0.00074  -0.01539  -0.01465  -0.01267
   D10        3.14010   0.00010  -0.00054   0.01121   0.01067  -3.13241
         Item               Value     Threshold  Converged?
 Maximum Force            0.005674     0.000002     NO 
 RMS     Force            0.001730     0.000001     NO 
 Maximum Displacement     0.021334     0.000006     NO 
 RMS     Displacement     0.010104     0.000004     NO 
 Predicted change in Energy=-7.530288D-05
 GradGradGradGradGradGradGradGradGradGradGradGradGradGradGradGradGradGrad

                          Input orientation:                          
 ---------------------------------------------------------------------
 Center     Atomic      Atomic             Coordinates (Angstroms)
 Number     Number       Type             X           Y           Z
 ---------------------------------------------------------------------
      1          6           0       -1.160425    0.065846   -0.078573
      2          6           0        0.162874   -0.072195    0.620215
      3          6           0        1.408906   -0.045354   -0.297586
      4          1           0       -1.189545    1.005945   -0.633448
      5          1           0       -1.278360   -0.736312   -0.810127
      6          1           0       -1.969540    0.033830    0.643512
      7          8           0        0.298743   -0.200810    1.802528
      8          8           0        2.516393   -0.136530    0.133606
      9          1           0        1.210954    0.085581   -1.380028
 ---------------------------------------------------------------------
                    Distance matrix (angstroms):
                    1          2          3          4          5
     1  C    0.000000
     2  C    1.502824   0.000000
     3  C    2.581046   1.547797   0.000000
     4  H    1.092026   2.136140   2.823116   0.000000
     5  H    1.092034   2.136372   2.821616   1.753444   0.000000
     6  H    1.084941   2.135175   3.507967   1.784384   1.784353
     7  O    2.395583   1.197024   2.380569   3.099232   3.098384
     8  O    3.688492   2.404160   1.191960   3.953176   3.956074
     9  H    2.705110   2.263700   1.108155   2.677097   2.682719
                    6          7          8          9
     6  H    0.000000
     7  O    2.558023   0.000000
     8  O    4.518033   2.776221   0.000000
     9  H    3.770005   3.323072   2.011117   0.000000
 Stoichiometry    C3H4O2
 Framework group  C1[X(C3H4O2)]
 Deg. of freedom    21
 Full point group                 C1      NOp   1
 Largest Abelian subgroup         C1      NOp   1
 Largest concise Abelian subgroup C1      NOp   1
                         Standard orientation:                         
 ---------------------------------------------------------------------
 Center     Atomic      Atomic             Coordinates (Angstroms)
 Number     Number       Type             X           Y           Z
 ---------------------------------------------------------------------
      1          6           0        1.685835   -0.631089    0.000947
      2          6           0        0.429216    0.193160    0.000183
      3          6           0       -0.895099   -0.607986   -0.005351
      4          1           0        1.700271   -1.282879    0.877008
      5          1           0        1.702923   -1.281051   -0.876433
      6          1           0        2.556991    0.015580    0.002902
      7          8           0        0.399457    1.389814   -0.000396
      8          8           0       -1.960175   -0.072899    0.002545
      9          1           0       -0.794152   -1.711489    0.004656
 ---------------------------------------------------------------------
 Rotational constants (GHZ):     10.5127129      4.0650189      2.9851544
 Standard basis: 6-311+G(2df,2p) (5D, 7F)
 There are   206 symmetry adapted basis functions of A   symmetry.
 Integral buffers will be    131072 words long.
 Raffenetti 2 integral format.
 Two-electron integral symmetry is turned on.
   206 basis functions,   304 primitive gaussians,   231 cartesian basis functions
    19 alpha electrons       19 beta electrons
       nuclear repulsion energy       159.8906079606 Hartrees.
 NAtoms=    9 NActive=    9 NUniq=    9 SFac= 1.00D+00 NAtFMM=   50 NAOKFM=F Big=F
 One-electron integrals computed using PRISM.
 NBasis=   206 RedAO= T  NBF=   206
 NBsUse=   206 1.00D-06 NBFU=   206
 Initial guess read from the read-write file.
 B after Tr=     0.000000    0.000000    0.000000
         Rot=    1.000000    0.000000    0.000000    0.000000 Ang=   0.00 deg.
 Initial guess orbital symmetries:
       Occupied  (A) (A) (A) (A) (A) (A) (A) (A) (A) (A) (A) (A)
                 (A) (A) (A) (A) (A) (A) (A)
       Virtual   (A) (A) (A) (A) (A) (A) (A) (A) (A) (A) (A) (A)
                 (A) (A) (A) (A) (A) (A) (A) (A) (A) (A) (A) (A)
                 (A) (A) (A) (A) (A) (A) (A) (A) (A) (A) (A) (A)
                 (A) (A) (A) (A) (A) (A) (A) (A) (A) (A) (A) (A)
                 (A) (A) (A) (A) (A) (A) (A) (A) (A) (A) (A) (A)
                 (A) (A) (A) (A) (A) (A) (A) (A) (A) (A) (A) (A)
                 (A) (A) (A) (A) (A) (A) (A) (A) (A) (A) (A) (A)
                 (A) (A) (A) (A) (A) (A) (A) (A) (A) (A) (A) (A)
                 (A) (A) (A) (A) (A) (A) (A) (A) (A) (A) (A) (A)
                 (A) (A) (A) (A) (A) (A) (A) (A) (A) (A) (A) (A)
                 (A) (A) (A) (A) (A) (A) (A) (A) (A) (A) (A) (A)
                 (A) (A) (A) (A) (A) (A) (A) (A) (A) (A) (A) (A)
                 (A) (A) (A) (A) (A) (A) (A) (A) (A) (A) (A) (A)
                 (A) (A) (A) (A) (A) (A) (A) (A) (A) (A) (A) (A)
                 (A) (A) (A) (A) (A) (A) (A) (A) (A) (A) (A) (A)
                 (A) (A) (A) (A) (A) (A) (A)
 Harris functional with IExCor= 1009 diagonalized for initial guess.
 ExpMin= 4.38D-02 ExpMax= 8.59D+03 ExpMxC= 1.30D+03 IAcc=2 IRadAn=         0 AccDes= 0.00D+00
 HarFok:  IExCor= 1009 AccDes= 0.00D+00 IRadAn=         0 IDoV= 1
 ScaDFX=  1.000000  1.000000  1.000000  1.000000
 FoFCou: FMM=F IPFlag=           0 FMFlag=      100000 FMFlg1=           0
         NFxFlg=           0 DoJE=T BraDBF=F KetDBF=T FulRan=T
         Omega=  0.000000  0.000000  1.000000  0.000000  0.000000 ICntrl=     500 IOpCl=  0
         NMat0=    1 NMatS0=    1 NMatT0=    0 NMatD0=    1 NMtDS0=    0 NMtDT0=    0
         I1Cent=           4 NGrid=           0.
 Petite list used in FoFCou.
 Requested convergence on RMS density matrix=1.00D-08 within 128 cycles.
 Requested convergence on MAX density matrix=1.00D-06.
 Requested convergence on             energy=1.00D-06.
 No special actions if energy rises.
 Keep R1 ints in memory in canonical form, NReq=365531615.
 SCF Done:  E(RM062X) =  -267.123301584     A.U. after   12 cycles
             Convg  =    0.9192D-08             -V/T =  2.0033
 Calling FoFJK, ICntrl=      2127 FMM=F ISym2X=0 I1Cent= 0 IOpClX= 0 NMat=1 NMatS=1 NMatT=0.
 ***** Axes restored to original set *****
 -------------------------------------------------------------------
 Center     Atomic                   Forces (Hartrees/Bohr)
 Number     Number              X              Y              Z
 -------------------------------------------------------------------
      1        6           0.000480573    0.000276540    0.000037215
      2        6          -0.000444741   -0.001544741    0.002148768
      3        6           0.001998453    0.002228357    0.000356431
      4        1          -0.000033783    0.000085884    0.000026212
      5        1           0.000102483   -0.000109955    0.000053326
      6        1          -0.000157224    0.000029582    0.000001876
      7        8           0.000004376    0.000489177   -0.002227915
      8        8          -0.001986950   -0.000609065   -0.000750702
      9        1           0.000036815   -0.000845779    0.000354789
 -------------------------------------------------------------------
 Cartesian Forces:  Max     0.002228357 RMS     0.001010769

 GradGradGradGradGradGradGradGradGradGradGradGradGradGradGradGradGradGrad
 Berny optimization.
 Using GDIIS optimizer.
 Internal  Forces:  Max     0.002252451 RMS     0.000643039
 Search for a local minimum.
 Step number   4 out of a maximum of   40
 All quantities printed in internal units (Hartrees-Bohrs-Radians)
 Swaping is turned off.
 Update second derivatives using D2CorX and points    1    2    3    4
 DE= -7.29D-05 DEPred=-7.53D-05 R= 9.68D-01
 SS=  1.41D+00  RLast= 3.74D-02 DXNew= 8.4853D-01 1.1221D-01
 Trust test= 9.68D-01 RLast= 3.74D-02 DXMaxT set to 5.05D-01
 ITU=  1  1  1  0
     Eigenvalues ---    0.00841   0.00984   0.01204   0.01564   0.07384
     Eigenvalues ---    0.07522   0.12931   0.15981   0.16006   0.16038
     Eigenvalues ---    0.19837   0.22138   0.25067   0.29913   0.32551
     Eigenvalues ---    0.32581   0.32808   0.33465   0.35794   0.79765
     Eigenvalues ---    0.88957
 DIIS coeff's:      0.48602      0.79511     -0.37577      0.09465
 Cosine:  0.987 >  0.710
 Length:  0.552
 GDIIS step was calculated using  4 of the last  4 vectors.
 Iteration  1 RMS(Cart)=  0.00726448 RMS(Int)=  0.00014221
 Iteration  2 RMS(Cart)=  0.00011112 RMS(Int)=  0.00009477
 Iteration  3 RMS(Cart)=  0.00000001 RMS(Int)=  0.00009477
 Variable       Old X    -DE/DX   Delta X   Delta X   Delta X     New X
                                  (DIIS)     (GDIIS)  (Total)
    R1        2.83993  -0.00037   0.00285  -0.00305  -0.00020   2.83973
    R2        2.06363   0.00006   0.00193  -0.00142   0.00052   2.06415
    R3        2.06365   0.00004   0.00193  -0.00145   0.00048   2.06413
    R4        2.05024   0.00012   0.00424  -0.00357   0.00067   2.05091
    R5        2.92491   0.00007  -0.00082   0.00745   0.00663   2.93154
    R6        2.26205  -0.00225  -0.00143   0.00194   0.00051   2.26255
    R7        2.25248  -0.00207  -0.00052   0.00125   0.00074   2.25322
    R8        2.09411  -0.00046   0.00206  -0.00200   0.00006   2.09417
    A1        1.91646   0.00002   0.00009  -0.00178  -0.00170   1.91476
    A2        1.91677  -0.00024  -0.00011  -0.00228  -0.00241   1.91436
    A3        1.92250   0.00018   0.00018   0.00251   0.00268   1.92519
    A4        1.86408   0.00011  -0.00121   0.00254   0.00129   1.86536
    A5        1.92164  -0.00008   0.00052  -0.00056  -0.00004   1.92160
    A6        1.92158   0.00001   0.00056  -0.00047   0.00009   1.92167
    A7        2.01701  -0.00022   0.00001  -0.00411  -0.00412   2.01289
    A8        2.17619   0.00039   0.00098   0.00207   0.00304   2.17923
    A9        2.08998  -0.00017  -0.00098   0.00206   0.00108   2.09106
   A10        2.13193  -0.00011  -0.00302   0.00347   0.00014   2.13208
   A11        2.02357   0.00008  -0.00425   0.00227  -0.00227   2.02129
   A12        2.12747   0.00006   0.00738  -0.00506   0.00202   2.12949
    D1       -1.02444   0.00012   0.00215   0.00289   0.00503  -1.01941
    D2        2.12111  -0.00010  -0.00044  -0.00333  -0.00378   2.11732
    D3        1.02034   0.00012   0.00057   0.00359   0.00418   1.02452
    D4       -2.11730  -0.00009  -0.00202  -0.00263  -0.00463  -2.12193
    D5        3.13961   0.00009   0.00132   0.00313   0.00446  -3.13912
    D6        0.00197  -0.00012  -0.00127  -0.00309  -0.00436  -0.00239
    D7        3.13267   0.00063   0.00577   0.01401   0.01979  -3.13073
    D8        0.01293  -0.00086  -0.00845  -0.02048  -0.02892  -0.01599
    D9       -0.01267   0.00083   0.00823   0.01990   0.02812   0.01545
   D10       -3.13241  -0.00065  -0.00599  -0.01459  -0.02058   3.13019
         Item               Value     Threshold  Converged?
 Maximum Force            0.002252     0.000002     NO 
 RMS     Force            0.000643     0.000001     NO 
 Maximum Displacement     0.024126     0.000006     NO 
 RMS     Displacement     0.007264     0.000004     NO 
 Predicted change in Energy=-5.611001D-05
 GradGradGradGradGradGradGradGradGradGradGradGradGradGradGradGradGradGrad

                          Input orientation:                          
 ---------------------------------------------------------------------
 Center     Atomic      Atomic             Coordinates (Angstroms)
 Number     Number       Type             X           Y           Z
 ---------------------------------------------------------------------
      1          6           0       -1.159985    0.065942   -0.078184
      2          6           0        0.161642   -0.071841    0.623585
      3          6           0        1.409389   -0.032587   -0.297357
      4          1           0       -1.187528    1.008164   -0.630069
      5          1           0       -1.271984   -0.735002   -0.812379
      6          1           0       -1.973126    0.030299    0.639729
      7          8           0        0.298495   -0.199991    1.806107
      8          8           0        2.517200   -0.141897    0.129851
      9          1           0        1.205898    0.076914   -1.381183
 ---------------------------------------------------------------------
                    Distance matrix (angstroms):
                    1          2          3          4          5
     1  C    0.000000
     2  C    1.502719   0.000000
     3  C    2.580587   1.551305   0.000000
     4  H    1.092299   2.135022   2.817417   0.000000
     5  H    1.092290   2.134728   2.819290   1.754707   0.000000
     6  H    1.085296   2.137272   3.510483   1.784873   1.784910
     7  O    2.397590   1.197292   2.384674   3.098847   3.099857
     8  O    3.688925   2.407765   1.192351   3.952863   3.949366
     9  H    2.700987   2.265324   1.108187   2.675797   2.668829
                    6          7          8          9
     6  H    0.000000
     7  O    2.563930   0.000000
     8  O    4.522461   2.781341   0.000000
     9  H    3.767287   3.325488   2.012614   0.000000
 Stoichiometry    C3H4O2
 Framework group  C1[X(C3H4O2)]
 Deg. of freedom    21
 Full point group                 C1      NOp   1
 Largest Abelian subgroup         C1      NOp   1
 Largest concise Abelian subgroup C1      NOp   1
                         Standard orientation:                         
 ---------------------------------------------------------------------
 Center     Atomic      Atomic             Coordinates (Angstroms)
 Number     Number       Type             X           Y           Z
 ---------------------------------------------------------------------
      1          6           0       -1.684124   -0.634516    0.001133
      2          6           0       -0.431149    0.195073    0.000241
      3          6           0        0.896312   -0.607640   -0.006537
      4          1           0       -1.696496   -1.283996   -0.877013
      5          1           0       -1.693308   -1.286178    0.877689
      6          1           0       -2.560062    0.006260    0.003478
      7          8           0       -0.402898    1.392031   -0.000463
      8          8           0        1.961716   -0.072362    0.003078
      9          1           0        0.793096   -1.710940    0.005900
 ---------------------------------------------------------------------
 Rotational constants (GHZ):     10.4764776      4.0620291      2.9807028
 Standard basis: 6-311+G(2df,2p) (5D, 7F)
 There are   206 symmetry adapted basis functions of A   symmetry.
 Integral buffers will be    131072 words long.
 Raffenetti 2 integral format.
 Two-electron integral symmetry is turned on.
   206 basis functions,   304 primitive gaussians,   231 cartesian basis functions
    19 alpha electrons       19 beta electrons
       nuclear repulsion energy       159.7832976020 Hartrees.
 NAtoms=    9 NActive=    9 NUniq=    9 SFac= 1.00D+00 NAtFMM=   50 NAOKFM=F Big=F
 One-electron integrals computed using PRISM.
 NBasis=   206 RedAO= T  NBF=   206
 NBsUse=   206 1.00D-06 NBFU=   206
 Initial guess read from the read-write file.
 B after Tr=     0.000000    0.000000    0.000000
         Rot=    1.000000    0.000000    0.000000    0.000000 Ang=   0.00 deg.
 Initial guess orbital symmetries:
       Occupied  (A) (A) (A) (A) (A) (A) (A) (A) (A) (A) (A) (A)
                 (A) (A) (A) (A) (A) (A) (A)
       Virtual   (A) (A) (A) (A) (A) (A) (A) (A) (A) (A) (A) (A)
                 (A) (A) (A) (A) (A) (A) (A) (A) (A) (A) (A) (A)
                 (A) (A) (A) (A) (A) (A) (A) (A) (A) (A) (A) (A)
                 (A) (A) (A) (A) (A) (A) (A) (A) (A) (A) (A) (A)
                 (A) (A) (A) (A) (A) (A) (A) (A) (A) (A) (A) (A)
                 (A) (A) (A) (A) (A) (A) (A) (A) (A) (A) (A) (A)
                 (A) (A) (A) (A) (A) (A) (A) (A) (A) (A) (A) (A)
                 (A) (A) (A) (A) (A) (A) (A) (A) (A) (A) (A) (A)
                 (A) (A) (A) (A) (A) (A) (A) (A) (A) (A) (A) (A)
                 (A) (A) (A) (A) (A) (A) (A) (A) (A) (A) (A) (A)
                 (A) (A) (A) (A) (A) (A) (A) (A) (A) (A) (A) (A)
                 (A) (A) (A) (A) (A) (A) (A) (A) (A) (A) (A) (A)
                 (A) (A) (A) (A) (A) (A) (A) (A) (A) (A) (A) (A)
                 (A) (A) (A) (A) (A) (A) (A) (A) (A) (A) (A) (A)
                 (A) (A) (A) (A) (A) (A) (A) (A) (A) (A) (A) (A)
                 (A) (A) (A) (A) (A) (A) (A)
 Harris functional with IExCor= 1009 diagonalized for initial guess.
 ExpMin= 4.38D-02 ExpMax= 8.59D+03 ExpMxC= 1.30D+03 IAcc=2 IRadAn=         0 AccDes= 0.00D+00
 HarFok:  IExCor= 1009 AccDes= 0.00D+00 IRadAn=         0 IDoV= 1
 ScaDFX=  1.000000  1.000000  1.000000  1.000000
 FoFCou: FMM=F IPFlag=           0 FMFlag=      100000 FMFlg1=           0
         NFxFlg=           0 DoJE=T BraDBF=F KetDBF=T FulRan=T
         Omega=  0.000000  0.000000  1.000000  0.000000  0.000000 ICntrl=     500 IOpCl=  0
         NMat0=    1 NMatS0=    1 NMatT0=    0 NMatD0=    1 NMtDS0=    0 NMtDT0=    0
         I1Cent=           4 NGrid=           0.
 Petite list used in FoFCou.
 Requested convergence on RMS density matrix=1.00D-08 within 128 cycles.
 Requested convergence on MAX density matrix=1.00D-06.
 Requested convergence on             energy=1.00D-06.
 No special actions if energy rises.
 Keep R1 ints in memory in canonical form, NReq=365531615.
 SCF Done:  E(RM062X) =  -267.123284660     A.U. after   12 cycles
             Convg  =    0.9856D-08             -V/T =  2.0034
 Calling FoFJK, ICntrl=      2127 FMM=F ISym2X=0 I1Cent= 0 IOpClX= 0 NMat=1 NMatS=1 NMatT=0.
 ***** Axes restored to original set *****
 -------------------------------------------------------------------
 Center     Atomic                   Forces (Hartrees/Bohr)
 Number     Number              X              Y              Z
 -------------------------------------------------------------------
      1        6           0.000320187   -0.000407513    0.000161281
      2        6           0.000944886    0.001379009    0.002263559
      3        6           0.001449227   -0.003116485    0.001274521
      4        1           0.000015313   -0.000122847    0.000070254
      5        1          -0.000152910    0.000133223    0.000037805
      6        1           0.000094301   -0.000024137   -0.000071262
      7        8          -0.000179339    0.000021429   -0.003235431
      8        8          -0.002853339    0.001219233   -0.001033407
      9        1           0.000361675    0.000918088    0.000532681
 -------------------------------------------------------------------
 Cartesian Forces:  Max     0.003235431 RMS     0.001279198

 GradGradGradGradGradGradGradGradGradGradGradGradGradGradGradGradGradGrad
 Berny optimization.
 Using GDIIS optimizer.
 Internal  Forces:  Max     0.003218120 RMS     0.000938883
 Search for a local minimum.
 Step number   5 out of a maximum of   40
 All quantities printed in internal units (Hartrees-Bohrs-Radians)
 Swaping is turned off.
 Update second derivatives using D2CorX and points    1    2    3    4    5
 DE=  1.69D-05 DEPred=-5.61D-05 R=-3.02D-01
 Trust test=-3.02D-01 RLast= 5.16D-02 DXMaxT set to 2.52D-01
 ITU= -1  1  1  1  0
     Eigenvalues ---    0.00841   0.00987   0.01204   0.05446   0.07281
     Eigenvalues ---    0.07435   0.09037   0.15740   0.16004   0.16144
     Eigenvalues ---    0.18722   0.22166   0.25112   0.29128   0.32495
     Eigenvalues ---    0.32581   0.32613   0.33607   0.35522   0.79770
     Eigenvalues ---    0.91176
 DIIS coeff's:      0.36340      0.46739      0.20480     -0.03191     -0.00368
 Cosine:  0.999 >  0.670
 Length:  1.002
 GDIIS step was calculated using  5 of the last  5 vectors.
 Iteration  1 RMS(Cart)=  0.00427459 RMS(Int)=  0.00004031
 Iteration  2 RMS(Cart)=  0.00003584 RMS(Int)=  0.00002212
 Iteration  3 RMS(Cart)=  0.00000000 RMS(Int)=  0.00002212
 Variable       Old X    -DE/DX   Delta X   Delta X   Delta X     New X
                                  (DIIS)     (GDIIS)  (Total)
    R1        2.83973  -0.00037   0.00050  -0.00115  -0.00065   2.83908
    R2        2.06415  -0.00014  -0.00075   0.00043  -0.00032   2.06382
    R3        2.06413  -0.00011  -0.00074   0.00044  -0.00030   2.06383
    R4        2.05091  -0.00012  -0.00084   0.00060  -0.00024   2.05067
    R5        2.93154  -0.00133  -0.00488   0.00019  -0.00469   2.92685
    R6        2.26255  -0.00322  -0.00277  -0.00038  -0.00315   2.25940
    R7        2.25322  -0.00313  -0.00297  -0.00013  -0.00310   2.25012
    R8        2.09417  -0.00050   0.00056  -0.00150  -0.00094   2.09323
    A1        1.91476  -0.00005   0.00183  -0.00094   0.00089   1.91565
    A2        1.91436   0.00027   0.00222  -0.00093   0.00128   1.91565
    A3        1.92519  -0.00006  -0.00264   0.00150  -0.00114   1.92405
    A4        1.86536  -0.00008  -0.00189   0.00128  -0.00061   1.86475
    A5        1.92160   0.00002   0.00032  -0.00047  -0.00015   1.92145
    A6        1.92167  -0.00010   0.00025  -0.00047  -0.00023   1.92145
    A7        2.01289   0.00040   0.00306  -0.00071   0.00235   2.01524
    A8        2.17923   0.00003  -0.00165   0.00084  -0.00081   2.17842
    A9        2.09106  -0.00043  -0.00141  -0.00013  -0.00153   2.08953
   A10        2.13208  -0.00013  -0.00021  -0.00040  -0.00054   2.13154
   A11        2.02129   0.00034   0.00103   0.00078   0.00189   2.02318
   A12        2.12949  -0.00016  -0.00072  -0.00037  -0.00102   2.12847
    D1       -1.01941  -0.00017  -0.00255  -0.00028  -0.00283  -1.02224
    D2        2.11732   0.00010   0.00226  -0.00019   0.00207   2.11940
    D3        1.02452  -0.00013  -0.00247   0.00018  -0.00230   1.02222
    D4       -2.12193   0.00014   0.00234   0.00027   0.00260  -2.11933
    D5       -3.13912  -0.00011  -0.00243  -0.00005  -0.00248   3.14158
    D6       -0.00239   0.00015   0.00238   0.00004   0.00242   0.00003
    D7       -3.13073  -0.00077  -0.01080  -0.00014  -0.01094   3.14151
    D8       -0.01599   0.00105   0.01578   0.00025   0.01603   0.00004
    D9        0.01545  -0.00102  -0.01534  -0.00023  -0.01557  -0.00012
   D10        3.13019   0.00080   0.01124   0.00016   0.01140   3.14159
         Item               Value     Threshold  Converged?
 Maximum Force            0.003218     0.000002     NO 
 RMS     Force            0.000939     0.000001     NO 
 Maximum Displacement     0.013379     0.000006     NO 
 RMS     Displacement     0.004281     0.000004     NO 
 Predicted change in Energy=-4.092604D-05
 GradGradGradGradGradGradGradGradGradGradGradGradGradGradGradGradGradGrad

                          Input orientation:                          
 ---------------------------------------------------------------------
 Center     Atomic      Atomic             Coordinates (Angstroms)
 Number     Number       Type             X           Y           Z
 ---------------------------------------------------------------------
      1          6           0       -1.159899    0.065853   -0.078223
      2          6           0        0.162336   -0.072017    0.621645
      3          6           0        1.408723   -0.039667   -0.297225
      4          1           0       -1.188309    1.006911   -0.631710
      5          1           0       -1.275171   -0.735790   -0.810909
      6          1           0       -1.971081    0.032245    0.641808
      7          8           0        0.299568   -0.200307    1.802420
      8          8           0        2.514830   -0.138885    0.132278
      9          1           0        1.209004    0.081657   -1.379984
 ---------------------------------------------------------------------
                    Distance matrix (angstroms):
                    1          2          3          4          5
     1  C    0.000000
     2  C    1.502375   0.000000
     3  C    2.580100   1.548822   0.000000
     4  H    1.092129   2.135235   2.819890   0.000000
     5  H    1.092130   2.135236   2.819883   1.754042   0.000000
     6  H    1.085168   2.136058   3.508565   1.784533   1.784532
     7  O    2.395350   1.195625   2.380029   3.097764   3.097746
     8  O    3.686443   2.403784   1.190710   3.950919   3.950950
     9  H    2.703060   2.263989   1.107688   2.676400   2.676414
                    6          7          8          9
     6  H    0.000000
     7  O    2.560653   0.000000
     8  O    4.517998   2.774983   0.000000
     9  H    3.768690   3.321787   2.010163   0.000000
 Stoichiometry    C3H4O2
 Framework group  C1[X(C3H4O2)]
 Deg. of freedom    21
 Full point group                 C1      NOp   1
 Largest Abelian subgroup         C1      NOp   1
 Largest concise Abelian subgroup C1      NOp   1
                         Standard orientation:                         
 ---------------------------------------------------------------------
 Center     Atomic      Atomic             Coordinates (Angstroms)
 Number     Number       Type             X           Y           Z
 ---------------------------------------------------------------------
      1          6           0        1.684881   -0.631413    0.000012
      2          6           0        0.429799    0.194360    0.000004
      3          6           0       -0.895111   -0.607801   -0.000042
      4          1           0        1.698698   -1.282110    0.877023
      5          1           0        1.698727   -1.282083   -0.877019
      6          1           0        2.558129    0.012814    0.000036
      7          8           0        0.399094    1.389590   -0.000010
      8          8           0       -1.959050   -0.073177    0.000027
      9          1           0       -0.793315   -1.710802   -0.000026
 ---------------------------------------------------------------------
 Rotational constants (GHZ):     10.5134474      4.0689874      2.9873736
 Standard basis: 6-311+G(2df,2p) (5D, 7F)
 There are   206 symmetry adapted basis functions of A   symmetry.
 Integral buffers will be    131072 words long.
 Raffenetti 2 integral format.
 Two-electron integral symmetry is turned on.
   206 basis functions,   304 primitive gaussians,   231 cartesian basis functions
    19 alpha electrons       19 beta electrons
       nuclear repulsion energy       159.9570614107 Hartrees.
 NAtoms=    9 NActive=    9 NUniq=    9 SFac= 1.00D+00 NAtFMM=   50 NAOKFM=F Big=F
 One-electron integrals computed using PRISM.
 NBasis=   206 RedAO= T  NBF=   206
 NBsUse=   206 1.00D-06 NBFU=   206
 Initial guess read from the read-write file.
 B after Tr=     0.000000    0.000000    0.000000
         Rot=    1.000000    0.000000    0.000000    0.000000 Ang=   0.00 deg.
 Initial guess orbital symmetries:
       Occupied  (A) (A) (A) (A) (A) (A) (A) (A) (A) (A) (A) (A)
                 (A) (A) (A) (A) (A) (A) (A)
       Virtual   (A) (A) (A) (A) (A) (A) (A) (A) (A) (A) (A) (A)
                 (A) (A) (A) (A) (A) (A) (A) (A) (A) (A) (A) (A)
                 (A) (A) (A) (A) (A) (A) (A) (A) (A) (A) (A) (A)
                 (A) (A) (A) (A) (A) (A) (A) (A) (A) (A) (A) (A)
                 (A) (A) (A) (A) (A) (A) (A) (A) (A) (A) (A) (A)
                 (A) (A) (A) (A) (A) (A) (A) (A) (A) (A) (A) (A)
                 (A) (A) (A) (A) (A) (A) (A) (A) (A) (A) (A) (A)
                 (A) (A) (A) (A) (A) (A) (A) (A) (A) (A) (A) (A)
                 (A) (A) (A) (A) (A) (A) (A) (A) (A) (A) (A) (A)
                 (A) (A) (A) (A) (A) (A) (A) (A) (A) (A) (A) (A)
                 (A) (A) (A) (A) (A) (A) (A) (A) (A) (A) (A) (A)
                 (A) (A) (A) (A) (A) (A) (A) (A) (A) (A) (A) (A)
                 (A) (A) (A) (A) (A) (A) (A) (A) (A) (A) (A) (A)
                 (A) (A) (A) (A) (A) (A) (A) (A) (A) (A) (A) (A)
                 (A) (A) (A) (A) (A) (A) (A) (A) (A) (A) (A) (A)
                 (A) (A) (A) (A) (A) (A) (A)
 Requested convergence on RMS density matrix=1.00D-08 within 128 cycles.
 Requested convergence on MAX density matrix=1.00D-06.
 Requested convergence on             energy=1.00D-06.
 No special actions if energy rises.
 Keep R1 ints in memory in canonical form, NReq=365531615.
 SCF Done:  E(RM062X) =  -267.123325737     A.U. after   15 cycles
             Convg  =    0.6805D-08             -V/T =  2.0033
 Calling FoFJK, ICntrl=      2127 FMM=F ISym2X=0 I1Cent= 0 IOpClX= 0 NMat=1 NMatS=1 NMatT=0.
 ***** Axes restored to original set *****
 -------------------------------------------------------------------
 Center     Atomic                   Forces (Hartrees/Bohr)
 Number     Number              X              Y              Z
 -------------------------------------------------------------------
      1        6           0.000091886   -0.000004746    0.000022253
      2        6          -0.000089172   -0.000000697   -0.000039747
      3        6          -0.000169107    0.000034419   -0.000123204
      4        1          -0.000016851   -0.000004829    0.000021647
      5        1          -0.000015436    0.000002014    0.000022866
      6        1          -0.000015064    0.000005747   -0.000047578
      7        8           0.000077095   -0.000005424    0.000036364
      8        8           0.000083299   -0.000012921    0.000043947
      9        1           0.000053351   -0.000013563    0.000063450
 -------------------------------------------------------------------
 Cartesian Forces:  Max     0.000169107 RMS     0.000058025

 GradGradGradGradGradGradGradGradGradGradGradGradGradGradGradGradGradGrad
 Berny optimization.
 Using GDIIS optimizer.
[...]
     5   1    -0.34   0.30  -0.11     0.08   0.16  -0.15    -0.46   0.25  -0.24
     6   1     0.00   0.00  -0.30    -0.58   0.52   0.00    -0.21   0.37   0.00
     7   8     0.00   0.00   0.04    -0.05   0.02   0.00     0.00   0.00   0.00
     8   8     0.00   0.00  -0.04    -0.03  -0.01   0.00    -0.01   0.02   0.00
     9   1     0.00   0.00  -0.62    -0.36  -0.07   0.00     0.35   0.00   0.00
                    13                     14                     15
                     A                      A                      A
 Frequencies --  1410.9421              1468.7856              1481.1555
 Red. masses --     1.3104                 1.0517                 1.0472
 Frc consts  --     1.5370                 1.3368                 1.3536
 IR Inten    --    15.2424                16.2569                10.1381
  Atom  AN      X      Y      Z        X      Y      Z        X      Y      Z
     1   6     0.07  -0.02   0.00    -0.04  -0.03   0.00     0.00   0.00  -0.06
     2   6    -0.08  -0.01   0.00    -0.02   0.01   0.00     0.00   0.00  -0.02
     3   6     0.06   0.07   0.00     0.01   0.01   0.00     0.00   0.00   0.01
     4   1    -0.17   0.01   0.03     0.18   0.48   0.36     0.46   0.14   0.06
     5   1    -0.17   0.01  -0.03     0.18   0.48  -0.36    -0.46  -0.14   0.06
     6   1    -0.06   0.14   0.00     0.23  -0.38   0.00     0.00   0.00   0.72
     7   8     0.01   0.02   0.00     0.01  -0.02   0.00     0.00   0.00   0.00
     8   8     0.04  -0.06   0.00     0.00  -0.01   0.00     0.00   0.00   0.00
     9   1    -0.94   0.01   0.00    -0.09   0.01   0.00     0.00   0.00  -0.03
                    16                     17                     18
                     A                      A                      A
 Frequencies --  1879.9679              1900.4911              2966.6669
 Red. masses --    12.1914                10.9320                 1.0862
 Frc consts  --    25.3866                23.2638                 5.6324
 IR Inten    --   184.6771                50.7522                77.9936
  Atom  AN      X      Y      Z        X      Y      Z        X      Y      Z
     1   6     0.02  -0.04   0.00     0.01  -0.03   0.00     0.00   0.00   0.00
     2   6    -0.02   0.67   0.00    -0.06   0.40   0.00     0.00   0.00   0.00
     3   6    -0.37   0.14   0.00     0.57  -0.27   0.00     0.00  -0.08   0.00
     4   1     0.06  -0.10  -0.07     0.04  -0.07  -0.04     0.00  -0.01   0.02
     5   1     0.06  -0.10   0.07     0.04  -0.07   0.04     0.00  -0.01  -0.02
     6   1    -0.10   0.16   0.00    -0.07   0.09   0.00     0.00   0.01   0.00
     7   8     0.01  -0.46   0.00     0.02  -0.25   0.00     0.00   0.00   0.00
     8   8     0.27  -0.13   0.00    -0.38   0.20   0.00     0.00   0.00   0.00
     9   1    -0.02   0.14   0.00    -0.24  -0.32   0.00    -0.07   0.99   0.00
                    19                     20                     21
                     A                      A                      A
 Frequencies --  3060.0939              3120.6006              3188.3118
 Red. masses --     1.0378                 1.0983                 1.1028
 Frc consts  --     5.7259                 6.3014                 6.6047
 IR Inten    --     1.0639                 1.8492                 1.6855
  Atom  AN      X      Y      Z        X      Y      Z        X      Y      Z
     1   6    -0.03   0.04   0.00     0.00   0.00   0.09    -0.06  -0.07   0.00
     2   6     0.00   0.00   0.00     0.00   0.00   0.00     0.00   0.00   0.00
     3   6     0.00   0.00   0.00     0.00   0.00   0.00     0.00   0.00   0.00
     4   1     0.01  -0.38   0.53    -0.01   0.43  -0.56    -0.01   0.15  -0.21
     5   1     0.01  -0.38  -0.53     0.01  -0.43  -0.56    -0.01   0.15   0.21
     6   1     0.30   0.24   0.00     0.00   0.00   0.02     0.74   0.55   0.00
     7   8     0.00   0.00   0.00     0.00   0.00   0.00     0.00   0.00   0.00
     8   8     0.00   0.00   0.00     0.00   0.00   0.00     0.00   0.00   0.00
     9   1     0.00  -0.03   0.00     0.00   0.00   0.00     0.00   0.00   0.00

 -------------------
 - Thermochemistry -
 -------------------
 Temperature   298.150 Kelvin.  Pressure   1.00000 Atm.
 Atom     1 has atomic number  6 and mass  12.00000
 Atom     2 has atomic number  6 and mass  12.00000
 Atom     3 has atomic number  6 and mass  12.00000
 Atom     4 has atomic number  1 and mass   1.00783
 Atom     5 has atomic number  1 and mass   1.00783
 Atom     6 has atomic number  1 and mass   1.00783
 Atom     7 has atomic number  8 and mass  15.99491
 Atom     8 has atomic number  8 and mass  15.99491
 Atom     9 has atomic number  1 and mass   1.00783
 Molecular mass:    72.02113 amu.
 Principal axes and moments of inertia in atomic units:
                           1         2         3
     Eigenvalues --   171.65794 443.44895 604.03386
           X            0.99909  -0.04258   0.00000
           Y            0.04258   0.99909   0.00000
           Z            0.00000   0.00000   1.00000
 This molecule is an asymmetric top.
 Rotational symmetry number  1.
 Rotational temperatures (Kelvin)      0.50457     0.19532     0.14339
 Rotational constants (GHZ):          10.51359     4.06978     2.98781
 Zero-point vibrational energy     172932.3 (Joules/Mol)
                                   41.33182 (Kcal/Mol)
 Warning -- explicit consideration of   5 degrees of freedom as
           vibrations may cause significant error
 Vibrational temperatures:    124.46   257.31   382.97   586.36   675.83
          (Kelvin)            935.24  1187.61  1279.66  1416.61  1559.74
                             1720.76  2009.54  2030.03  2113.25  2131.05
                             2704.85  2734.38  4268.37  4402.79  4489.84
                             4587.26
 
 Zero-point correction=                           0.065866 (Hartree/Particle)
 Thermal correction to Energy=                    0.071440
 Thermal correction to Enthalpy=                  0.072385
 Thermal correction to Gibbs Free Energy=         0.037023
 Sum of electronic and zero-point Energies=           -267.057459
 Sum of electronic and thermal Energies=              -267.051886
 Sum of electronic and thermal Enthalpies=            -267.050941
 Sum of electronic and thermal Free Energies=         -267.086303
 
                     E (Thermal)             CV                S
                      KCal/Mol        Cal/Mol-Kelvin    Cal/Mol-Kelvin
 Total                   44.829             17.652             74.425
 Electronic               0.000              0.000              0.000
 Translational            0.889              2.981             38.740
 Rotational               0.889              2.981             25.334
 Vibrational             43.052             11.690             10.351
 Vibration     1          0.601              1.959              3.738
 Vibration     2          0.629              1.868              2.340
 Vibration     3          0.672              1.735              1.621
 Vibration     4          0.772              1.454              0.935
 Vibration     5          0.827              1.317              0.738
                       Q            Log10(Q)             Ln(Q)
 Total Bot       0.934680D-17        -17.029337        -39.211497
 Total V=0       0.184953D+14         13.267062         30.548540
 Vib (Bot)       0.506859D-29        -29.295113        -67.454490
 Vib (Bot)    1  0.237830D+01          0.376267          0.866387
 Vib (Bot)    2  0.112351D+01          0.050575          0.116454
 Vib (Bot)    3  0.727476D+00         -0.138182         -0.318175
 Vib (Bot)    4  0.434919D+00         -0.361592         -0.832596
 Vib (Bot)    5  0.359171D+00         -0.444699         -1.023958
 Vib (V=0)       0.100297D+02          1.001286          2.305547
 Vib (V=0)    1  0.293029D+01          0.466911          1.075103
 Vib (V=0)    2  0.172974D+01          0.237981          0.547972
 Vib (V=0)    3  0.138273D+01          0.140739          0.324063
 Vib (V=0)    4  0.116269D+01          0.065463          0.150734
 Vib (V=0)    5  0.111563D+01          0.047521          0.109422
 Electronic      0.100000D+01          0.000000          0.000000
 Translational   0.240240D+08          7.380645         16.994563
 Rotational      0.767593D+05          4.885131         11.248429
 ***** Axes restored to original set *****
 -------------------------------------------------------------------
 Center     Atomic                   Forces (Hartrees/Bohr)
 Number     Number              X              Y              Z
 -------------------------------------------------------------------
      1        6          -0.000000156   -0.000000286    0.000002035
      2        6           0.000001360   -0.000000069   -0.000000050
      3        6          -0.000000710    0.000000493   -0.000002819
      4        1          -0.000001386   -0.000000125    0.000002333
      5        1          -0.000001418   -0.000000191    0.000002304
      6        1           0.000001190   -0.000000440    0.000003703
      7        8           0.000003389   -0.000000080   -0.000000606
      8        8           0.000000272    0.000000348   -0.000004700
      9        1          -0.000002541    0.000000350   -0.000002200
 -------------------------------------------------------------------
 Cartesian Forces:  Max     0.000004700 RMS     0.000001830

 GradGradGradGradGradGradGradGradGradGradGradGradGradGradGradGradGradGrad
 Berny optimization.
 Internal  Forces:  Max     0.000000151 RMS     0.000000058
 Search for a local minimum.
 Step number   1 out of a maximum of    2
 All quantities printed in internal units (Hartrees-Bohrs-Radians)
 Swaping is turned off.
 Second derivative matrix not updated -- analytic derivatives used.
 ITU=  0
     Eigenvalues ---    0.00126   0.00227   0.02806   0.05254   0.05435
     Eigenvalues ---    0.06719   0.12000   0.12461   0.12548   0.13007
     Eigenvalues ---    0.16812   0.19484   0.22432   0.27293   0.30430
     Eigenvalues ---    0.31627   0.33993   0.34561   0.35733   0.93651
     Eigenvalues ---    0.96103
 Angle between quadratic step and forces=  69.67 degrees.
 Linear search not attempted -- option 19 set.
 Iteration  1 RMS(Cart)=  0.00001483 RMS(Int)=  0.00000000
 Iteration  2 RMS(Cart)=  0.00000000 RMS(Int)=  0.00000000
 Variable       Old X    -DE/DX   Delta X   Delta X   Delta X     New X
                                 (Linear)    (Quad)   (Total)
    R1        2.83880   0.00000   0.00000   0.00000   0.00000   2.83880
    R2        2.06380   0.00000   0.00000   0.00000   0.00000   2.06380
    R3        2.06380   0.00000   0.00000   0.00000   0.00000   2.06380
    R4        2.05063   0.00000   0.00000   0.00000   0.00000   2.05063
    R5        2.92682   0.00000   0.00000   0.00000   0.00000   2.92682
    R6        2.25945   0.00000   0.00000   0.00000   0.00000   2.25945
    R7        2.25026   0.00000   0.00000   0.00000   0.00000   2.25026
    R8        2.09295   0.00000   0.00000   0.00000   0.00000   2.09295
    A1        1.91562   0.00000   0.00000   0.00000   0.00000   1.91562
    A2        1.91562   0.00000   0.00000   0.00000   0.00000   1.91562
    A3        1.92466   0.00000   0.00000   0.00000   0.00000   1.92466
    A4        1.86480   0.00000   0.00000   0.00000   0.00000   1.86480
    A5        1.92113   0.00000   0.00000   0.00000   0.00000   1.92113
    A6        1.92113   0.00000   0.00000   0.00000   0.00000   1.92113
    A7        2.01519   0.00000   0.00000   0.00000   0.00000   2.01519
    A8        2.17887   0.00000   0.00000   0.00000   0.00000   2.17887
    A9        2.08912   0.00000   0.00000   0.00000   0.00000   2.08912
   A10        2.13115   0.00000   0.00000   0.00000   0.00000   2.13115
   A11        2.02382   0.00000   0.00000   0.00000   0.00000   2.02382
   A12        2.12821   0.00000   0.00000   0.00000   0.00000   2.12821
    D1       -1.02224   0.00000   0.00000  -0.00001  -0.00001  -1.02225
    D2        2.11935   0.00000   0.00000  -0.00001  -0.00001   2.11934
    D3        1.02225   0.00000   0.00000  -0.00001  -0.00001   1.02224
    D4       -2.11934   0.00000   0.00000  -0.00001  -0.00001  -2.11935
    D5       -3.14159   0.00000   0.00000  -0.00001  -0.00001   3.14159
    D6        0.00000   0.00000   0.00000  -0.00001  -0.00001   0.00000
    D7        3.14156   0.00000   0.00000   0.00004   0.00004  -3.14159
    D8       -0.00003   0.00000   0.00000   0.00003   0.00003   0.00001
    D9       -0.00003   0.00000   0.00000   0.00004   0.00004   0.00001
   D10        3.14157   0.00000   0.00000   0.00003   0.00003  -3.14159
         Item               Value     Threshold  Converged?
 Maximum Force            0.000000     0.000002     YES
 RMS     Force            0.000000     0.000001     YES
 Maximum Displacement     0.000054     0.000006     NO 
 RMS     Displacement     0.000015     0.000004     NO 
 Predicted change in Energy=-3.975115D-12
 GradGradGradGradGradGradGradGradGradGradGradGradGradGradGradGradGradGrad


 Test job not archived.
 1\1\GINC-COMPUTE-3-046\Freq\RM062X\6-311+G(2df,2p)\C3H4O2\ROOT\16-Feb-
 2017\0\\#N Geom=AllCheck Guess=TCheck SCRF=Check Test GenChk RM062X/6-
 311+G(2df,2p) Freq\\InChI=1S/C3H4O2/c1-3(5)2-4/h2H,1H3\\0,1\C,-1.15990
 03453,0.0658374105,-0.0780862916\C,0.1622520276,-0.0720146842,0.621627
 7262\C,1.4085281812,-0.0396133499,-0.2973681507\H,-1.1883338298,1.0069
 026678,-0.6315309551\H,-1.2751867966,-0.7358042291,-0.8107479531\H,-1.
 9714592231,0.0322838784,0.6414863625\O,0.3001025922,-0.2003135986,1.80
 23526472\O,2.5145842707,-0.1389107741,0.1324607675\H,1.2094131565,0.08
 16333494,-1.380094084\\Version=EM64L-G09RevB.01\State=1-A\HF=-267.1233
 259\RMSD=4.931e-09\RMSF=1.830e-06\ZeroPoint=0.0658664\Thermal=0.071440
 3\Dipole=-1.1713219,0.1907471,-1.287341\DipoleDeriv=-0.3511829,0.03800
 9,-0.1802024,0.0370775,0.034572,0.0313267,-0.171151,0.0308771,-0.17765
 79,1.0127651,-0.0619357,0.2098182,-0.0619817,0.2146659,-0.083439,0.210
 2948,-0.0834631,0.9126105,0.8158166,-0.0404437,0.100175,-0.03207,0.218
 9024,-0.0641046,0.0187652,-0.060048,0.7856564,0.0513673,-0.033013,-0.0
 146913,-0.0120822,-0.006854,0.0594234,0.0170987,0.0465818,0.0736239,0.
 0553017,0.0309839,-0.0146673,0.0039057,0.0137191,-0.0700303,0.0133167,
 -0.060168,0.0491152,-0.0016673,0.002256,0.0205167,-0.0020184,0.0855011
 ,0.0052282,0.0620793,0.0031567,0.0251584,-0.5899546,0.0164216,-0.02310
 16,0.0177346,-0.3162757,0.0705607,-0.0358654,0.0711966,-0.9830315,-0.9
 802824,0.0397273,-0.0613189,0.0422207,-0.3135188,0.0191754,-0.0856091,
 0.0203862,-0.4662448,-0.0121635,0.0079947,-0.0365285,0.0072137,0.06928
 79,0.0318596,-0.0289291,0.0314807,-0.2192301\Polar=48.0376276,-1.19435
 63,28.7530341,2.1542264,-1.7499352,44.4865233\PG=C01 [X(C3H4O2)]\NImag
 =0\\0.52381842,0.00671669,0.52079131,-0.06670119,-0.00164660,0.5692886
 4,-0.19646365,0.00869604,-0.02870567,0.49958065,0.00867047,-0.08190778
 ,0.00260741,-0.02550038,0.20436521,-0.02845310,0.00259489,-0.09265137,
 0.09986580,-0.08877052,1.00875315,-0.01771073,0.00041515,0.01476736,-0
 .11876445,-0.00058568,0.01527190,0.93416286,0.00345600,0.02093047,-0.0
 0010968,-0.00217425,-0.09891379,0.00012060,-0.06230376,0.16907354,-0.0
 1480166,0.00136441,0.01499946,0.03072632,-0.00065055,-0.10758397,0.230
 69247,-0.06087264,0.63995305,-0.04968735,0.01112209,-0.00199583,0.0047
 1202,0.02757263,-0.01310292,0.00016881,-0.00421717,-0.00012210,0.04724
 061,0.00619187,-0.24210995,0.11898261,-0.00019528,-0.00146852,0.000858
 42,0.00028845,-0.00010914,0.00140812,-0.00743064,0.26393850,0.00024790
 ,0.12189759,-0.11003245,0.00069404,0.01355328,-0.01162365,0.00015681,-
 0.00170730,0.00050266,0.00480815,-0.13009045,0.11995500,-0.05299391,-0
 .02530897,-0.01864325,0.00210913,-0.02455926,-0.01835361,0.00055019,0.
 00410123,0.00058536,-0.00003069,0.00126909,0.00178998,0.05044489,-0.02
 090769,-0.18553446,-0.13405789,-0.00004381,0.00339960,0.00357722,-0.00
 039843,-0.00051633,-0.00160425,-0.00386948,-0.02088405,-0.01966054,0.0
 2320480,0.20321205,-0.01574317,-0.13722928,-0.16330121,-0.00052384,-0.
 01069390,-0.01388914,0.00024883,0.00151416,0.00052845,0.00287420,0.012
 69773,0.01141614,0.02205246,0.14645932,0.17747708,-0.20353278,-0.00668
 378,0.14003573,-0.02499117,-0.00121238,0.02362824,-0.00194763,0.000846
 73,-0.00602653,0.00235606,-0.00041148,-0.00290644,0.00446051,0.0009484
 0,-0.00434959,0.21987621,-0.00708537,-0.04895310,0.00603765,0.00267400
 ,-0.00043726,-0.00251572,0.00041145,0.00249578,0.00087076,-0.02180197,
 0.00086038,0.01724467,0.01910135,0.00160332,-0.01444146,0.00700685,0.0
 4654450,0.14394070,0.00584300,-0.17525812,-0.01416407,-0.00063214,0.01
 244890,-0.00179389,0.00065987,-0.00294104,0.00991009,-0.00142001,-0.00
 913859,0.01431576,0.00265422,-0.01198602,-0.15229581,-0.00661816,0.184
 37273,0.00291955,0.00581205,-0.04618883,-0.11572104,0.01150503,-0.0839
 9355,0.00922264,-0.00284668,0.03343559,-0.00453302,0.00008658,-0.00410
 709,-0.00413061,0.00106778,-0.00381769,0.00577353,-0.00052139,0.001670
 45,0.10483761,0.00341825,0.02313671,0.00892119,0.01175360,-0.06711490,
 0.08109649,-0.00044592,0.02044429,0.00664584,-0.00305376,-0.00042296,-
 0.00168705,0.00398347,-0.00150742,0.00198267,-0.00034122,-0.00119135,-
 0.00032553,-0.01413143,0.03156736,-0.02291397,0.00776118,-0.04013911,-
 0.08640737,0.08121741,-0.80604035,0.01009176,0.00780879,-0.05971592,-0
 .00330575,-0.00133248,-0.00078459,-0.00243436,0.00151917,-0.00010245,-
 0.00008192,-0.00023818,0.00111400,0.09679245,-0.09569312,0.90459924,-0
 .00634869,-0.00069815,0.00865436,-0.06061150,0.00527813,-0.01197665,-0
 .74815198,0.06143942,-0.25994999,0.00044242,0.00001303,-0.00054933,0.0
 0037049,0.00006415,-0.00057031,-0.00265903,0.00025751,-0.00147998,0.00
 663741,-0.00053617,0.00076573,0.82959793,-0.00011032,-0.00245624,-0.00
 038320,0.00280195,0.02038041,0.00093128,0.06181287,-0.05748186,0.02913
 623,0.00070236,0.00002300,0.00031243,-0.00079363,0.00002249,-0.0002148
 3,-0.00003807,-0.00053606,-0.00008120,-0.00058869,-0.00239882,-0.00115
 082,-0.07064178,0.02523551,0.00293634,-0.00009863,-0.00296619,0.012103
 01,-0.00026812,0.01736256,-0.26357515,0.02931697,-0.20882195,0.0003055
 3,-0.00060827,-0.00021424,0.00021310,0.00062430,-0.00014169,0.00139347
 ,-0.00022435,0.00096007,0.00127625,-0.00117629,0.00827270,0.29395327,-
 0.03300533,0.19689217,-0.00000086,-0.00007113,-0.00122267,0.01015001,-
 0.00116857,0.01711390,-0.05752971,0.00169847,-0.01453946,-0.00066886,0
 .00018837,-0.00013403,-0.00078001,-0.00006572,-0.00017087,0.00066430,-
 0.00004243,-0.00010325,-0.00500606,-0.00064684,0.00749343,-0.01927704,
 0.00685531,-0.04860582,0.07244822,-0.00034991,-0.00389695,-0.00035149,
 0.00198813,0.02169702,0.00210733,0.00080587,-0.05592296,0.02370207,0.0
 0097592,0.00017274,0.00013736,-0.00099808,0.00020479,-0.00007440,-0.00
 011506,-0.00038621,-0.00008004,-0.00038326,-0.00251291,0.00010805,0.00
 482386,0.01721156,0.00543972,-0.00674746,0.02343293,0.00148816,-0.0004
 8657,0.00006034,-0.01358822,0.00363713,-0.00677612,-0.00586008,0.02326
 923,-0.27692074,0.00062863,-0.00049568,-0.00008027,0.00047455,0.000488
 46,-0.00000115,0.00060287,-0.00011521,0.00042807,0.00493242,0.00023581
 ,-0.00720352,-0.02884710,0.00445544,-0.01134343,0.04016878,-0.03098861
 ,0.30183682\\0.00000016,0.00000029,-0.00000204,-0.00000136,0.00000007,
 0.00000005,0.00000071,-0.00000049,0.00000282,0.00000139,0.00000012,-0.
 00000233,0.00000142,0.00000019,-0.00000230,-0.00000119,0.00000044,-0.0
 0000370,-0.00000339,0.00000008,0.00000061,-0.00000027,-0.00000035,0.00
 000470,0.00000254,-0.00000035,0.00000220\\\@


 IT IS BY EATING THE LIGHT OF A STAR THAT WE EXIST, 
 IN THE FINAL ANALYSIS, 
 JUST AS IT IS BY PERCEIVING THE LIGHT OF STARS
 THAT WE DEFINE THE WORLD AROUND US.

                                    -- GILBERT GROSVENOR
 Job cpu time:  0 days  0 hours 34 minutes 42.7 seconds.
 File lengths (MBytes):  RWF=   1312 Int=      0 D2E=      0 Chk=     32 Scr=     32
 Normal termination of Gaussian 09 at Thu Feb 16 22:18:34 2017.
