 Entering Gaussian System, Link 0=/shared/apps/gaussian/G09_LINUX_LINDA/g09/g09
 Input=/gss_gpfs_scratch/harms.n/QMscratch/AIVTYOZVLPKQBN-UHFFFAOYSA-u2,3.gjf
 Output=/gss_gpfs_scratch/harms.n/QMscratch/AIVTYOZVLPKQBN-UHFFFAOYSA-u2,3.log
 Initial command:
 /shared/apps/gaussian/G09_LINUX_LINDA/g09/l1.exe /gss_gpfs_scratch/harms.n/comparerTST/Gau-28054.inp -scrdir=/gss_gpfs_scratch/harms.n/comparerTST/
 Entering Link 1 = /shared/apps/gaussian/G09_LINUX_LINDA/g09/l1.exe PID=     28055.
  
 Copyright (c) 1988,1990,1992,1993,1995,1998,2003,2009,2010,
            Gaussian, Inc.  All Rights Reserved.
  
 This is part of the Gaussian(R) 09 program.  It is based on
 the Gaussian(R) 03 system (copyright 2003, Gaussian, Inc.),
 the Gaussian(R) 98 system (copyright 1998, Gaussian, Inc.),
 the Gaussian(R) 94 system (copyright 1995, Gaussian, Inc.),
 the Gaussian 92(TM) system (copyright 1992, Gaussian, Inc.),
 the Gaussian 90(TM) system (copyright 1990, Gaussian, Inc.),
 the Gaussian 88(TM) system (copyright 1988, Gaussian, Inc.),
 the Gaussian 86(TM) system (copyright 1986, Carnegie Mellon
 University), and the Gaussian 82(TM) system (copyright 1983,
 Carnegie Mellon University). Gaussian is a federally registered
 trademark of Gaussian, Inc.
  
 This software contains proprietary and confidential information,
 including trade secrets, belonging to Gaussian, Inc.
  
 This software is provided under written license and may be
 used, copied, transmitted, or stored only in accord with that
 written license.
  
 The following legend is applicable only to US Government
 contracts under FAR:
  
                    RESTRICTED RIGHTS LEGEND
  
 Use, reproduction and disclosure by the US Government is
 subject to restrictions as set forth in subparagraphs (a)
 and (c) of the Commercial Computer Software - Restricted
 Rights clause in FAR 52.227-19.
  
 Gaussian, Inc.
 340 Quinnipiac St., Bldg. 40, Wallingford CT 06492
  
  
 ---------------------------------------------------------------
 Warning -- This program may not be used in any manner that
 competes with the business of Gaussian, Inc. or will provide
 assistance to any competitor of Gaussian, Inc.  The licensee
 of this program is prohibited from giving any competitor of
 Gaussian, Inc. access to this program.  By using this program,
 the user acknowledges that Gaussian, Inc. is engaged in the
 business of creating and licensing software in the field of
 computational chemistry and represents and warrants to the
 licensee that it is not a competitor of Gaussian, Inc. and that
 it will not use this program in any manner prohibited above.
 ---------------------------------------------------------------
  

 Cite this work as:
 Gaussian 09, Revision B.01,
 M. J. Frisch, G. W. Trucks, H. B. Schlegel, G. E. Scuseria, 
 M. A. Robb, J. R. Cheeseman, G. Scalmani, V. Barone, B. Mennucci, 
 G. A. Petersson, H. Nakatsuji, M. Caricato, X. Li, H. P. Hratchian, 
 A. F. Izmaylov, J. Bloino, G. Zheng, J. L. Sonnenberg, M. Hada, 
 M. Ehara, K. Toyota, R. Fukuda, J. Hasegawa, M. Ishida, T. Nakajima, 
 Y. Honda, O. Kitao, H. Nakai, T. Vreven, J. A. Montgomery, Jr., 
 J. E. Peralta, F. Ogliaro, M. Bearpark, J. J. Heyd, E. Brothers, 
 K. N. Kudin, V. N. Staroverov, T. Keith, R. Kobayashi, J. Normand, 
 K. Raghavachari, A. Rendell, J. C. Burant, S. S. Iyengar, J. Tomasi, 
 M. Cossi, N. Rega, J. M. Millam, M. Klene, J. E. Knox, J. B. Cross, 
 V. Bakken, C. Adamo, J. Jaramillo, R. Gomperts, R. E. Stratmann, 
 O. Yazyev, A. J. Austin, R. Cammi, C. Pomelli, J. W. Ochterski, 
 R. L. Martin, K. Morokuma, V. G. Zakrzewski, G. A. Voth, 
 P. Salvador, J. J. Dannenberg, S. Dapprich, A. D. Daniels, 
 O. Farkas, J. B. Foresman, J. V. Ortiz, J. Cioslowski, 
 and D. J. Fox, Gaussian, Inc., Wallingford CT, 2010.
 
 ******************************************
 Gaussian 09:  EM64L-G09RevB.01 12-Aug-2010
                23-Aug-2017 
 ******************************************
 %nprocshared=20
 Will use up to   20 processors via shared memory.
 %mem=5GB
 --------------------------------------------------------------
 # m062x/6-311+g(2df,2p) opt=(verytight,gdiis) freq IOP(2/16=3)
 --------------------------------------------------------------

 Warning!  Use of Opt=GDIIS is deprecated since it is seldom a good choice.

 1/7=1,14=-1,18=20,19=11,26=3,38=1/1,3;
 2/9=110,12=2,16=3,17=6,18=5,40=1/2;
 3/5=4,6=6,7=214,11=2,16=1,25=1,30=1,71=1,74=-55/1,2,3;
 4//1;
 5/5=2,38=5/2;
 6/7=2,8=2,9=2,10=2,28=1/1;
 7//1,2,3,16;
 1/7=1,14=-1,18=20,19=11/3(2);
 2/9=110,16=3/2;
 99//99;
 2/9=110,16=3/2;
 3/5=4,6=6,7=214,11=2,16=1,25=1,30=1,71=1,74=-55/1,2,3;
 4/5=5,16=3/1;
 5/5=2,38=5/2;
 7//1,2,3,16;
 1/7=1,14=-1,18=20,19=11/3(-5);
 2/9=110,16=3/2;
 6/7=2,8=2,9=2,10=2,19=2,28=1/1;
 99/9=1/99;
 ----------------------------------------------
 InChI=1S/C5H6O/c1-2-4-6-5-3-1/h1-2H,4-5H2/u2,3
 ----------------------------------------------
 Symbolic Z-matrix:
 Charge =  0 Multiplicity = 3
 C                    -0.0262    1.073    -0.5882 
 C                    -1.3158   -0.6895    0.1903 
 C                     1.3108    0.3473   -0.3963 
 C                     1.1388   -0.9193    0.3966 
 O                    -1.0469    0.1515   -0.9192 
 C                    -0.0777   -1.4011    0.6738 
 H                    -0.2909    1.6555    0.3245 
 H                     0.0849    1.7967   -1.4219 
 H                    -1.7738   -0.1129    1.024 
 H                    -2.0504   -1.4577   -0.1272 
 H                     2.0317    1.0205    0.1142 
 H                     2.0156   -1.464     0.7295 
 

 GradGradGradGradGradGradGradGradGradGradGradGradGradGradGradGradGradGrad
 Berny optimization.
 Initialization pass.
                           ----------------------------
                           !    Initial Parameters    !
                           ! (Angstroms and Degrees)  !
 --------------------------                            --------------------------
 ! Name  Definition              Value          Derivative Info.                !
 --------------------------------------------------------------------------------
 ! R1    R(1,3)                  1.5333         estimate D2E/DX2                !
 ! R2    R(1,5)                  1.4144         estimate D2E/DX2                !
 ! R3    R(1,7)                  1.1146         estimate D2E/DX2                !
 ! R4    R(1,8)                  1.1096         estimate D2E/DX2                !
 ! R5    R(2,5)                  1.4179         estimate D2E/DX2                !
 ! R6    R(2,6)                  1.5077         estimate D2E/DX2                !
 ! R7    R(2,9)                  1.1123         estimate D2E/DX2                !
 ! R8    R(2,10)                 1.1093         estimate D2E/DX2                !
 ! R9    R(3,4)                  1.5042         estimate D2E/DX2                !
 ! R10   R(3,11)                 1.1106         estimate D2E/DX2                !
 ! R11   R(4,6)                  1.3375         estimate D2E/DX2                !
 ! R12   R(4,12)                 1.0846         estimate D2E/DX2                !
 ! A1    A(3,1,5)              110.4988         estimate D2E/DX2                !
 ! A2    A(3,1,7)              110.6056         estimate D2E/DX2                !
 ! A3    A(3,1,8)              108.3865         estimate D2E/DX2                !
 ! A4    A(5,1,7)              111.1448         estimate D2E/DX2                !
 ! A5    A(5,1,8)              108.7451         estimate D2E/DX2                !
 ! A6    A(7,1,8)              107.3481         estimate D2E/DX2                !
 ! A7    A(5,2,6)              112.0331         estimate D2E/DX2                !
 ! A8    A(5,2,9)              110.922          estimate D2E/DX2                !
 ! A9    A(5,2,10)             108.2014         estimate D2E/DX2                !
 ! A10   A(6,2,9)              110.0251         estimate D2E/DX2                !
 ! A11   A(6,2,10)             107.9837         estimate D2E/DX2                !
 ! A12   A(9,2,10)             107.5072         estimate D2E/DX2                !
 ! A13   A(1,3,4)              111.3953         estimate D2E/DX2                !
 ! A14   A(1,3,11)             109.6719         estimate D2E/DX2                !
 ! A15   A(4,3,11)             110.019          estimate D2E/DX2                !
 ! A16   A(3,4,6)              121.1038         estimate D2E/DX2                !
 ! A17   A(3,4,12)             119.4891         estimate D2E/DX2                !
 ! A18   A(6,4,12)             119.3914         estimate D2E/DX2                !
 ! A19   A(1,5,2)              109.8864         estimate D2E/DX2                !
 ! A20   A(2,6,4)              120.6929         estimate D2E/DX2                !
 ! D1    D(5,1,3,4)            -43.223          estimate D2E/DX2                !
 ! D2    D(5,1,3,11)          -165.264          estimate D2E/DX2                !
 ! D3    D(7,1,3,4)             80.2813         estimate D2E/DX2                !
 ! D4    D(7,1,3,11)           -41.7597         estimate D2E/DX2                !
 ! D5    D(8,1,3,4)           -162.2885         estimate D2E/DX2                !
 ! D6    D(8,1,3,11)            75.6706         estimate D2E/DX2                !
 ! D7    D(3,1,5,2)             67.8288         estimate D2E/DX2                !
 ! D8    D(7,1,5,2)            -55.363          estimate D2E/DX2                !
 ! D9    D(8,1,5,2)           -173.3234         estimate D2E/DX2                !
 ! D10   D(6,2,5,1)            -55.9741         estimate D2E/DX2                !
 ! D11   D(9,2,5,1)             67.4068         estimate D2E/DX2                !
 ! D12   D(10,2,5,1)          -174.9005         estimate D2E/DX2                !
 ! D13   D(5,2,6,4)             21.8595         estimate D2E/DX2                !
 ! D14   D(9,2,6,4)           -102.0249         estimate D2E/DX2                !
 ! D15   D(10,2,6,4)           140.9142         estimate D2E/DX2                !
 ! D16   D(1,3,4,6)              9.9977         estimate D2E/DX2                !
 ! D17   D(1,3,4,12)          -171.4535         estimate D2E/DX2                !
 ! D18   D(11,3,4,6)           131.8377         estimate D2E/DX2                !
 ! D19   D(11,3,4,12)          -49.6134         estimate D2E/DX2                !
 ! D20   D(3,4,6,2)              0.3639         estimate D2E/DX2                !
 ! D21   D(12,4,6,2)          -178.1863         estimate D2E/DX2                !
 --------------------------------------------------------------------------------
 Trust Radius=3.00D-01 FncErr=1.00D-07 GrdErr=1.00D-06
 Number of steps in this run=     63 maximum allowed number of steps=    100.
 GradGradGradGradGradGradGradGradGradGradGradGradGradGradGradGradGradGrad

                          Input orientation:                          
 ---------------------------------------------------------------------
 Center     Atomic      Atomic             Coordinates (Angstroms)
 Number     Number       Type             X           Y           Z
 ---------------------------------------------------------------------
      1          6           0       -0.026200    1.073000   -0.588200
      2          6           0       -1.315800   -0.689500    0.190300
      3          6           0        1.310800    0.347300   -0.396300
      4          6           0        1.138800   -0.919300    0.396600
      5          8           0       -1.046900    0.151500   -0.919200
      6          6           0       -0.077700   -1.401100    0.673800
      7          1           0       -0.290900    1.655500    0.324500
      8          1           0        0.084900    1.796700   -1.421900
      9          1           0       -1.773800   -0.112900    1.024000
     10          1           0       -2.050400   -1.457700   -0.127200
     11          1           0        2.031700    1.020500    0.114200
     12          1           0        2.015600   -1.464000    0.729500
 ---------------------------------------------------------------------
                    Distance matrix (angstroms):
                    1          2          3          4          5
     1  C    0.000000
     2  C    2.318520   0.000000
     3  C    1.533309   2.884108   0.000000
     4  C    2.509246   2.473950   1.504178   0.000000
     5  O    1.414409   1.417949   2.422914   2.766808   0.000000
     6  C    2.777853   1.507660   2.475873   1.337476   2.426430
     7  H    1.114627   2.562705   2.190065   2.945986   2.092927
     8  H    1.109568   3.277551   2.157648   3.434284   2.059214
     9  H    2.657001   1.112334   3.426922   3.086608   2.091487
    10  H    3.273278   1.109313   3.824671   3.276467   2.055189
    11  H    2.175103   3.759740   1.110633   2.154030   3.361674
    12  H    3.513068   3.462487   2.246102   1.084573   3.834965
                    6          7          8          9         10
     6  C    0.000000
     7  H    3.083872   0.000000
     8  H    3.826790   1.791948   0.000000
     9  H    2.158438   2.411541   3.617149   0.000000
    10  H    2.129871   3.604426   4.102057   1.791719   0.000000
    11  H    3.259888   2.417007   2.598484   4.073593   4.781557
    12  H    2.094985   3.900673   4.357555   4.033826   4.155277
                   11         12
    11  H    0.000000
    12  H    2.559608   0.000000
 Stoichiometry    C5H6O(3)
 Framework group  C1[X(C5H6O)]
 Deg. of freedom    30
 Full point group                 C1      NOp   1
 Largest Abelian subgroup         C1      NOp   1
 Largest concise Abelian subgroup C1      NOp   1
                         Standard orientation:                         
 ---------------------------------------------------------------------
 Center     Atomic      Atomic             Coordinates (Angstroms)
 Number     Number       Type             X           Y           Z
 ---------------------------------------------------------------------
      1          6           0       -0.008212    1.302632    0.198599
      2          6           0       -1.228690   -0.668203    0.156423
      3          6           0        1.324261    0.635259   -0.162183
      4          6           0        1.225596   -0.863735   -0.085807
      5          8           0       -1.085395    0.621601   -0.414936
      6          6           0        0.043882   -1.471551    0.065703
      7          1           0       -0.138092    1.346585    1.304760
      8          1           0        0.011541    2.347589   -0.173982
      9          1           0       -1.560564   -0.598715    1.215818
     10          1           0       -2.016779   -1.210401   -0.405282
     11          1           0        2.121462    0.999073    0.520176
     12          1           0        2.124581   -1.463359   -0.178401
 ---------------------------------------------------------------------
 Rotational constants (GHZ):      5.5502581      5.0597191      2.8747738
 Standard basis: 6-311+G(2df,2p) (5D, 7F)
 There are   258 symmetry adapted basis functions of A   symmetry.
 Integral buffers will be    131072 words long.
 Raffenetti 2 integral format.
 Two-electron integral symmetry is turned on.
   258 basis functions,   378 primitive gaussians,   288 cartesian basis functions
    23 alpha electrons       21 beta electrons
       nuclear repulsion energy       220.3696049835 Hartrees.
 NAtoms=   12 NActive=   12 NUniq=   12 SFac= 1.00D+00 NAtFMM=   50 NAOKFM=F Big=F
 One-electron integrals computed using PRISM.
 NBasis=   258 RedAO= T  NBF=   258
 NBsUse=   258 1.00D-06 NBFU=   258
 Harris functional with IExCor= 1009 diagonalized for initial guess.
 ExpMin= 4.38D-02 ExpMax= 8.59D+03 ExpMxC= 1.30D+03 IAcc=2 IRadAn=         0 AccDes= 0.00D+00
 HarFok:  IExCor= 1009 AccDes= 0.00D+00 IRadAn=         0 IDoV= 1
 ScaDFX=  1.000000  1.000000  1.000000  1.000000
 FoFCou: FMM=F IPFlag=           0 FMFlag=      100000 FMFlg1=           0
         NFxFlg=           0 DoJE=T BraDBF=F KetDBF=T FulRan=T
         Omega=  0.000000  0.000000  1.000000  0.000000  0.000000 ICntrl=     500 IOpCl=  0
         NMat0=    1 NMatS0=    1 NMatT0=    0 NMatD0=    1 NMtDS0=    0 NMtDT0=    0
         I1Cent=           4 NGrid=           0.
 Petite list used in FoFCou.
 Initial guess orbital symmetries:
 Alpha Orbitals:
       Occupied  (A) (A) (A) (A) (A) (A) (A) (A) (A) (A) (A) (A)
                 (A) (A) (A) (A) (A) (A) (A) (A) (A) (A) (A)
       Virtual   (A) (A) (A) (A) (A) (A) (A) (A) (A) (A) (A) (A)
                 (A) (A) (A) (A) (A) (A) (A) (A) (A) (A) (A) (A)
                 (A) (A) (A) (A) (A) (A) (A) (A) (A) (A) (A) (A)
                 (A) (A) (A) (A) (A) (A) (A) (A) (A) (A) (A) (A)
                 (A) (A) (A) (A) (A) (A) (A) (A) (A) (A) (A) (A)
                 (A) (A) (A) (A) (A) (A) (A) (A) (A) (A) (A) (A)
                 (A) (A) (A) (A) (A) (A) (A) (A) (A) (A) (A) (A)
                 (A) (A) (A) (A) (A) (A) (A) (A) (A) (A) (A) (A)
                 (A) (A) (A) (A) (A) (A) (A) (A) (A) (A) (A) (A)
                 (A) (A) (A) (A) (A) (A) (A) (A) (A) (A) (A) (A)
                 (A) (A) (A) (A) (A) (A) (A) (A) (A) (A) (A) (A)
                 (A) (A) (A) (A) (A) (A) (A) (A) (A) (A) (A) (A)
                 (A) (A) (A) (A) (A) (A) (A) (A) (A) (A) (A) (A)
                 (A) (A) (A) (A) (A) (A) (A) (A) (A) (A) (A) (A)
                 (A) (A) (A) (A) (A) (A) (A) (A) (A) (A) (A) (A)
                 (A) (A) (A) (A) (A) (A) (A) (A) (A) (A) (A) (A)
                 (A) (A) (A) (A) (A) (A) (A) (A) (A) (A) (A) (A)
                 (A) (A) (A) (A) (A) (A) (A) (A) (A) (A) (A) (A)
                 (A) (A) (A) (A) (A) (A) (A) (A) (A) (A) (A) (A)
                 (A) (A) (A) (A) (A) (A) (A)
 Beta  Orbitals:
       Occupied  (A) (A) (A) (A) (A) (A) (A) (A) (A) (A) (A) (A)
                 (A) (A) (A) (A) (A) (A) (A) (A) (A)
       Virtual   (A) (A) (A) (A) (A) (A) (A) (A) (A) (A) (A) (A)
                 (A) (A) (A) (A) (A) (A) (A) (A) (A) (A) (A) (A)
                 (A) (A) (A) (A) (A) (A) (A) (A) (A) (A) (A) (A)
                 (A) (A) (A) (A) (A) (A) (A) (A) (A) (A) (A) (A)
                 (A) (A) (A) (A) (A) (A) (A) (A) (A) (A) (A) (A)
                 (A) (A) (A) (A) (A) (A) (A) (A) (A) (A) (A) (A)
                 (A) (A) (A) (A) (A) (A) (A) (A) (A) (A) (A) (A)
                 (A) (A) (A) (A) (A) (A) (A) (A) (A) (A) (A) (A)
                 (A) (A) (A) (A) (A) (A) (A) (A) (A) (A) (A) (A)
                 (A) (A) (A) (A) (A) (A) (A) (A) (A) (A) (A) (A)
                 (A) (A) (A) (A) (A) (A) (A) (A) (A) (A) (A) (A)
                 (A) (A) (A) (A) (A) (A) (A) (A) (A) (A) (A) (A)
                 (A) (A) (A) (A) (A) (A) (A) (A) (A) (A) (A) (A)
                 (A) (A) (A) (A) (A) (A) (A) (A) (A) (A) (A) (A)
                 (A) (A) (A) (A) (A) (A) (A) (A) (A) (A) (A) (A)
                 (A) (A) (A) (A) (A) (A) (A) (A) (A) (A) (A) (A)
                 (A) (A) (A) (A) (A) (A) (A) (A) (A) (A) (A) (A)
                 (A) (A) (A) (A) (A) (A) (A) (A) (A) (A) (A) (A)
                 (A) (A) (A) (A) (A) (A) (A) (A) (A) (A) (A) (A)
                 (A) (A) (A) (A) (A) (A) (A) (A) (A)
 The electronic state of the initial guess is 3-A.
 Initial guess <Sx>= 0.0000 <Sy>= 0.0000 <Sz>= 1.0000 <S**2>= 2.0000 S= 1.0000
 Requested convergence on RMS density matrix=1.00D-08 within 128 cycles.
 Requested convergence on MAX density matrix=1.00D-06.
 Requested convergence on             energy=1.00D-06.
 No special actions if energy rises.
 SCF Done:  E(UM062X) =  -269.153915637     A.U. after   17 cycles
             Convg  =    0.5023D-08             -V/T =  2.0048
 <Sx>= 0.0000 <Sy>= 0.0000 <Sz>= 1.0000 <S**2>= 2.0486 S= 1.0161
 <L.S>= 0.000000000000E+00
 Annihilation of the first spin contaminant:
 S**2 before annihilation     2.0486,   after     2.0005

 **********************************************************************

            Population analysis using the SCF density.

 **********************************************************************

 Orbital symmetries:
 Alpha Orbitals:
       Occupied  (A) (A) (A) (A) (A) (A) (A) (A) (A) (A) (A) (A)
                 (A) (A) (A) (A) (A) (A) (A) (A) (A) (A) (A)
       Virtual   (A) (A) (A) (A) (A) (A) (A) (A) (A) (A) (A) (A)
                 (A) (A) (A) (A) (A) (A) (A) (A) (A) (A) (A) (A)
                 (A) (A) (A) (A) (A) (A) (A) (A) (A) (A) (A) (A)
                 (A) (A) (A) (A) (A) (A) (A) (A) (A) (A) (A) (A)
                 (A) (A) (A) (A) (A) (A) (A) (A) (A) (A) (A) (A)
                 (A) (A) (A) (A) (A) (A) (A) (A) (A) (A) (A) (A)
                 (A) (A) (A) (A) (A) (A) (A) (A) (A) (A) (A) (A)
                 (A) (A) (A) (A) (A) (A) (A) (A) (A) (A) (A) (A)
                 (A) (A) (A) (A) (A) (A) (A) (A) (A) (A) (A) (A)
                 (A) (A) (A) (A) (A) (A) (A) (A) (A) (A) (A) (A)
                 (A) (A) (A) (A) (A) (A) (A) (A) (A) (A) (A) (A)
                 (A) (A) (A) (A) (A) (A) (A) (A) (A) (A) (A) (A)
                 (A) (A) (A) (A) (A) (A) (A) (A) (A) (A) (A) (A)
                 (A) (A) (A) (A) (A) (A) (A) (A) (A) (A) (A) (A)
                 (A) (A) (A) (A) (A) (A) (A) (A) (A) (A) (A) (A)
                 (A) (A) (A) (A) (A) (A) (A) (A) (A) (A) (A) (A)
                 (A) (A) (A) (A) (A) (A) (A) (A) (A) (A) (A) (A)
                 (A) (A) (A) (A) (A) (A) (A) (A) (A) (A) (A) (A)
                 (A) (A) (A) (A) (A) (A) (A) (A) (A) (A) (A) (A)
                 (A) (A) (A) (A) (A) (A) (A)
 Beta  Orbitals:
       Occupied  (A) (A) (A) (A) (A) (A) (A) (A) (A) (A) (A) (A)
                 (A) (A) (A) (A) (A) (A) (A) (A) (A)
       Virtual   (A) (A) (A) (A) (A) (A) (A) (A) (A) (A) (A) (A)
                 (A) (A) (A) (A) (A) (A) (A) (A) (A) (A) (A) (A)
                 (A) (A) (A) (A) (A) (A) (A) (A) (A) (A) (A) (A)
                 (A) (A) (A) (A) (A) (A) (A) (A) (A) (A) (A) (A)
                 (A) (A) (A) (A) (A) (A) (A) (A) (A) (A) (A) (A)
                 (A) (A) (A) (A) (A) (A) (A) (A) (A) (A) (A) (A)
                 (A) (A) (A) (A) (A) (A) (A) (A) (A) (A) (A) (A)
                 (A) (A) (A) (A) (A) (A) (A) (A) (A) (A) (A) (A)
                 (A) (A) (A) (A) (A) (A) (A) (A) (A) (A) (A) (A)
                 (A) (A) (A) (A) (A) (A) (A) (A) (A) (A) (A) (A)
                 (A) (A) (A) (A) (A) (A) (A) (A) (A) (A) (A) (A)
                 (A) (A) (A) (A) (A) (A) (A) (A) (A) (A) (A) (A)
                 (A) (A) (A) (A) (A) (A) (A) (A) (A) (A) (A) (A)
                 (A) (A) (A) (A) (A) (A) (A) (A) (A) (A) (A) (A)
                 (A) (A) (A) (A) (A) (A) (A) (A) (A) (A) (A) (A)
                 (A) (A) (A) (A) (A) (A) (A) (A) (A) (A) (A) (A)
                 (A) (A) (A) (A) (A) (A) (A) (A) (A) (A) (A) (A)
                 (A) (A) (A) (A) (A) (A) (A) (A) (A) (A) (A) (A)
                 (A) (A) (A) (A) (A) (A) (A) (A) (A) (A) (A) (A)
                 (A) (A) (A) (A) (A) (A) (A) (A) (A)
 The electronic state is 3-A.
 Alpha  occ. eigenvalues --  -19.64353 -10.60688 -10.59942 -10.57898 -10.57070
 Alpha  occ. eigenvalues --  -10.55376  -1.17900  -0.91424  -0.86842  -0.75173
 Alpha  occ. eigenvalues --   -0.71734  -0.60992  -0.58186  -0.56118  -0.52161
 Alpha  occ. eigenvalues --   -0.49359  -0.47727  -0.45406  -0.41499  -0.38726
 Alpha  occ. eigenvalues --   -0.35341  -0.31795  -0.26930
 Alpha virt. eigenvalues --    0.01500   0.03172   0.03359   0.03629   0.04536
 Alpha virt. eigenvalues --    0.05526   0.05841   0.07083   0.08104   0.08691
 Alpha virt. eigenvalues --    0.10088   0.10551   0.11983   0.13323   0.14295
 Alpha virt. eigenvalues --    0.14669   0.15161   0.15625   0.17963   0.18910
 Alpha virt. eigenvalues --    0.20066   0.20618   0.21392   0.23074   0.23537
 Alpha virt. eigenvalues --    0.24657   0.25470   0.26577   0.27667   0.28518
 Alpha virt. eigenvalues --    0.29108   0.31322   0.32971   0.33758   0.35119
 Alpha virt. eigenvalues --    0.37482   0.43223   0.46490   0.47408   0.50121
 Alpha virt. eigenvalues --    0.51515   0.52176   0.53258   0.53754   0.55252
 Alpha virt. eigenvalues --    0.56870   0.57108   0.57595   0.58296   0.60684
 Alpha virt. eigenvalues --    0.61300   0.61782   0.63751   0.64646   0.65460
 Alpha virt. eigenvalues --    0.65981   0.67192   0.68896   0.71048   0.72051
 Alpha virt. eigenvalues --    0.73769   0.77908   0.78967   0.83440   0.85894
 Alpha virt. eigenvalues --    0.86734   0.91886   0.94039   0.95866   0.98154
 Alpha virt. eigenvalues --    1.00341   1.03078   1.04098   1.04566   1.11107
 Alpha virt. eigenvalues --    1.12303   1.12634   1.14617   1.16484   1.17991
 Alpha virt. eigenvalues --    1.20013   1.21727   1.23425   1.25394   1.25811
 Alpha virt. eigenvalues --    1.26964   1.30648   1.31230   1.33305   1.34581
 Alpha virt. eigenvalues --    1.35542   1.36426   1.38164   1.39597   1.43815
 Alpha virt. eigenvalues --    1.44534   1.44955   1.46617   1.46853   1.48420
 Alpha virt. eigenvalues --    1.54005   1.56658   1.58383   1.60660   1.61487
 Alpha virt. eigenvalues --    1.64558   1.67472   1.73283   1.79063   1.82806
 Alpha virt. eigenvalues --    2.03917   2.10151   2.14448   2.23318   2.33874
 Alpha virt. eigenvalues --    2.46925   2.48177   2.55165   2.58193   2.58741
 Alpha virt. eigenvalues --    2.61106   2.65754   2.67234   2.72396   2.74532
 Alpha virt. eigenvalues --    2.75796   2.77444   2.77570   2.80796   2.82433
 Alpha virt. eigenvalues --    2.84015   2.85248   2.87608   2.89291   2.92721
 Alpha virt. eigenvalues --    2.95685   2.98109   3.02394   3.05285   3.07143
 Alpha virt. eigenvalues --    3.07581   3.09612   3.11115   3.15291   3.17319
 Alpha virt. eigenvalues --    3.19735   3.22403   3.25864   3.27110   3.29352
 Alpha virt. eigenvalues --    3.30235   3.33264   3.35833   3.38488   3.39313
 Alpha virt. eigenvalues --    3.40005   3.42362   3.44468   3.46146   3.49153
 Alpha virt. eigenvalues --    3.50280   3.52578   3.55413   3.56363   3.59799
 Alpha virt. eigenvalues --    3.61490   3.63754   3.65395   3.66819   3.69923
 Alpha virt. eigenvalues --    3.73202   3.75054   3.75960   3.77939   3.82793
 Alpha virt. eigenvalues --    3.86415   3.89231   3.92174   3.97020   3.98877
 Alpha virt. eigenvalues --    4.00518   4.03484   4.04343   4.08759   4.13390
 Alpha virt. eigenvalues --    4.14714   4.16772   4.22659   4.25715   4.27681
 Alpha virt. eigenvalues --    4.29570   4.32640   4.33536   4.37116   4.37572
 Alpha virt. eigenvalues --    4.41069   4.42202   4.45885   4.51196   4.53750
 Alpha virt. eigenvalues --    4.56263   4.57592   4.61417   4.69663   4.72070
 Alpha virt. eigenvalues --    4.86573   5.10390   5.14944   5.22310   5.24511
 Alpha virt. eigenvalues --    5.25758   5.34728   5.42734   5.46808   5.47182
 Alpha virt. eigenvalues --    5.51962   5.53012   5.69057   5.73316   5.81310
 Alpha virt. eigenvalues --    5.87550   6.18864   6.43262   6.64963   7.20272
 Alpha virt. eigenvalues --    7.22215   7.29902   7.61837   7.74132  23.90139
 Alpha virt. eigenvalues --   24.23696  24.37379  24.39392  24.79755  50.16209
  Beta  occ. eigenvalues --  -19.64244 -10.60645 -10.59972 -10.56674 -10.56269
  Beta  occ. eigenvalues --  -10.55520  -1.17471  -0.89111  -0.85348  -0.74410
  Beta  occ. eigenvalues --   -0.68602  -0.60177  -0.57008  -0.55166  -0.49872
  Beta  occ. eigenvalues --   -0.47913  -0.46416  -0.43901  -0.40076  -0.34663
  Beta  occ. eigenvalues --   -0.33056
  Beta virt. eigenvalues --   -0.06897  -0.04292   0.01549   0.03228   0.03607
  Beta virt. eigenvalues --    0.04277   0.04708   0.06079   0.06797   0.07083
  Beta virt. eigenvalues --    0.08121   0.09070   0.10150   0.10332   0.12027
  Beta virt. eigenvalues --    0.12606   0.14248   0.14860   0.15228   0.15417
  Beta virt. eigenvalues --    0.17642   0.19554   0.19797   0.20457   0.21225
  Beta virt. eigenvalues --    0.22845   0.23882   0.24749   0.25458   0.26835
  Beta virt. eigenvalues --    0.28433   0.29335   0.30259   0.31077   0.32925
  Beta virt. eigenvalues --    0.33729   0.35635   0.37625   0.43317   0.46903
  Beta virt. eigenvalues --    0.47495   0.49480   0.50549   0.53197   0.53427
  Beta virt. eigenvalues --    0.54173   0.55271   0.56775   0.57325   0.58124
  Beta virt. eigenvalues --    0.58328   0.60597   0.61415   0.61450   0.63963
  Beta virt. eigenvalues --    0.64338   0.65126   0.66188   0.66934   0.68849
  Beta virt. eigenvalues --    0.71301   0.72644   0.73250   0.77537   0.78871
  Beta virt. eigenvalues --    0.83246   0.85529   0.86528   0.91644   0.93729
  Beta virt. eigenvalues --    0.95912   0.98612   1.00204   1.03220   1.03922
  Beta virt. eigenvalues --    1.05217   1.10908   1.12122   1.12789   1.15100
  Beta virt. eigenvalues --    1.16552   1.17608   1.20332   1.21897   1.23317
  Beta virt. eigenvalues --    1.25273   1.25876   1.27276   1.30241   1.31188
  Beta virt. eigenvalues --    1.33602   1.34128   1.35676   1.35856   1.38234
  Beta virt. eigenvalues --    1.39910   1.43640   1.44593   1.45102   1.46526
  Beta virt. eigenvalues --    1.46665   1.48763   1.53606   1.56609   1.58510
  Beta virt. eigenvalues --    1.60384   1.61111   1.64287   1.66813   1.72349
  Beta virt. eigenvalues --    1.79146   1.82929   2.04226   2.10298   2.14522
  Beta virt. eigenvalues --    2.23514   2.34118   2.47517   2.49028   2.55871
  Beta virt. eigenvalues --    2.58472   2.59864   2.62476   2.67057   2.68443
  Beta virt. eigenvalues --    2.74644   2.76812   2.77415   2.78877   2.79805
  Beta virt. eigenvalues --    2.82866   2.84243   2.85681   2.87231   2.89374
  Beta virt. eigenvalues --    2.90802   2.94191   2.97690   3.00034   3.03788
  Beta virt. eigenvalues --    3.05853   3.08921   3.09487   3.10768   3.11976
  Beta virt. eigenvalues --    3.16284   3.18283   3.20563   3.24712   3.27609
  Beta virt. eigenvalues --    3.27784   3.30726   3.31719   3.34858   3.37221
  Beta virt. eigenvalues --    3.39684   3.40236   3.41476   3.43347   3.46319
  Beta virt. eigenvalues --    3.48034   3.50698   3.54201   3.54529   3.59008
  Beta virt. eigenvalues --    3.60612   3.62863   3.63902   3.66053   3.66173
  Beta virt. eigenvalues --    3.69561   3.70322   3.74504   3.75836   3.77040
  Beta virt. eigenvalues --    3.79949   3.83813   3.87094   3.89885   3.94364
  Beta virt. eigenvalues --    3.98528   4.00611   4.02581   4.05473   4.06548
  Beta virt. eigenvalues --    4.10501   4.14779   4.15822   4.17970   4.23383
  Beta virt. eigenvalues --    4.25895   4.28179   4.30444   4.33181   4.33930
  Beta virt. eigenvalues --    4.37861   4.39697   4.42347   4.43090   4.47167
  Beta virt. eigenvalues --    4.52116   4.54083   4.57707   4.59969   4.63589
  Beta virt. eigenvalues --    4.71826   4.74901   4.91073   5.11688   5.16394
  Beta virt. eigenvalues --    5.24191   5.25031   5.26481   5.38228   5.43375
  Beta virt. eigenvalues --    5.47001   5.47485   5.52241   5.54241   5.69183
  Beta virt. eigenvalues --    5.75349   5.81489   5.88058   6.18955   6.43308
  Beta virt. eigenvalues --    6.64974   7.20572   7.22571   7.30220   7.62153
  Beta virt. eigenvalues --    7.74493  23.90867  24.24943  24.37643  24.39541
  Beta virt. eigenvalues --   24.80767  50.16085
          Condensed to atoms (all electrons):
              1          2          3          4          5          6
     1  C    5.397399  -0.215644   0.085456   0.084295   0.119719  -0.040432
     2  C   -0.215644   5.510745  -0.026325   0.012989   0.097226   0.007952
     3  C    0.085456  -0.026325   5.453282   0.250686  -0.011116   0.053974
     4  C    0.084295   0.012989   0.250686   5.098494  -0.053533   0.520877
     5  O    0.119719   0.097226  -0.011116  -0.053533   8.186589  -0.002040
     6  C   -0.040432   0.007952   0.053974   0.520877  -0.002040   5.422034
     7  H    0.453493  -0.003027  -0.067708  -0.017356  -0.040032   0.012904
     8  H    0.436372   0.009864  -0.053561   0.021884  -0.047245  -0.007457
     9  H   -0.024518   0.468620   0.018632  -0.021454  -0.039040  -0.065008
    10  H    0.016875   0.451288  -0.015313   0.024586  -0.051993  -0.073308
    11  H   -0.059064   0.007066   0.432768  -0.045389   0.008553  -0.004829
    12  H    0.001233   0.004105  -0.005375   0.361431  -0.001049  -0.008923
              7          8          9         10         11         12
     1  C    0.453493   0.436372  -0.024518   0.016875  -0.059064   0.001233
     2  C   -0.003027   0.009864   0.468620   0.451288   0.007066   0.004105
     3  C   -0.067708  -0.053561   0.018632  -0.015313   0.432768  -0.005375
     4  C   -0.017356   0.021884  -0.021454   0.024586  -0.045389   0.361431
     5  O   -0.040032  -0.047245  -0.039040  -0.051993   0.008553  -0.001049
     6  C    0.012904  -0.007457  -0.065008  -0.073308  -0.004829  -0.008923
     7  H    0.535351  -0.028576   0.003904   0.000093  -0.000985  -0.000132
     8  H   -0.028576   0.516294   0.000247  -0.000073  -0.002065  -0.000152
     9  H    0.003904   0.000247   0.541095  -0.033785   0.000478  -0.000344
    10  H    0.000093  -0.000073  -0.033785   0.528293   0.000013  -0.000137
    11  H   -0.000985  -0.002065   0.000478   0.000013   0.519539  -0.005011
    12  H   -0.000132  -0.000152  -0.000344  -0.000137  -0.005011   0.499718
 Mulliken atomic charges:
              1
     1  C   -0.255183
     2  C   -0.324861
     3  C   -0.115400
     4  C   -0.237510
     5  O   -0.166040
     6  C    0.184256
     7  H    0.152072
     8  H    0.154468
     9  H    0.151173
    10  H    0.153460
    11  H    0.148925
    12  H    0.154639
 Sum of Mulliken atomic charges =   0.00000
 Mulliken charges with hydrogens summed into heavy atoms:
              1
     1  C    0.051358
     2  C   -0.020228
     3  C    0.033525
     4  C   -0.082870
     5  O   -0.166040
     6  C    0.184256
 Sum of Mulliken charges with hydrogens summed into heavy atoms =   0.00000
          Atomic-Atomic Spin Densities.
              1          2          3          4          5          6
     1  C    0.041145   0.011311  -0.112212   0.037844  -0.005236  -0.000756
     2  C    0.011311   0.058028  -0.033305   0.031273  -0.017451  -0.062675
     3  C   -0.112212  -0.033305   1.157216  -0.060731   0.011633  -0.039578
     4  C    0.037844   0.031273  -0.060731  -0.205284   0.013359  -0.010615
     5  O   -0.005236  -0.017451   0.011633   0.013359   0.067445  -0.026511
     6  C   -0.000756  -0.062675  -0.039578  -0.010615  -0.026511   1.375728
     7  H    0.037759  -0.007346  -0.050674   0.012116  -0.003108   0.007231
     8  H    0.004769   0.000571  -0.008902  -0.001065   0.003276  -0.003744
     9  H   -0.007905   0.007672   0.007519   0.007558   0.001980  -0.020255
    10  H    0.002803   0.010311  -0.001456  -0.009358  -0.001445  -0.007292
    11  H   -0.010275   0.001163   0.014129  -0.006322  -0.001288   0.001346
    12  H    0.000181   0.001529  -0.016780   0.015517  -0.001101  -0.011484
              7          8          9         10         11         12
     1  C    0.037759   0.004769  -0.007905   0.002803  -0.010275   0.000181
     2  C   -0.007346   0.000571   0.007672   0.010311   0.001163   0.001529
     3  C   -0.050674  -0.008902   0.007519  -0.001456   0.014129  -0.016780
     4  C    0.012116  -0.001065   0.007558  -0.009358  -0.006322   0.015517
     5  O   -0.003108   0.003276   0.001980  -0.001445  -0.001288  -0.001101
     6  C    0.007231  -0.003744  -0.020255  -0.007292   0.001346  -0.011484
     7  H    0.046225  -0.007363  -0.003847   0.000553  -0.002902  -0.000019
     8  H   -0.007363   0.022208   0.000428  -0.000198   0.001360  -0.000062
     9  H   -0.003847   0.000428   0.028403  -0.006564   0.000084  -0.000068
    10  H    0.000553  -0.000198  -0.006564   0.023573  -0.000019   0.000103
    11  H   -0.002902   0.001360   0.000084  -0.000019  -0.026941   0.001125
    12  H   -0.000019  -0.000062  -0.000068   0.000103   0.001125   0.039074
 Mulliken atomic spin densities:
              1
     1  C   -0.000573
     2  C    0.001080
     3  C    0.866859
     4  C   -0.175708
     5  O    0.041552
     6  C    1.201395
     7  H    0.028626
     8  H    0.011278
     9  H    0.015006
    10  H    0.011011
    11  H   -0.028541
    12  H    0.028015
 Sum of Mulliken atomic spin densities =   2.00000
 Electronic spatial extent (au):  <R**2>=            464.1824
 Charge=              0.0000 electrons
 Dipole moment (field-independent basis, Debye):
    X=              0.4074    Y=              0.0638    Z=              1.6172  Tot=              1.6689
 Quadrupole moment (field-independent basis, Debye-Ang):
   XX=            -35.3149   YY=            -35.4295   ZZ=            -37.9202
   XY=              1.9053   XZ=             -0.3686   YZ=              1.4911
 Traceless Quadrupole moment (field-independent basis, Debye-Ang):
   XX=              0.9066   YY=              0.7921   ZZ=             -1.6987
   XY=              1.9053   XZ=             -0.3686   YZ=              1.4911
 Octapole moment (field-independent basis, Debye-Ang**2):
  XXX=             -3.4414  YYY=             12.1272  ZZZ=              1.7762  XYY=             -1.1646
  XXY=             -5.6919  XXZ=              2.4550  XZZ=             -4.2247  YZZ=              2.7031
  YYZ=             -0.1959  XYZ=              0.4709
 Hexadecapole moment (field-independent basis, Debye-Ang**3):
 XXXX=           -287.9902 YYYY=           -282.1742 ZZZZ=            -68.3987 XXXY=             -1.2424
 XXXZ=              6.8891 YYYX=             -3.8182 YYYZ=             -1.0573 ZZZX=              1.8884
 ZZZY=              1.5850 XXYY=            -92.7832 XXZZ=            -62.4614 YYZZ=            -60.6701
 XXYZ=              6.0295 YYXZ=              1.9813 ZZXY=              1.2558
 N-N= 2.203696049835D+02 E-N=-1.587967883222D+03  KE= 4.002916715560D+02
                          Isotropic Fermi Contact Couplings
        Atom                 a.u.       MegaHertz       Gauss      10(-4) cm-1
     1  C(13)             -0.01840     -10.34138      -3.69006      -3.44951
     2  C(13)              0.04273      24.01903       8.57059       8.01189
     3  C(13)              0.35811     201.28989      71.82524      67.14308
     4  C(13)             -0.02743     -15.41601      -5.50081      -5.14223
     5  O(17)              0.01089      -3.30047      -1.17769      -1.10092
     6  C(13)              0.53580     301.17111     107.46534     100.45987
     7  H(1)               0.01648      36.84159      13.14600      12.28903
     8  H(1)               0.00824      18.42244       6.57358       6.14506
     9  H(1)               0.00810      18.11057       6.46230       6.04104
    10  H(1)               0.00778      17.39288       6.20621       5.80164
    11  H(1)              -0.00526     -11.76112      -4.19666      -3.92309
    12  H(1)               0.01683      37.60687      13.41906      12.54430
 --------------------------------------------------------
       Center         ----  Spin Dipole Couplings  ----
                      3XX-RR        3YY-RR        3ZZ-RR
 --------------------------------------------------------
     1   Atom        0.014121     -0.005253     -0.008868
     2   Atom        0.045696     -0.009286     -0.036410
     3   Atom       -0.392572     -0.274325      0.666897
     4   Atom        0.128284      0.140684     -0.268968
     5   Atom       -0.074067      0.212746     -0.138679
     6   Atom       -0.683016      0.716350     -0.033334
     7   Atom       -0.002556      0.000135      0.002421
     8   Atom       -0.001121      0.012738     -0.011617
     9   Atom        0.007527     -0.005097     -0.002430
    10   Atom        0.028532     -0.012437     -0.016095
    11   Atom        0.016856     -0.034792      0.017935
    12   Atom        0.019146      0.001615     -0.020762
 --------------------------------------------------------
                        XY            XZ            YZ
 --------------------------------------------------------
     1   Atom        0.001869     -0.024870      0.000228
     2   Atom       -0.053494     -0.014330      0.017898
     3   Atom        0.089741     -0.296459     -0.299363
     4   Atom        0.072175     -0.047484     -0.030749
     5   Atom       -0.140505      0.023863     -0.023486
     6   Atom        0.074966      0.111356     -0.068492
     7   Atom       -0.003869     -0.006280      0.009218
     8   Atom       -0.012918     -0.001596      0.000998
     9   Atom       -0.011280     -0.017924      0.006460
    10   Atom       -0.003839      0.010613     -0.002206
    11   Atom        0.037467      0.041514      0.013889
    12   Atom        0.009809     -0.003485     -0.005331
 --------------------------------------------------------


 ---------------------------------------------------------------------------------
              Anisotropic Spin Dipole Couplings in Principal Axis System
 ---------------------------------------------------------------------------------

       Atom             a.u.   MegaHertz   Gauss  10(-4) cm-1        Axes

              Baa    -0.0248    -3.334    -1.190    -1.112  0.5391 -0.0612  0.8400
     1 C(13)  Bbb    -0.0052    -0.703    -0.251    -0.235 -0.0016  0.9973  0.0737
              Bcc     0.0301     4.037     1.441     1.347  0.8423  0.0411 -0.5375
 
              Baa    -0.0489    -6.558    -2.340    -2.187  0.2920  0.6928 -0.6594
     2 C(13)  Bbb    -0.0334    -4.484    -1.600    -1.496  0.4686  0.4974  0.7301
              Bcc     0.0823    11.041     3.940     3.683  0.8338 -0.5222 -0.1794
 
              Baa    -0.4710   -63.201   -22.552   -21.082  0.9691 -0.0965  0.2271
     3 C(13)  Bbb    -0.3614   -48.493   -17.304   -16.176  0.0282  0.9575  0.2869
              Bcc     0.8324   111.695    39.855    37.257 -0.2451 -0.2716  0.9307
 
              Baa    -0.2758   -37.007   -13.205   -12.344  0.1069  0.0548  0.9928
     4 C(13)  Bbb     0.0626     8.402     2.998     2.803  0.7257 -0.6868 -0.0402
              Bcc     0.2132    28.604    10.207     9.541  0.6796  0.7248 -0.1132
 
              Baa    -0.1502    10.870     3.879     3.626 -0.5542 -0.1617  0.8166
     5 O(17)  Bbb    -0.1222     8.841     3.155     2.949  0.7410  0.3510  0.5724
              Bcc     0.2724   -19.711    -7.034    -6.575 -0.3792  0.9223 -0.0747
 
              Baa    -0.7067   -94.831   -33.838   -31.632  0.9838 -0.0600 -0.1688
     6 C(13)  Bbb    -0.0189    -2.532    -0.903    -0.845  0.1730  0.0739  0.9821
              Bcc     0.7256    97.363    34.742    32.477  0.0464  0.9955 -0.0830
 
              Baa    -0.0085    -4.540    -1.620    -1.514  0.3643 -0.5982  0.7138
     7 H(1)   Bbb    -0.0053    -2.828    -1.009    -0.943  0.8375  0.5456  0.0298
              Bcc     0.0138     7.368     2.629     2.458 -0.4073  0.5870  0.6997
 
              Baa    -0.0119    -6.371    -2.273    -2.125  0.2547  0.0944  0.9624
     8 H(1)   Bbb    -0.0086    -4.596    -1.640    -1.533  0.8190  0.5080 -0.2666
              Bcc     0.0206    10.967     3.913     3.658 -0.5141  0.8562  0.0521
 
              Baa    -0.0165    -8.783    -3.134    -2.930  0.6503  0.2347  0.7226
     9 H(1)   Bbb    -0.0100    -5.320    -1.898    -1.774  0.1453  0.8951 -0.4215
              Bcc     0.0264    14.103     5.032     4.704  0.7457 -0.3791 -0.5479
 
              Baa    -0.0188   -10.018    -3.575    -3.342 -0.1973  0.2135  0.9568
    10 H(1)   Bbb    -0.0126    -6.702    -2.391    -2.235  0.1394  0.9722 -0.1881
              Bcc     0.0313    16.720     5.966     5.577  0.9704 -0.0963  0.2216
 
              Baa    -0.0554   -29.558   -10.547    -9.860 -0.5146  0.8474  0.1308
    11 H(1)   Bbb    -0.0162    -8.639    -3.083    -2.882 -0.4904 -0.4160  0.7658
              Bcc     0.0716    38.197    13.630    12.741  0.7034  0.3299  0.6296
 
              Baa    -0.0220   -11.742    -4.190    -3.917  0.0335  0.2067  0.9778
    12 H(1)   Bbb    -0.0022    -1.159    -0.414    -0.387 -0.4348  0.8839 -0.1720
              Bcc     0.0242    12.902     4.604     4.304  0.8999  0.4194 -0.1195
 

 ---------------------------------------------------------------------------------

 Calling FoFJK, ICntrl=      2127 FMM=F ISym2X=0 I1Cent= 0 IOpClX= 1 NMat=1 NMatS=1 NMatT=0.
 ***** Axes restored to original set *****
 -------------------------------------------------------------------
 Center     Atomic                   Forces (Hartrees/Bohr)
 Number     Number              X              Y              Z
 -------------------------------------------------------------------
      1        6           0.017280824   -0.000147714   -0.019183962
      2        6          -0.016124983   -0.019604190    0.007289735
      3        6          -0.023133789   -0.003373734    0.061998425
      4        6           0.007913936    0.007908963   -0.017279163
      5        8           0.001241338    0.000550977    0.013310290
      6        6           0.001967362    0.027834360   -0.020486142
      7        1           0.002528922   -0.006935772   -0.006101597
      8        1          -0.007160238   -0.008396340    0.007588157
      9        1           0.003709033   -0.003584409   -0.007333806
     10        1           0.005045317    0.012555842   -0.000159726
     11        1           0.004069895   -0.010686793   -0.020489575
     12        1           0.002662383    0.003878810    0.000847366
 -------------------------------------------------------------------
 Cartesian Forces:  Max     0.061998425 RMS     0.015513093

 GradGradGradGradGradGradGradGradGradGradGradGradGradGradGradGradGradGrad
 Berny optimization.
 Internal  Forces:  Max     0.034892504 RMS     0.008700462
 Search for a local minimum.
 Step number   1 out of a maximum of   63
 All quantities printed in internal units (Hartrees-Bohrs-Radians)
 Swaping is turned off.
 Second derivative matrix not updated -- first step.
 ITU=  0
     Eigenvalues ---    0.00700   0.01193   0.01549   0.02264   0.02834
     Eigenvalues ---    0.05801   0.07038   0.07610   0.09500   0.09769
     Eigenvalues ---    0.11493   0.12013   0.12316   0.13158   0.15997
     Eigenvalues ---    0.19126   0.19884   0.23045   0.28662   0.30938
     Eigenvalues ---    0.31434   0.32115   0.32354   0.32533   0.32646
     Eigenvalues ---    0.32673   0.35447   0.41193   0.41645   0.55991
 Quadratic step=9.727D-01 exceeds max=3.000D-01 adjusted using Lamda=-7.016D-02.
 Angle between NR and scaled steps=  29.49 degrees.
 Angle between quadratic step and forces=  32.34 degrees.
 Linear search not attempted -- option 19 set.
 Iteration  1 RMS(Cart)=  0.03286487 RMS(Int)=  0.00192593
 Iteration  2 RMS(Cart)=  0.00180556 RMS(Int)=  0.00102731
 Iteration  3 RMS(Cart)=  0.00000206 RMS(Int)=  0.00102730
 Iteration  4 RMS(Cart)=  0.00000000 RMS(Int)=  0.00102730
 Variable       Old X    -DE/DX   Delta X   Delta X   Delta X     New X
                                 (Linear)    (Quad)   (Total)
    R1        2.89753  -0.01095   0.00000  -0.03221  -0.03208   2.86545
    R2        2.67284  -0.00354   0.00000  -0.00474  -0.00488   2.66796
    R3        2.10634  -0.00921   0.00000  -0.02354  -0.02354   2.08280
    R4        2.09678  -0.01190   0.00000  -0.03000  -0.03000   2.06678
    R5        2.67953  -0.01008   0.00000  -0.01937  -0.01973   2.65980
    R6        2.84906  -0.00812   0.00000  -0.01958  -0.01974   2.82932
    R7        2.10201  -0.00888   0.00000  -0.02255  -0.02255   2.07946
    R8        2.09630  -0.01199   0.00000  -0.03022  -0.03022   2.06608
    R9        2.84248  -0.03489   0.00000  -0.09210  -0.09175   2.75074
   R10        2.09879  -0.01326   0.00000  -0.03353  -0.03353   2.06527
   R11        2.52746  -0.00506   0.00000  -0.00844  -0.00827   2.51920
   R12        2.04955   0.00046   0.00000   0.00109   0.00109   2.05064
    A1        1.92857   0.00450   0.00000   0.02344   0.02333   1.95190
    A2        1.93043  -0.00433   0.00000  -0.02609  -0.02591   1.90452
    A3        1.89170   0.00626   0.00000   0.03815   0.03821   1.92991
    A4        1.93984  -0.00205   0.00000  -0.01242  -0.01233   1.92751
    A5        1.89796  -0.00514   0.00000  -0.02687  -0.02750   1.87046
    A6        1.87358   0.00084   0.00000   0.00445   0.00448   1.87806
    A7        1.95535  -0.01634   0.00000  -0.05284  -0.05333   1.90202
    A8        1.93595   0.00355   0.00000   0.00493   0.00483   1.94079
    A9        1.88847  -0.00141   0.00000  -0.01362  -0.01304   1.87543
   A10        1.92030   0.00230   0.00000   0.00869   0.00822   1.92852
   A11        1.88467   0.01307   0.00000   0.05122   0.05111   1.93578
   A12        1.87635  -0.00031   0.00000   0.00495   0.00446   1.88082
   A13        1.94422   0.00582   0.00000   0.02977   0.02731   1.97153
   A14        1.91414   0.00707   0.00000   0.06810   0.06428   1.97842
   A15        1.92019   0.00337   0.00000   0.04692   0.04198   1.96217
   A16        2.11366  -0.00933   0.00000  -0.03345  -0.03279   2.08087
   A17        2.08548   0.00071   0.00000  -0.00042  -0.00075   2.08472
   A18        2.08377   0.00861   0.00000   0.03392   0.03359   2.11736
   A19        1.91788   0.00390   0.00000   0.02745   0.02694   1.94481
   A20        2.10649   0.01892   0.00000   0.06441   0.06462   2.17111
    D1       -0.75438   0.00805   0.00000   0.06756   0.06863  -0.68575
    D2       -2.88440  -0.00495   0.00000  -0.05833  -0.05911  -2.94351
    D3        1.40117   0.00555   0.00000   0.04989   0.05083   1.45200
    D4       -0.72884  -0.00745   0.00000  -0.07600  -0.07691  -0.80575
    D5       -2.83247   0.00784   0.00000   0.06316   0.06371  -2.76876
    D6        1.32070  -0.00516   0.00000  -0.06273  -0.06403   1.25667
    D7        1.18384  -0.00409   0.00000  -0.04606  -0.04592   1.13792
    D8       -0.96627  -0.00028   0.00000  -0.02053  -0.02039  -0.98666
    D9       -3.02506   0.00307   0.00000  -0.00204  -0.00247  -3.02754
   D10       -0.97693   0.00737   0.00000   0.03145   0.03166  -0.94527
   D11        1.17647   0.00114   0.00000   0.00810   0.00827   1.18475
   D12       -3.05259   0.00194   0.00000   0.00869   0.00854  -3.04405
   D13        0.38152   0.00030   0.00000   0.00520   0.00566   0.38718
   D14       -1.78067   0.00565   0.00000   0.03003   0.03044  -1.75024
   D15        2.45942  -0.00276   0.00000  -0.01014  -0.01107   2.44835
   D16        0.17449  -0.00486   0.00000  -0.04145  -0.04206   0.13244
   D17       -2.99243  -0.00518   0.00000  -0.03855  -0.03912  -3.03155
   D18        2.30100   0.01033   0.00000   0.09710   0.09748   2.39848
   D19       -0.86592   0.01001   0.00000   0.10000   0.10041  -0.76550
   D20        0.00635  -0.00035   0.00000   0.00223   0.00215   0.00850
   D21       -3.10994   0.00008   0.00000  -0.00017  -0.00033  -3.11027
         Item               Value     Threshold  Converged?
 Maximum Force            0.034893     0.000002     NO 
 RMS     Force            0.008700     0.000001     NO 
 Maximum Displacement     0.111326     0.000006     NO 
 RMS     Displacement     0.033266     0.000004     NO 
 Predicted change in Energy=-1.127836D-02
 GradGradGradGradGradGradGradGradGradGradGradGradGradGradGradGradGradGrad

                          Input orientation:                          
 ---------------------------------------------------------------------
 Center     Atomic      Atomic             Coordinates (Angstroms)
 Number     Number       Type             X           Y           Z
 ---------------------------------------------------------------------
      1          6           0       -0.016919    1.059161   -0.580329
      2          6           0       -1.338543   -0.695956    0.193786
      3          6           0        1.301904    0.351380   -0.337389
      4          6           0        1.149924   -0.896305    0.396801
      5          8           0       -1.050805    0.150194   -0.893556
      6          6           0       -0.074716   -1.364357    0.638341
      7          1           0       -0.280226    1.648615    0.312974
      8          1           0        0.068531    1.753218   -1.421249
      9          1           0       -1.790995   -0.135213    1.025497
     10          1           0       -2.070074   -1.432790   -0.148695
     11          1           0        2.067989    0.999349    0.095811
     12          1           0        2.034030   -1.437295    0.718109
 ---------------------------------------------------------------------
                    Distance matrix (angstroms):
                    1          2          3          4          5
     1  C    0.000000
     2  C    2.329459   0.000000
     3  C    1.516333   2.889813   0.000000
     4  C    2.477933   2.504761   1.455627   0.000000
     5  O    1.411826   1.407507   2.425910   2.757425   0.000000
     6  C    2.713289   1.497214   2.406426   1.333101   2.365021
     7  H    1.102169   2.575123   2.146841   2.920441   2.072384
     8  H    1.093693   3.253714   2.158961   3.390382   2.025107
     9  H    2.674425   1.100403   3.414711   3.102181   2.076560
    10  H    3.257541   1.093322   3.819568   3.309648   2.024738
    11  H    2.192620   3.806326   1.092892   2.127661   3.380353
    12  H    3.482042   3.492670   2.202145   1.085150   3.825414
                    6          7          8          9         10
     6  C    0.000000
     7  H    3.037450   0.000000
     8  H    3.739212   1.772033   0.000000
     9  H    2.146229   2.443800   3.607017   0.000000
    10  H    2.146058   3.593293   4.042731   1.772093   0.000000
    11  H    3.236144   2.445980   2.620615   4.128353   4.806105
    12  H    2.111514   3.878499   4.315022   4.052248   4.194644
                   11         12
    11  H    0.000000
    12  H    2.515082   0.000000
 Stoichiometry    C5H6O(3)
 Framework group  C1[X(C5H6O)]
 Deg. of freedom    30
 Full point group                 C1      NOp   1
 Largest Abelian subgroup         C1      NOp   1
 Largest concise Abelian subgroup C1      NOp   1
                         Standard orientation:                         
 ---------------------------------------------------------------------
 Center     Atomic      Atomic             Coordinates (Angstroms)
 Number     Number       Type             X           Y           Z
 ---------------------------------------------------------------------
      1          6           0        0.047038    1.287394    0.179518
      2          6           0       -1.272140   -0.632445    0.160327
      3          6           0        1.342969    0.562872   -0.128535
      4          6           0        1.207577   -0.885818   -0.085910
      5          8           0       -1.066306    0.641798   -0.400935
      6          6           0       -0.004872   -1.422426    0.052568
      7          1           0       -0.075903    1.358366    1.272507
      8          1           0        0.072562    2.306229   -0.217331
      9          1           0       -1.591462   -0.557729    1.210726
     10          1           0       -2.079369   -1.111276   -0.400437
     11          1           0        2.190051    0.919984    0.462512
     12          1           0        2.091135   -1.507421   -0.188301
 ---------------------------------------------------------------------
 Rotational constants (GHZ):      5.7817134      5.0359931      2.9103642
 Standard basis: 6-311+G(2df,2p) (5D, 7F)
 There are   258 symmetry adapted basis functions of A   symmetry.
 Integral buffers will be    131072 words long.
 Raffenetti 2 integral format.
 Two-electron integral symmetry is turned on.
   258 basis functions,   378 primitive gaussians,   288 cartesian basis functions
    23 alpha electrons       21 beta electrons
       nuclear repulsion energy       222.2372459348 Hartrees.
 NAtoms=   12 NActive=   12 NUniq=   12 SFac= 1.00D+00 NAtFMM=   50 NAOKFM=F Big=F
 One-electron integrals computed using PRISM.
 NBasis=   258 RedAO= T  NBF=   258
 NBsUse=   258 1.00D-06 NBFU=   258
 Initial guess read from the read-write file.
 B after Tr=     0.000000    0.000000    0.000000
         Rot=    1.000000    0.000000    0.000000    0.000000 Ang=   0.00 deg.
 Initial guess orbital symmetries:
 Alpha Orbitals:
       Occupied  (A) (A) (A) (A) (A) (A) (A) (A) (A) (A) (A) (A)
                 (A) (A) (A) (A) (A) (A) (A) (A) (A) (A) (A)
       Virtual   (A) (A) (A) (A) (A) (A) (A) (A) (A) (A) (A) (A)
                 (A) (A) (A) (A) (A) (A) (A) (A) (A) (A) (A) (A)
                 (A) (A) (A) (A) (A) (A) (A) (A) (A) (A) (A) (A)
                 (A) (A) (A) (A) (A) (A) (A) (A) (A) (A) (A) (A)
                 (A) (A) (A) (A) (A) (A) (A) (A) (A) (A) (A) (A)
                 (A) (A) (A) (A) (A) (A) (A) (A) (A) (A) (A) (A)
                 (A) (A) (A) (A) (A) (A) (A) (A) (A) (A) (A) (A)
                 (A) (A) (A) (A) (A) (A) (A) (A) (A) (A) (A) (A)
                 (A) (A) (A) (A) (A) (A) (A) (A) (A) (A) (A) (A)
                 (A) (A) (A) (A) (A) (A) (A) (A) (A) (A) (A) (A)
                 (A) (A) (A) (A) (A) (A) (A) (A) (A) (A) (A) (A)
                 (A) (A) (A) (A) (A) (A) (A) (A) (A) (A) (A) (A)
                 (A) (A) (A) (A) (A) (A) (A) (A) (A) (A) (A) (A)
                 (A) (A) (A) (A) (A) (A) (A) (A) (A) (A) (A) (A)
                 (A) (A) (A) (A) (A) (A) (A) (A) (A) (A) (A) (A)
                 (A) (A) (A) (A) (A) (A) (A) (A) (A) (A) (A) (A)
                 (A) (A) (A) (A) (A) (A) (A) (A) (A) (A) (A) (A)
                 (A) (A) (A) (A) (A) (A) (A) (A) (A) (A) (A) (A)
                 (A) (A) (A) (A) (A) (A) (A) (A) (A) (A) (A) (A)
                 (A) (A) (A) (A) (A) (A) (A)
 Beta  Orbitals:
       Occupied  (A) (A) (A) (A) (A) (A) (A) (A) (A) (A) (A) (A)
                 (A) (A) (A) (A) (A) (A) (A) (A) (A)
       Virtual   (A) (A) (A) (A) (A) (A) (A) (A) (A) (A) (A) (A)
                 (A) (A) (A) (A) (A) (A) (A) (A) (A) (A) (A) (A)
                 (A) (A) (A) (A) (A) (A) (A) (A) (A) (A) (A) (A)
                 (A) (A) (A) (A) (A) (A) (A) (A) (A) (A) (A) (A)
                 (A) (A) (A) (A) (A) (A) (A) (A) (A) (A) (A) (A)
                 (A) (A) (A) (A) (A) (A) (A) (A) (A) (A) (A) (A)
                 (A) (A) (A) (A) (A) (A) (A) (A) (A) (A) (A) (A)
                 (A) (A) (A) (A) (A) (A) (A) (A) (A) (A) (A) (A)
                 (A) (A) (A) (A) (A) (A) (A) (A) (A) (A) (A) (A)
                 (A) (A) (A) (A) (A) (A) (A) (A) (A) (A) (A) (A)
                 (A) (A) (A) (A) (A) (A) (A) (A) (A) (A) (A) (A)
                 (A) (A) (A) (A) (A) (A) (A) (A) (A) (A) (A) (A)
                 (A) (A) (A) (A) (A) (A) (A) (A) (A) (A) (A) (A)
                 (A) (A) (A) (A) (A) (A) (A) (A) (A) (A) (A) (A)
                 (A) (A) (A) (A) (A) (A) (A) (A) (A) (A) (A) (A)
                 (A) (A) (A) (A) (A) (A) (A) (A) (A) (A) (A) (A)
                 (A) (A) (A) (A) (A) (A) (A) (A) (A) (A) (A) (A)
                 (A) (A) (A) (A) (A) (A) (A) (A) (A) (A) (A) (A)
                 (A) (A) (A) (A) (A) (A) (A) (A) (A) (A) (A) (A)
                 (A) (A) (A) (A) (A) (A) (A) (A) (A)
 Initial guess <Sx>= 0.0000 <Sy>= 0.0000 <Sz>= 1.0000 <S**2>= 2.0475 S= 1.0158
 Harris functional with IExCor= 1009 diagonalized for initial guess.
 ExpMin= 4.38D-02 ExpMax= 8.59D+03 ExpMxC= 1.30D+03 IAcc=2 IRadAn=         0 AccDes= 0.00D+00
 HarFok:  IExCor= 1009 AccDes= 0.00D+00 IRadAn=         0 IDoV= 1
 ScaDFX=  1.000000  1.000000  1.000000  1.000000
 FoFCou: FMM=F IPFlag=           0 FMFlag=      100000 FMFlg1=           0
         NFxFlg=           0 DoJE=T BraDBF=F KetDBF=T FulRan=T
         Omega=  0.000000  0.000000  1.000000  0.000000  0.000000 ICntrl=     500 IOpCl=  0
         NMat0=    1 NMatS0=    1 NMatT0=    0 NMatD0=    1 NMtDS0=    0 NMtDT0=    0
         I1Cent=           4 NGrid=           0.
 Petite list used in FoFCou.
 Requested convergence on RMS density matrix=1.00D-08 within 128 cycles.
 Requested convergence on MAX density matrix=1.00D-06.
 Requested convergence on             energy=1.00D-06.
 No special actions if energy rises.
 SCF Done:  E(UM062X) =  -269.165759982     A.U. after   15 cycles
             Convg  =    0.5761D-08             -V/T =  2.0039
 <Sx>= 0.0000 <Sy>= 0.0000 <Sz>= 1.0000 <S**2>= 2.0484 S= 1.0161
 <L.S>= 0.000000000000E+00
 Annihilation of the first spin contaminant:
 S**2 before annihilation     2.0484,   after     2.0005
 Calling FoFJK, ICntrl=      2127 FMM=F ISym2X=0 I1Cent= 0 IOpClX= 1 NMat=1 NMatS=1 NMatT=0.
 ***** Axes restored to original set *****
 -------------------------------------------------------------------
 Center     Atomic                   Forces (Hartrees/Bohr)
 Number     Number              X              Y              Z
 -------------------------------------------------------------------
      1        6           0.010212191   -0.001485758   -0.012435164
      2        6           0.000043431   -0.011275387    0.004506703
      3        6          -0.016036920   -0.002091740    0.040867760
      4        6           0.009910952    0.006997593   -0.014885094
      5        8          -0.001185270    0.005033242    0.001688035
      6        6          -0.008209249    0.003993823   -0.005914150
      7        1          -0.000368999   -0.000912492   -0.000259188
      8        1          -0.002550693   -0.001905320    0.001435768
      9        1           0.000730954    0.000042975   -0.001125712
     10        1           0.001231732    0.002708685   -0.000385783
     11        1           0.006324281   -0.003275866   -0.015857630
     12        1          -0.000102409    0.002170244    0.002364454
 -------------------------------------------------------------------
 Cartesian Forces:  Max     0.040867760 RMS     0.009418537

 GradGradGradGradGradGradGradGradGradGradGradGradGradGradGradGradGradGrad
 Berny optimization.
 Using GDIIS optimizer.
 Internal  Forces:  Max     0.014714780 RMS     0.003856986
 Search for a local minimum.
 Step number   2 out of a maximum of   63
 All quantities printed in internal units (Hartrees-Bohrs-Radians)
 Swaping is turned off.
 Update second derivatives using D2CorX and points    1    2
 DE= -1.18D-02 DEPred=-1.13D-02 R= 1.05D+00
 SS=  1.41D+00  RLast= 3.00D-01 DXNew= 5.0454D-01 8.9955D-01
 Trust test= 1.05D+00 RLast= 3.00D-01 DXMaxT set to 5.05D-01
 ITU=  1  0
     Eigenvalues ---    0.00653   0.01194   0.01527   0.02145   0.02267
     Eigenvalues ---    0.05567   0.07216   0.07579   0.09674   0.10565
     Eigenvalues ---    0.11649   0.11910   0.12114   0.12981   0.16078
     Eigenvalues ---    0.19399   0.20719   0.23228   0.26615   0.29028
     Eigenvalues ---    0.31017   0.32202   0.32418   0.32554   0.32660
     Eigenvalues ---    0.33277   0.35463   0.41488   0.42057   0.57650
 DIIS coeff's:      1.92175     -0.92175
 Cosine:  1.000 >  0.970
 Length:  0.990
 GDIIS step was calculated using  2 of the last  2 vectors.
 Iteration  1 RMS(Cart)=  0.05975961 RMS(Int)=  0.09110040
 Iteration  2 RMS(Cart)=  0.04808297 RMS(Int)=  0.02882181
 Iteration  3 RMS(Cart)=  0.01803443 RMS(Int)=  0.01508289
 Iteration  4 RMS(Cart)=  0.00063397 RMS(Int)=  0.01505969
 Iteration  5 RMS(Cart)=  0.00000798 RMS(Int)=  0.01505969
 Iteration  6 RMS(Cart)=  0.00000020 RMS(Int)=  0.01505969
 Variable       Old X    -DE/DX   Delta X   Delta X   Delta X     New X
                                  (DIIS)     (GDIIS)  (Total)
    R1        2.86545  -0.00452  -0.02957  -0.00575  -0.02748   2.83797
    R2        2.66796  -0.00046  -0.00450   0.00650   0.00063   2.66860
    R3        2.08280  -0.00060  -0.02170   0.01741  -0.00429   2.07850
    R4        2.06678  -0.00252  -0.02765   0.01180  -0.01585   2.05093
    R5        2.65980   0.00176  -0.01819   0.03193   0.00771   2.66752
    R6        2.82932  -0.00538  -0.01820  -0.00983  -0.03568   2.79365
    R7        2.07946  -0.00113  -0.02078   0.01334  -0.00744   2.07202
    R8        2.06608  -0.00253  -0.02785   0.01194  -0.01591   2.05017
    R9        2.75074  -0.01471  -0.08457  -0.01781  -0.09475   2.65598
   R10        2.06527  -0.00380  -0.03090   0.00735  -0.02355   2.04172
   R11        2.51920   0.00539  -0.00762   0.02166   0.01350   2.53270
   R12        2.05064  -0.00047   0.00101  -0.00348  -0.00248   2.04816
    A1        1.95190   0.00004   0.02151  -0.02639   0.00806   1.95996
    A2        1.90452  -0.00168  -0.02388   0.01346  -0.01040   1.89412
    A3        1.92991   0.00397   0.03522   0.00785   0.03679   1.96670
    A4        1.92751  -0.00010  -0.01137   0.00612  -0.00939   1.91812
    A5        1.87046  -0.00220  -0.02535  -0.00119  -0.03100   1.83946
    A6        1.87806   0.00002   0.00413   0.00090   0.00563   1.88368
    A7        1.90202  -0.00432  -0.04916   0.04898  -0.00729   1.89473
    A8        1.94079   0.00074   0.00446  -0.01036  -0.00411   1.93667
    A9        1.87543  -0.00045  -0.01202  -0.00054  -0.01045   1.86498
   A10        1.92852   0.00051   0.00758  -0.01525  -0.00875   1.91977
   A11        1.93578   0.00333   0.04711  -0.02275   0.02823   1.96401
   A12        1.88082   0.00029   0.00411  -0.00088   0.00265   1.88347
   A13        1.97153   0.00450   0.02518   0.06288   0.05674   2.02827
   A14        1.97842   0.00258   0.05925   0.12588   0.11458   2.09300
   A15        1.96217   0.00314   0.03869   0.17788   0.14752   2.10969
   A16        2.08087  -0.00173  -0.03022  -0.00474  -0.01927   2.06160
   A17        2.08472   0.00036  -0.00069   0.01500   0.00643   2.09115
   A18        2.11736   0.00137   0.03096  -0.01006   0.01302   2.13038
   A19        1.94481   0.00267   0.02483   0.02813   0.04965   1.99447
   A20        2.17111   0.00312   0.05957  -0.03446   0.02587   2.19698
    D1       -0.68575   0.00536   0.06326   0.01220   0.07764  -0.60811
    D2       -2.94351  -0.00548  -0.05448  -0.40991  -0.46779   2.87189
    D3        1.45200   0.00409   0.04685   0.01174   0.06387   1.51587
    D4       -0.80575  -0.00676  -0.07089  -0.41037  -0.48156  -1.28731
    D5       -2.76876   0.00545   0.05873   0.02574   0.08651  -2.68224
    D6        1.25667  -0.00540  -0.05902  -0.39637  -0.45892   0.79776
    D7        1.13792  -0.00431  -0.04233  -0.09723  -0.13153   1.00639
    D8       -0.98666  -0.00212  -0.01880  -0.10062  -0.11719  -1.10385
    D9       -3.02754  -0.00083  -0.00228  -0.10429  -0.10181  -3.12935
   D10       -0.94527   0.00212   0.02918   0.04118   0.07605  -0.86922
   D11        1.18475   0.00033   0.00763   0.04830   0.05772   1.24247
   D12       -3.04405   0.00082   0.00787   0.04112   0.05243  -2.99162
   D13        0.38718   0.00029   0.00522   0.01198   0.01786   0.40505
   D14       -1.75024   0.00190   0.02805   0.00234   0.03321  -1.71703
   D15        2.44835  -0.00094  -0.01020   0.02802   0.01726   2.46561
   D16        0.13244  -0.00276  -0.03877   0.06465   0.02051   0.15294
   D17       -3.03155  -0.00262  -0.03606   0.07463   0.03253  -2.99902
   D18        2.39848   0.00769   0.08985   0.45685   0.55418   2.95266
   D19       -0.76550   0.00782   0.09256   0.46683   0.56621  -0.19930
   D20        0.00850  -0.00018   0.00198  -0.07164  -0.06954  -0.06104
   D21       -3.11027  -0.00031  -0.00030  -0.08215  -0.08175   3.09117
         Item               Value     Threshold  Converged?
 Maximum Force            0.014715     0.000002     NO 
 RMS     Force            0.003857     0.000001     NO 
 Maximum Displacement     0.571519     0.000006     NO 
 RMS     Displacement     0.115173     0.000004     NO 
 Predicted change in Energy=-1.430747D-02
 GradGradGradGradGradGradGradGradGradGradGradGradGradGradGradGradGradGrad

                          Input orientation:                          
 ---------------------------------------------------------------------
 Center     Atomic      Atomic             Coordinates (Angstroms)
 Number     Number       Type             X           Y           Z
 ---------------------------------------------------------------------
      1          6           0       -0.011712    1.090622   -0.529255
      2          6           0       -1.354882   -0.732674    0.175930
      3          6           0        1.266940    0.368140   -0.215499
      4          6           0        1.137283   -0.861539    0.452683
      5          8           0       -1.065847    0.203800   -0.839974
      6          6           0       -0.091927   -1.376102    0.595952
      7          1           0       -0.285834    1.708655    0.338309
      8          1           0        0.077716    1.744849   -1.390579
      9          1           0       -1.831048   -0.245175    1.034911
     10          1           0       -2.063418   -1.440551   -0.241081
     11          1           0        2.202770    0.908023   -0.206624
     12          1           0        2.020058   -1.368049    0.825327
 ---------------------------------------------------------------------
                    Distance matrix (angstroms):
                    1          2          3          4          5
     1  C    0.000000
     2  C    2.371877   0.000000
     3  C    1.501790   2.870359   0.000000
     4  C    2.468871   2.510793   1.405486   0.000000
     5  O    1.412161   1.411590   2.420511   2.767615   0.000000
     6  C    2.712426   1.478335   2.355282   1.340245   2.346592
     7  H    1.099897   2.670078   2.124804   2.940109   2.064306
     8  H    1.085306   3.262576   2.165732   3.363563   1.996430
     9  H    2.746080   1.096466   3.396647   3.087051   2.074200
    10  H    3.270990   1.084901   3.789895   3.325815   2.014376
    11  H    2.245298   3.936384   1.080430   2.168248   3.403075
    12  H    3.465263   3.495088   2.159829   1.083840   3.842753
                    6          7          8          9         10
     6  C    0.000000
     7  H    3.101565   0.000000
     8  H    3.703433   1.767068   0.000000
     9  H    2.120430   2.586580   3.672408   0.000000
    10  H    2.142791   3.662375   4.006566   1.763824   0.000000
    11  H    3.335714   2.670414   2.572524   4.375267   4.870045
    12  H    2.124420   3.875621   4.286382   4.016938   4.221050
                   11         12
    11  H    0.000000
    12  H    2.505756   0.000000
 Stoichiometry    C5H6O(3)
 Framework group  C1[X(C5H6O)]
 Deg. of freedom    30
 Full point group                 C1      NOp   1
 Largest Abelian subgroup         C1      NOp   1
 Largest concise Abelian subgroup C1      NOp   1
                         Standard orientation:                         
 ---------------------------------------------------------------------
 Center     Atomic      Atomic             Coordinates (Angstroms)
 Number     Number       Type             X           Y           Z
 ---------------------------------------------------------------------
      1          6           0        0.125245    1.292761    0.176280
      2          6           0       -1.310131   -0.595012    0.133750
      3          6           0        1.350413    0.461643   -0.075872
      4          6           0        1.171102   -0.932125   -0.050418
      5          8           0       -1.041898    0.701689   -0.355333
      6          6           0       -0.080585   -1.406942    0.013511
      7          1           0        0.013905    1.430764    1.261791
      8          1           0        0.184558    2.275226   -0.281029
      9          1           0       -1.635477   -0.560036    1.180252
     10          1           0       -2.129205   -0.990963   -0.457310
     11          1           0        2.331602    0.896790    0.047597
     12          1           0        2.033531   -1.587246   -0.092153
 ---------------------------------------------------------------------
 Rotational constants (GHZ):      5.8504575      5.0593214      2.8984518
 Standard basis: 6-311+G(2df,2p) (5D, 7F)
 There are   258 symmetry adapted basis functions of A   symmetry.
 Integral buffers will be    131072 words long.
 Raffenetti 2 integral format.
 Two-electron integral symmetry is turned on.
   258 basis functions,   378 primitive gaussians,   288 cartesian basis functions
    23 alpha electrons       21 beta electrons
       nuclear repulsion energy       222.9653304041 Hartrees.
 NAtoms=   12 NActive=   12 NUniq=   12 SFac= 1.00D+00 NAtFMM=   50 NAOKFM=F Big=F
 One-electron integrals computed using PRISM.
 NBasis=   258 RedAO= T  NBF=   258
 NBsUse=   258 1.00D-06 NBFU=   258
 Initial guess read from the read-write file.
 B after Tr=     0.000000    0.000000    0.000000
         Rot=    1.000000    0.000000    0.000000    0.000000 Ang=   0.00 deg.
 Initial guess orbital symmetries:
 Alpha Orbitals:
       Occupied  (A) (A) (A) (A) (A) (A) (A) (A) (A) (A) (A) (A)
                 (A) (A) (A) (A) (A) (A) (A) (A) (A) (A) (A)
       Virtual   (A) (A) (A) (A) (A) (A) (A) (A) (A) (A) (A) (A)
                 (A) (A) (A) (A) (A) (A) (A) (A) (A) (A) (A) (A)
                 (A) (A) (A) (A) (A) (A) (A) (A) (A) (A) (A) (A)
                 (A) (A) (A) (A) (A) (A) (A) (A) (A) (A) (A) (A)
                 (A) (A) (A) (A) (A) (A) (A) (A) (A) (A) (A) (A)
                 (A) (A) (A) (A) (A) (A) (A) (A) (A) (A) (A) (A)
                 (A) (A) (A) (A) (A) (A) (A) (A) (A) (A) (A) (A)
                 (A) (A) (A) (A) (A) (A) (A) (A) (A) (A) (A) (A)
                 (A) (A) (A) (A) (A) (A) (A) (A) (A) (A) (A) (A)
                 (A) (A) (A) (A) (A) (A) (A) (A) (A) (A) (A) (A)
                 (A) (A) (A) (A) (A) (A) (A) (A) (A) (A) (A) (A)
                 (A) (A) (A) (A) (A) (A) (A) (A) (A) (A) (A) (A)
                 (A) (A) (A) (A) (A) (A) (A) (A) (A) (A) (A) (A)
                 (A) (A) (A) (A) (A) (A) (A) (A) (A) (A) (A) (A)
                 (A) (A) (A) (A) (A) (A) (A) (A) (A) (A) (A) (A)
                 (A) (A) (A) (A) (A) (A) (A) (A) (A) (A) (A) (A)
                 (A) (A) (A) (A) (A) (A) (A) (A) (A) (A) (A) (A)
                 (A) (A) (A) (A) (A) (A) (A) (A) (A) (A) (A) (A)
                 (A) (A) (A) (A) (A) (A) (A) (A) (A) (A) (A) (A)
                 (A) (A) (A) (A) (A) (A) (A)
 Beta  Orbitals:
       Occupied  (A) (A) (A) (A) (A) (A) (A) (A) (A) (A) (A) (A)
                 (A) (A) (A) (A) (A) (A) (A) (A) (A)
       Virtual   (A) (A) (A) (A) (A) (A) (A) (A) (A) (A) (A) (A)
                 (A) (A) (A) (A) (A) (A) (A) (A) (A) (A) (A) (A)
                 (A) (A) (A) (A) (A) (A) (A) (A) (A) (A) (A) (A)
                 (A) (A) (A) (A) (A) (A) (A) (A) (A) (A) (A) (A)
                 (A) (A) (A) (A) (A) (A) (A) (A) (A) (A) (A) (A)
                 (A) (A) (A) (A) (A) (A) (A) (A) (A) (A) (A) (A)
                 (A) (A) (A) (A) (A) (A) (A) (A) (A) (A) (A) (A)
                 (A) (A) (A) (A) (A) (A) (A) (A) (A) (A) (A) (A)
                 (A) (A) (A) (A) (A) (A) (A) (A) (A) (A) (A) (A)
                 (A) (A) (A) (A) (A) (A) (A) (A) (A) (A) (A) (A)
                 (A) (A) (A) (A) (A) (A) (A) (A) (A) (A) (A) (A)
                 (A) (A) (A) (A) (A) (A) (A) (A) (A) (A) (A) (A)
                 (A) (A) (A) (A) (A) (A) (A) (A) (A) (A) (A) (A)
                 (A) (A) (A) (A) (A) (A) (A) (A) (A) (A) (A) (A)
                 (A) (A) (A) (A) (A) (A) (A) (A) (A) (A) (A) (A)
                 (A) (A) (A) (A) (A) (A) (A) (A) (A) (A) (A) (A)
                 (A) (A) (A) (A) (A) (A) (A) (A) (A) (A) (A) (A)
                 (A) (A) (A) (A) (A) (A) (A) (A) (A) (A) (A) (A)
                 (A) (A) (A) (A) (A) (A) (A) (A) (A) (A) (A) (A)
                 (A) (A) (A) (A) (A) (A) (A) (A) (A)
 Initial guess <Sx>= 0.0000 <Sy>= 0.0000 <Sz>= 1.0000 <S**2>= 2.0468 S= 1.0155
 Harris functional with IExCor= 1009 diagonalized for initial guess.
 ExpMin= 4.38D-02 ExpMax= 8.59D+03 ExpMxC= 1.30D+03 IAcc=2 IRadAn=         0 AccDes= 0.00D+00
 HarFok:  IExCor= 1009 AccDes= 0.00D+00 IRadAn=         0 IDoV= 1
 ScaDFX=  1.000000  1.000000  1.000000  1.000000
 FoFCou: FMM=F IPFlag=           0 FMFlag=      100000 FMFlg1=           0
         NFxFlg=           0 DoJE=T BraDBF=F KetDBF=T FulRan=T
         Omega=  0.000000  0.000000  1.000000  0.000000  0.000000 ICntrl=     500 IOpCl=  0
         NMat0=    1 NMatS0=    1 NMatT0=    0 NMatD0=    1 NMtDS0=    0 NMtDT0=    0
         I1Cent=           4 NGrid=           0.
 Petite list used in FoFCou.
 Requested convergence on RMS density matrix=1.00D-08 within 128 cycles.
 Requested convergence on MAX density matrix=1.00D-06.
 Requested convergence on             energy=1.00D-06.
 No special actions if energy rises.
 SCF Done:  E(UM062X) =  -269.179228995     A.U. after   15 cycles
             Convg  =    0.8304D-08             -V/T =  2.0034
 <Sx>= 0.0000 <Sy>= 0.0000 <Sz>= 1.0000 <S**2>= 2.0438 S= 1.0145
 <L.S>= 0.000000000000E+00
 Annihilation of the first spin contaminant:
 S**2 before annihilation     2.0438,   after     2.0004
 Calling FoFJK, ICntrl=      2127 FMM=F ISym2X=0 I1Cent= 0 IOpClX= 1 NMat=1 NMatS=1 NMatT=0.
 ***** Axes restored to original set *****
 -------------------------------------------------------------------
 Center     Atomic                   Forces (Hartrees/Bohr)
 Number     Number              X              Y              Z
 -------------------------------------------------------------------
      1        6           0.002565195   -0.003265954   -0.001446086
      2        6           0.004513111   -0.000541792    0.001114355
      3        6          -0.005068844   -0.002879220    0.015033853
      4        6           0.018111799    0.011772146   -0.010430959
      5        8          -0.004369814    0.002517876   -0.004310603
      6        6          -0.013454494   -0.008711448    0.006809460
      7        1          -0.001342512    0.001473015    0.000333760
      8        1           0.001702685    0.001752651   -0.001498360
      9        1          -0.001181066    0.001510242    0.001086253
     10        1          -0.001749506   -0.001663445   -0.001717938
     11        1           0.000746129   -0.000745212   -0.004207591
     12        1          -0.000472682   -0.001218860   -0.000766145
 -------------------------------------------------------------------
 Cartesian Forces:  Max     0.018111799 RMS     0.005941873

 GradGradGradGradGradGradGradGradGradGradGradGradGradGradGradGradGradGrad
 Berny optimization.
 Using GDIIS optimizer.
 Internal  Forces:  Max     0.015727534 RMS     0.002927097
 Search for a local minimum.
 Step number   3 out of a maximum of   63
 All quantities printed in internal units (Hartrees-Bohrs-Radians)
 Swaping is turned off.
 Update second derivatives using D2CorX and points    2    3
 DE= -1.35D-02 DEPred=-1.43D-02 R= 9.41D-01
 SS=  1.41D+00  RLast= 1.20D+00 DXNew= 8.4853D-01 3.5906D+00
 Trust test= 9.41D-01 RLast= 1.20D+00 DXMaxT set to 8.49D-01
 ITU=  1  1  0
     Eigenvalues ---    0.00658   0.01116   0.01225   0.01679   0.02040
     Eigenvalues ---    0.05395   0.07203   0.07439   0.09665   0.11777
     Eigenvalues ---    0.11883   0.12061   0.12596   0.14815   0.16096
     Eigenvalues ---    0.19743   0.20670   0.22629   0.25852   0.28832
     Eigenvalues ---    0.31178   0.32208   0.32417   0.32555   0.32660
     Eigenvalues ---    0.33417   0.35463   0.41492   0.42153   0.58592
 DIIS coeff's:      1.31215     -0.40035      0.08819
 Cosine:  0.997 >  0.840
 Length:  0.985
 GDIIS step was calculated using  3 of the last  3 vectors.
 Iteration  1 RMS(Cart)=  0.05270588 RMS(Int)=  0.00847281
 Iteration  2 RMS(Cart)=  0.00504385 RMS(Int)=  0.00761455
 Iteration  3 RMS(Cart)=  0.00000787 RMS(Int)=  0.00761454
 Iteration  4 RMS(Cart)=  0.00000006 RMS(Int)=  0.00761454
 Variable       Old X    -DE/DX   Delta X   Delta X   Delta X     New X
                                  (DIIS)     (GDIIS)  (Total)
    R1        2.83797  -0.00007  -0.00575   0.00472   0.00238   2.84035
    R2        2.66860   0.00237   0.00063   0.00588   0.00615   2.67475
    R3        2.07850   0.00143   0.00074   0.00513   0.00587   2.08437
    R4        2.05093   0.00238  -0.00230   0.01055   0.00825   2.05918
    R5        2.66752   0.00371   0.00415   0.00856   0.01105   2.67857
    R6        2.79365   0.00224  -0.00940   0.01305   0.00027   2.79392
    R7        2.07202   0.00204  -0.00033   0.00820   0.00787   2.07989
    R8        2.05017   0.00289  -0.00230   0.01256   0.01026   2.06043
    R9        2.65598  -0.00732  -0.02149  -0.01769  -0.03638   2.61960
[...]
 Thermal correction to Enthalpy=                  0.102860
 Thermal correction to Gibbs Free Energy=         0.067351
 Sum of electronic and zero-point Energies=           -269.085273
 Sum of electronic and thermal Energies=              -269.080098
 Sum of electronic and thermal Enthalpies=            -269.079153
 Sum of electronic and thermal Free Energies=         -269.114663
 
                     E (Thermal)             CV                S
                      KCal/Mol        Cal/Mol-Kelvin    Cal/Mol-Kelvin
 Total                   63.953             18.920             74.735
 Electronic               0.000              0.000              2.183
 Translational            0.889              2.981             39.128
 Rotational               0.889              2.981             25.742
 Vibrational             62.176             12.958              7.682
 Vibration     1          0.619              1.900              2.644
 Vibration     2          0.679              1.714              1.547
 Vibration     3          0.799              1.385              0.830
 Vibration     4          0.879              1.197              0.601
 Vibration     5          0.911              1.127              0.532
                       Q            Log10(Q)             Ln(Q)
 Total Bot       0.104941D-30        -30.979056        -71.331914
 Total V=0       0.329815D+14         13.518271         31.126969
 Vib (Bot)       0.127022D-43        -43.896120       -101.074551
 Vib (Bot)    1  0.133076D+01          0.124100          0.285751
 Vib (Bot)    2  0.692767D+00         -0.159413         -0.367062
 Vib (Bot)    3  0.394191D+00         -0.404293         -0.930919
 Vib (Bot)    4  0.306941D+00         -0.512945         -1.181100
 Vib (Bot)    5  0.280658D+00         -0.551822         -1.270618
 Vib (V=0)       0.399216D+01          0.601207          1.384331
 Vib (V=0)    1  0.192159D+01          0.283661          0.653154
 Vib (V=0)    2  0.135436D+01          0.131733          0.303327
 Vib (V=0)    3  0.113670D+01          0.055646          0.128129
 Vib (V=0)    4  0.108670D+01          0.036108          0.083142
 Vib (V=0)    5  0.107338D+01          0.030755          0.070816
 Electronic      0.300000D+01          0.477121          1.098612
 Translational   0.292084D+08          7.465508         17.189969
 Rotational      0.942830D+05          4.974434         11.454056
 ***** Axes restored to original set *****
 -------------------------------------------------------------------
 Center     Atomic                   Forces (Hartrees/Bohr)
 Number     Number              X              Y              Z
 -------------------------------------------------------------------
      1        6          -0.000011002   -0.000001340   -0.000002295
      2        6           0.000007306   -0.000012954    0.000001728
      3        6          -0.000003941    0.000012040   -0.000001027
      4        6           0.000008389    0.000012027    0.000001775
      5        8          -0.000001967   -0.000012116   -0.000000295
      6        6           0.000013990    0.000000449    0.000002943
      7        1          -0.000017361   -0.000002948   -0.000003630
      8        1          -0.000016848   -0.000001470   -0.000003595
      9        1           0.000002342   -0.000015587    0.000000655
     10        1           0.000014072   -0.000020848    0.000003218
     11        1          -0.000008837    0.000021086   -0.000002168
     12        1           0.000013858    0.000021662    0.000002689
 -------------------------------------------------------------------
 Cartesian Forces:  Max     0.000021662 RMS     0.000010270

 GradGradGradGradGradGradGradGradGradGradGradGradGradGradGradGradGradGrad
 Berny optimization.
 Internal  Forces:  Max     0.000000157 RMS     0.000000041
 Search for a local minimum.
 Step number   1 out of a maximum of    2
 All quantities printed in internal units (Hartrees-Bohrs-Radians)
 Swaping is turned off.
 Second derivative matrix not updated -- analytic derivatives used.
 ITU=  0
     Eigenvalues ---    0.00241   0.00799   0.01191   0.01923   0.02727
     Eigenvalues ---    0.05684   0.06495   0.07230   0.08089   0.09734
     Eigenvalues ---    0.10286   0.10593   0.10912   0.11579   0.12006
     Eigenvalues ---    0.17255   0.19304   0.22262   0.26517   0.29489
     Eigenvalues ---    0.30478   0.31257   0.31343   0.33382   0.33579
     Eigenvalues ---    0.35246   0.36007   0.36171   0.36279   0.50241
 Angle between quadratic step and forces=  77.19 degrees.
 Linear search not attempted -- option 19 set.
 Iteration  1 RMS(Cart)=  0.00000278 RMS(Int)=  0.00000000
 Iteration  2 RMS(Cart)=  0.00000000 RMS(Int)=  0.00000000
 Variable       Old X    -DE/DX   Delta X   Delta X   Delta X     New X
                                 (Linear)    (Quad)   (Total)
    R1        2.83527   0.00000   0.00000   0.00000   0.00000   2.83527
    R2        2.67388   0.00000   0.00000   0.00000   0.00000   2.67388
    R3        2.08152   0.00000   0.00000   0.00000   0.00000   2.08152
    R4        2.05867   0.00000   0.00000   0.00000   0.00000   2.05867
    R5        2.67974   0.00000   0.00000   0.00000   0.00000   2.67974
    R6        2.79941   0.00000   0.00000   0.00000   0.00000   2.79941
    R7        2.07874   0.00000   0.00000   0.00000   0.00000   2.07874
    R8        2.05858   0.00000   0.00000   0.00000   0.00000   2.05858
    R9        2.60269   0.00000   0.00000   0.00000   0.00000   2.60269
   R10        2.04244   0.00000   0.00000   0.00000   0.00000   2.04244
   R11        2.59202   0.00000   0.00000   0.00000   0.00000   2.59202
   R12        2.04645   0.00000   0.00000   0.00000   0.00000   2.04645
    A1        1.97033   0.00000   0.00000   0.00000   0.00000   1.97032
    A2        1.91978   0.00000   0.00000   0.00000   0.00000   1.91978
    A3        1.93689   0.00000   0.00000   0.00000   0.00000   1.93689
    A4        1.91159   0.00000   0.00000   0.00000   0.00000   1.91159
    A5        1.84799   0.00000   0.00000   0.00000   0.00000   1.84799
    A6        1.87368   0.00000   0.00000   0.00000   0.00000   1.87368
    A7        1.90717   0.00000   0.00000   0.00000   0.00000   1.90717
    A8        1.92321   0.00000   0.00000   0.00000   0.00000   1.92321
    A9        1.85832   0.00000   0.00000   0.00000   0.00000   1.85831
   A10        1.92957   0.00000   0.00000   0.00000   0.00000   1.92957
   A11        1.96077   0.00000   0.00000   0.00000   0.00000   1.96077
   A12        1.88348   0.00000   0.00000   0.00000   0.00000   1.88348
   A13        2.07488   0.00000   0.00000   0.00000   0.00000   2.07487
   A14        2.08195   0.00000   0.00000   0.00000   0.00000   2.08195
   A15        2.12629   0.00000   0.00000   0.00000   0.00000   2.12629
   A16        2.05479   0.00000   0.00000   0.00000   0.00000   2.05479
   A17        2.11091   0.00000   0.00000   0.00000   0.00000   2.11091
   A18        2.11749   0.00000   0.00000   0.00000   0.00000   2.11749
   A19        1.97747   0.00000   0.00000   0.00000   0.00000   1.97747
   A20        2.16299   0.00000   0.00000   0.00000   0.00000   2.16299
    D1       -0.45526   0.00000   0.00000  -0.00001  -0.00001  -0.45527
    D2        2.69899   0.00000   0.00000   0.00000   0.00000   2.69899
    D3        1.68565   0.00000   0.00000  -0.00001  -0.00001   1.68564
    D4       -1.44329   0.00000   0.00000  -0.00001  -0.00001  -1.44329
    D5       -2.52672   0.00000   0.00000  -0.00001  -0.00001  -2.52673
    D6        0.62753   0.00000   0.00000  -0.00001  -0.00001   0.62752
    D7        0.94973   0.00000   0.00000   0.00000   0.00000   0.94973
    D8       -1.19575   0.00000   0.00000   0.00000   0.00000  -1.19575
    D9        3.07222   0.00000   0.00000   0.00000   0.00000   3.07222
   D10       -0.91725   0.00000   0.00000   0.00000   0.00000  -0.91725
   D11        1.20617   0.00000   0.00000   0.00000   0.00000   1.20617
   D12       -3.03885   0.00000   0.00000   0.00000   0.00000  -3.03885
   D13        0.44337   0.00000   0.00000  -0.00001  -0.00001   0.44337
   D14       -1.67620   0.00000   0.00000  -0.00001  -0.00001  -1.67620
   D15        2.50177   0.00000   0.00000  -0.00001  -0.00001   2.50177
   D16       -0.01656   0.00000   0.00000   0.00000   0.00000  -0.01656
   D17        3.12359   0.00000   0.00000   0.00000   0.00000   3.12359
   D18        3.11204   0.00000   0.00000   0.00000   0.00000   3.11204
   D19       -0.03100   0.00000   0.00000   0.00000   0.00000  -0.03100
   D20        0.01659   0.00000   0.00000   0.00000   0.00000   0.01659
   D21       -3.12356   0.00000   0.00000   0.00000   0.00000  -3.12356
         Item               Value     Threshold  Converged?
 Maximum Force            0.000000     0.000002     YES
 RMS     Force            0.000000     0.000001     YES
 Maximum Displacement     0.000011     0.000006     NO 
 RMS     Displacement     0.000003     0.000004     YES
 Predicted change in Energy=-6.045290D-13
 GradGradGradGradGradGradGradGradGradGradGradGradGradGradGradGradGradGrad


 Test job not archived.
 1\1\GINC-COMPUTE-3-044\Freq\UM062X\6-311+G(2df,2p)\C5H6O1(3)\ROOT\23-A
 ug-2017\0\\#N Geom=AllCheck Guess=TCheck SCRF=Check Test GenChk UM062X
 /6-311+G(2df,2p) Freq\\InChI=1S/C5H6O/c1-2-4-6-5-3-1/h1-2H,4-5H2/u2,3\
 \0,3\C,-0.0215264853,1.0961037764,-0.5129000533\C,-1.3468420078,-0.737
 0466775,0.182403154\C,1.2400658837,0.4006832017,-0.0935450833\C,1.1548
 248797,-0.8632270715,0.4469848823\O,-1.0612858625,0.1962145433,-0.8463
 682921\C,-0.0935728768,-1.4128744297,0.591155739\H,-0.3624244239,1.772
 5237373,0.2868058111\H,0.1446712832,1.7025037708,-1.4025392391\H,-1.80
 81053888,-0.2266349026,1.0407507751\H,-2.0784058973,-1.4330926744,-0.2
 262792139\H,2.1874491676,0.9072300835,-0.2120126067\H,2.0452517281,-1.
 4023833575,0.7456441268\\Version=EM64L-G09RevB.01\State=3-A\HF=-269.18
 20131\S2=2.040325\S2-1=0.\S2A=2.000357\RMSD=5.991e-09\RMSF=1.027e-05\Z
 eroPoint=0.0967402\Thermal=0.1019156\Dipole=0.2078223,0.2918623,0.3265
 326\DipoleDeriv=0.4280792,0.1291088,0.0469784,0.093257,0.4217815,0.114
 4386,0.0345393,0.0839034,0.3619506,0.381949,-0.0663142,-0.0301515,0.02
 80006,0.39331,-0.1049391,-0.0776124,-0.0845643,0.4736149,-0.019891,-0.
 0257773,0.0095352,0.004314,0.0624624,-0.1295129,0.0326617,-0.1285825,-
 0.210985,-0.0137823,-0.0592173,0.0365963,-0.0165391,-0.1233498,-0.0197
 663,0.0270698,-0.0315396,-0.1545357,-0.6898032,-0.1211206,-0.0444326,-
 0.1051287,-0.6992945,0.1264902,-0.0370217,0.1248021,-0.5605481,-0.0186
 369,0.1020368,-0.0538692,-0.0408023,-0.1288167,0.0184565,0.0252532,-0.
 0056402,-0.0762427,-0.0050473,0.1220558,0.023126,0.0005133,-0.0529888,
 -0.047674,0.0252007,-0.1185862,-0.0541306,0.0414652,-0.0130311,0.00945
 06,-0.032202,-0.0067679,0.0551277,0.0129836,0.1051101,-0.0306505,-0.03
 53123,-0.0003905,0.0547705,0.1211993,0.0068929,-0.0905448,0.0649722,-0
 .0244051,-0.0703485,-0.0171149,-0.0725406,-0.0108451,-0.0644043,0.0138
 29,-0.0086699,-0.0715352,-0.0282018,0.0499523,-0.0458918,-0.0451958,-0
 .006601,-0.0383645,0.0450424,0.044076,0.0017722,0.0658923,0.1350186,-0
 .0060137,0.0503862,-0.0345576,0.0501567,0.0678994,0.0425181,-0.0382835
 ,0.0418119,0.1369046\Polar=65.1739913,6.4002853,65.7511649,-1.4775068,
 -8.342855,48.7502673\PG=C01 [X(C5H6O1)]\NImag=0\\0.46324052,-0.0010817
 8,0.54443519,-0.03363552,-0.05747292,0.58303275,-0.00919339,-0.0222347
 2,0.02483725,0.55510838,-0.01961422,-0.03301779,0.01900404,0.05782427,
 0.49746812,0.01055459,0.00367772,0.00851781,0.01097721,0.07787818,0.48
 453708,-0.17391702,0.04328695,-0.02890314,0.00356359,0.00434195,-0.001
 15437,0.60524639,0.05510269,-0.11651186,0.03181596,0.00591026,0.000384
 76,0.00050550,0.08409310,0.57054281,-0.02507972,0.02635892,-0.07899667
 ,-0.00271207,0.00030788,-0.00352355,0.01432690,-0.18156983,0.18740534,
 0.00851272,0.02519347,-0.01267205,-0.03303519,-0.01162106,-0.00280698,
 -0.09903372,0.06224115,-0.03434155,0.65436256,0.01116353,-0.02148111,0
 .01160538,0.01561552,0.01685688,-0.00391084,-0.01786896,-0.26694518,0.
 08816924,-0.08724926,0.48094869,-0.00532333,0.01108560,-0.00184102,-0.
 01051408,-0.00323098,0.00814471,0.00396275,0.09604678,-0.08900295,0.07
 821447,-0.16319572,0.18871652,-0.14950612,-0.06851813,-0.04970618,-0.0
 7962113,-0.03279604,0.01928680,-0.04303401,-0.02689554,-0.01226211,0.0
 0398454,-0.00668016,0.00489035,0.28332888,-0.08325641,-0.13583869,-0.0
 2913281,-0.03067122,-0.12302094,0.07686777,0.00176282,0.00927248,0.000
 37530,-0.00561928,0.00132564,-0.00196740,0.16477975,0.33516632,-0.0304
 5487,-0.00683462,-0.10236208,0.00640762,0.05681630,-0.16509762,-0.0141
 9932,-0.01052081,0.00173159,0.00733157,-0.00203844,0.00454917,0.033885
 95,-0.09017241,0.30447124,-0.00512766,0.00198657,-0.00130328,-0.183503
 78,0.06923446,-0.03681607,-0.01515431,-0.09708307,0.04276259,-0.289629
 67,-0.03542221,-0.00076720,0.00451312,0.01412928,-0.01209597,0.5499734
 9,0.00027898,0.00071357,-0.00173677,0.03672705,-0.09694637,0.01286662,
 -0.04049715,-0.05455457,0.02823746,-0.07242754,-0.08083003,0.01098259,
 0.02071912,-0.02814962,0.02914853,0.03705293,0.24439311,-0.00170933,-0
 .00385223,-0.00427758,-0.02349601,0.01288346,-0.06316249,0.01412779,0.
 01964989,0.00845166,0.01736379,0.01865181,-0.05306463,-0.02146850,0.03
 473943,-0.02290621,0.01511001,-0.07833541,0.12127028,-0.07420273,0.052
 07542,0.06905820,0.00146689,0.00271346,-0.00527541,-0.01031132,0.01998
 807,0.01489618,-0.00302558,-0.00174659,0.00042943,0.00034423,-0.029148
 82,-0.02278367,0.00141296,0.00105920,0.00146154,0.08485964,0.04620566,
 -0.12869525,-0.09902389,0.00173973,0.00169813,-0.00386996,0.01294727,-
 0.00992850,-0.00905053,0.00094643,0.00095555,-0.00001197,-0.00881133,-
 0.02399578,-0.02081930,-0.00031048,-0.00028000,0.00027008,-0.04812338,
 0.14933186,0.05977833,-0.09706394,-0.17522172,-0.00046963,0.00217222,0
 .00096064,-0.00173643,0.00549292,0.00918628,0.00071833,0.00195999,-0.0
 0050181,-0.00719500,-0.01183145,-0.00511186,-0.00137639,-0.00104356,-0
 .00025378,-0.06022810,0.11846825,0.19036117,-0.05160990,-0.01651430,0.
 02598226,-0.00337811,-0.00179188,-0.00277883,0.00511081,0.01756454,-0.
 02313159,-0.00408874,0.00143649,-0.00118044,-0.01074063,-0.02322600,0.
 02235030,-0.00043124,-0.00016554,-0.00051083,-0.00024522,-0.00505457,0
 .01024531,0.06481559,-0.01993813,-0.12140891,0.11426373,-0.00273560,-0
 .00122587,-0.00230314,0.00101648,-0.01082012,0.01426301,0.00279669,0.0
 0151584,0.00042204,-0.01058777,-0.01982344,0.01904450,-0.00105311,0.00
 017227,-0.00016638,0.00309226,0.01170023,-0.01563324,0.02790748,0.1409
 0793,0.03461541,0.12327598,-0.23557695,-0.00127321,-0.00206520,0.00143
 404,0.00025401,0.00359572,-0.00397647,-0.00118915,-0.00026176,-0.00035
 369,-0.00114420,-0.00625552,0.01063674,-0.00053654,-0.00073000,-0.0002
 5163,0.00346603,0.01199943,-0.01961833,-0.03335210,-0.12995505,0.24642
 377,-0.00031180,0.00119424,0.00104257,-0.08661966,0.04761965,0.0777682
 7,-0.00068847,-0.00115586,0.00059151,0.00159465,0.00185696,-0.00167174
 ,-0.00029195,-0.00193846,0.00937896,-0.02053506,0.01783449,0.01702261,
 0.00029562,-0.00041291,-0.00005273,0.00009876,-0.00019242,-0.00019661,
 0.09664198,0.00300529,0.00494803,0.00342703,0.04686129,-0.11029380,-0.
 09933730,0.00009616,0.00152757,-0.00210182,-0.00214965,-0.00322508,0.0
 0140290,-0.01499209,0.00577218,0.02792889,0.01196331,-0.00487008,-0.00
 850470,0.00081264,0.00000521,-0.00136819,0.00008852,-0.00006971,-0.000
 14114,-0.05389899,0.11489690,-0.00333143,-0.00302258,-0.00060758,0.071
 45184,-0.09130129,-0.18360050,0.00030884,0.00076532,-0.00000640,-0.000
 71284,0.00004840,-0.00033843,0.01485777,0.00453206,-0.03226654,-0.0019
 5214,0.00205291,0.00943542,0.00111824,0.00094350,0.00071595,0.00015266
 ,0.00022483,0.00030141,-0.08721288,0.09423201,0.21562569,0.00130514,-0
 .00001330,0.00125635,-0.16296655,-0.11398085,-0.06958690,0.00044002,-0
 .00029531,0.00007569,-0.00142942,0.00326489,-0.00226800,-0.00485679,-0
 .00758979,0.00085348,-0.02273718,-0.01327187,-0.01035889,0.00001742,-0
 .00015073,0.00002911,-0.00024457,-0.00034006,-0.00019230,0.01007388,0.
 00822619,0.00517988,0.18104842,0.00150997,-0.00116784,0.00408808,-0.10
 710243,-0.15122924,-0.06475559,0.00002746,-0.00040080,0.00059087,0.003
 43814,-0.00152100,0.00066978,-0.02013482,-0.02140046,-0.00289372,0.009
 02934,0.01365214,0.00539277,0.00007821,0.00012130,-0.00011280,-0.00110
 896,-0.00077230,-0.00014684,-0.01046212,-0.00902541,-0.00820689,0.1242
 9827,0.17159916,0.00040278,0.00273894,-0.00322403,-0.07662009,-0.07650
 375,-0.09043691,-0.00022043,0.00079938,-0.00082254,-0.00092147,-0.0003
 0363,-0.00032176,0.02321890,0.02470998,0.00691042,-0.00515478,-0.00294
 188,-0.00120372,0.00016321,0.00037762,0.00025084,0.00093121,0.00102329
 ,0.00034588,-0.01593865,-0.01597157,-0.00902725,0.07420119,0.06622903,
 0.09709557,-0.01049979,-0.01377581,0.00396082,0.00032730,0.00142215,-0
 .00108066,-0.27836779,-0.11801923,0.02412526,0.00229436,0.00131565,-0.
 00073930,-0.00475904,0.00075132,-0.00063131,0.00256930,0.00028629,-0.0
 0079578,-0.00070793,0.00105758,0.00020852,0.00068257,0.00003639,-0.000
 54626,-0.00001505,-0.00013682,0.00015212,0.00002913,-0.00012825,0.0001
 0874,0.28796946,0.01050211,0.01073902,-0.00120592,0.00130361,-0.000964
 33,-0.00010310,-0.11552623,-0.11276296,0.02598952,-0.02495909,-0.00820
 155,0.00321870,0.00327405,0.00039694,0.00033095,-0.00152608,-0.0031470
 7,0.00523060,-0.00044128,-0.00098625,-0.00089555,-0.00060209,0.0005479
 1,0.00032951,0.00005504,0.00005535,0.00000998,-0.00002823,0.00007597,-
 0.00014176,0.12753409,0.11381617,-0.00549211,-0.00284506,0.00405172,0.
 00010436,-0.00012396,-0.00272614,0.02427963,0.02644987,-0.03242491,0.0
 1128582,0.00550282,0.00286742,-0.00494975,-0.00091650,-0.00049144,-0.0
 0020988,0.00593358,0.00641287,-0.00078011,-0.00004654,-0.00019772,0.00
 062589,-0.00083792,0.00044670,0.00036758,-0.00023965,0.00026310,-0.000
 01847,-0.00006661,0.00007300,-0.02543815,-0.03042875,0.02569163,0.0013
 1003,-0.00159863,0.00008272,-0.00214836,-0.00335190,0.00091236,0.00614
 583,-0.00145078,0.00074891,-0.24050651,0.11431413,-0.06503290,0.000638
 91,0.00002681,-0.00004275,-0.02134997,0.01240404,-0.00674640,0.0000960
 2,-0.00003328,0.00007867,0.00003068,-0.00000222,0.00009490,-0.00024290
 ,0.00012416,-0.00001206,-0.00067949,0.00055519,-0.00017062,0.00047748,
 0.00041410,0.00022521,0.25622829,-0.00387770,-0.00271437,0.00436809,-0
 .00323778,0.00029045,0.00248414,0.02632015,-0.00980364,0.00842997,0.10
 941000,-0.11939865,0.04457768,0.00064296,0.00029537,0.00001012,-0.0080
 0094,0.00984665,-0.00595931,-0.00035920,0.00007351,-0.00014464,0.00146
 632,-0.00072384,0.00035485,-0.00049962,0.00027885,-0.00027825,-0.00011
 922,0.00006849,-0.00001565,-0.00034337,0.00043079,-0.00238128,-0.12140
 161,0.12135639,-0.00032480,0.00395418,0.00650535,0.00130681,0.00416311
 ,0.00495292,-0.01104622,0.00696931,0.00197862,-0.06226993,0.04377274,-
 0.05885354,0.00058598,-0.00094846,-0.00006342,0.00233965,-0.00443407,-
 0.00045022,-0.00152553,0.00076331,-0.00056966,0.00066616,-0.00034566,0
 .00018852,-0.00109890,0.00067355,-0.00049487,0.00082886,-0.00078808,0.
 00036049,0.00067599,-0.00233419,-0.00396625,0.06986194,-0.05144573,0.0
 5041205\\0.00001100,0.00000134,0.00000229,-0.00000731,0.00001295,-0.00
 000173,0.00000394,-0.00001204,0.00000103,-0.00000839,-0.00001203,-0.00
 000177,0.00000197,0.00001212,0.00000029,-0.00001399,-0.00000045,-0.000
 00294,0.00001736,0.00000295,0.00000363,0.00001685,0.00000147,0.0000035
 9,-0.00000234,0.00001559,-0.00000065,-0.00001407,0.00002085,-0.0000032
 2,0.00000884,-0.00002109,0.00000217,-0.00001386,-0.00002166,-0.0000026
 9\\\@


 HEAVEN'S NET CASTS WIDE.
 THOUGH ITS MESHES ARE COARSE, NOTHING SLIPS THROUGH.

                                          -- LAO-TSU
 Job cpu time:  0 days  2 hours 49 minutes 49.2 seconds.
 File lengths (MBytes):  RWF=   2544 Int=      0 D2E=      0 Chk=     32 Scr=     32
 Normal termination of Gaussian 09 at Wed Aug 23 19:20:56 2017.
