 Entering Gaussian System, Link 0=/shared/apps/gaussian/G09_LINUX_LINDA/g09/g09
 Input=/gss_gpfs_scratch/harms.n/QMscratch/AJHJGTHBZDDKLS-UHFFFAOYSA-u3.gjf
 Output=/gss_gpfs_scratch/harms.n/QMscratch/AJHJGTHBZDDKLS-UHFFFAOYSA-u3.log
 Initial command:
 /shared/apps/gaussian/G09_LINUX_LINDA/g09/l1.exe /gss_gpfs_scratch/harms.n/bioTST/Gau-893.inp -scrdir=/gss_gpfs_scratch/harms.n/bioTST/
 Entering Link 1 = /shared/apps/gaussian/G09_LINUX_LINDA/g09/l1.exe PID=       894.
  
 Copyright (c) 1988,1990,1992,1993,1995,1998,2003,2009,2010,
            Gaussian, Inc.  All Rights Reserved.
  
 This is part of the Gaussian(R) 09 program.  It is based on
 the Gaussian(R) 03 system (copyright 2003, Gaussian, Inc.),
 the Gaussian(R) 98 system (copyright 1998, Gaussian, Inc.),
 the Gaussian(R) 94 system (copyright 1995, Gaussian, Inc.),
 the Gaussian 92(TM) system (copyright 1992, Gaussian, Inc.),
 the Gaussian 90(TM) system (copyright 1990, Gaussian, Inc.),
 the Gaussian 88(TM) system (copyright 1988, Gaussian, Inc.),
 the Gaussian 86(TM) system (copyright 1986, Carnegie Mellon
 University), and the Gaussian 82(TM) system (copyright 1983,
 Carnegie Mellon University). Gaussian is a federally registered
 trademark of Gaussian, Inc.
  
 This software contains proprietary and confidential information,
 including trade secrets, belonging to Gaussian, Inc.
  
 This software is provided under written license and may be
 used, copied, transmitted, or stored only in accord with that
 written license.
  
 The following legend is applicable only to US Government
 contracts under FAR:
  
                    RESTRICTED RIGHTS LEGEND
  
 Use, reproduction and disclosure by the US Government is
 subject to restrictions as set forth in subparagraphs (a)
 and (c) of the Commercial Computer Software - Restricted
 Rights clause in FAR 52.227-19.
  
 Gaussian, Inc.
 340 Quinnipiac St., Bldg. 40, Wallingford CT 06492
  
  
 ---------------------------------------------------------------
 Warning -- This program may not be used in any manner that
 competes with the business of Gaussian, Inc. or will provide
 assistance to any competitor of Gaussian, Inc.  The licensee
 of this program is prohibited from giving any competitor of
 Gaussian, Inc. access to this program.  By using this program,
 the user acknowledges that Gaussian, Inc. is engaged in the
 business of creating and licensing software in the field of
 computational chemistry and represents and warrants to the
 licensee that it is not a competitor of Gaussian, Inc. and that
 it will not use this program in any manner prohibited above.
 ---------------------------------------------------------------
  

 Cite this work as:
 Gaussian 09, Revision B.01,
 M. J. Frisch, G. W. Trucks, H. B. Schlegel, G. E. Scuseria, 
 M. A. Robb, J. R. Cheeseman, G. Scalmani, V. Barone, B. Mennucci, 
 G. A. Petersson, H. Nakatsuji, M. Caricato, X. Li, H. P. Hratchian, 
 A. F. Izmaylov, J. Bloino, G. Zheng, J. L. Sonnenberg, M. Hada, 
 M. Ehara, K. Toyota, R. Fukuda, J. Hasegawa, M. Ishida, T. Nakajima, 
 Y. Honda, O. Kitao, H. Nakai, T. Vreven, J. A. Montgomery, Jr., 
 J. E. Peralta, F. Ogliaro, M. Bearpark, J. J. Heyd, E. Brothers, 
 K. N. Kudin, V. N. Staroverov, T. Keith, R. Kobayashi, J. Normand, 
 K. Raghavachari, A. Rendell, J. C. Burant, S. S. Iyengar, J. Tomasi, 
 M. Cossi, N. Rega, J. M. Millam, M. Klene, J. E. Knox, J. B. Cross, 
 V. Bakken, C. Adamo, J. Jaramillo, R. Gomperts, R. E. Stratmann, 
 O. Yazyev, A. J. Austin, R. Cammi, C. Pomelli, J. W. Ochterski, 
 R. L. Martin, K. Morokuma, V. G. Zakrzewski, G. A. Voth, 
 P. Salvador, J. J. Dannenberg, S. Dapprich, A. D. Daniels, 
 O. Farkas, J. B. Foresman, J. V. Ortiz, J. Cioslowski, 
 and D. J. Fox, Gaussian, Inc., Wallingford CT, 2010.
 
 ******************************************
 Gaussian 09:  EM64L-G09RevB.01 12-Aug-2010
                19-Aug-2017 
 ******************************************
 %nprocshared=20
 Will use up to   20 processors via shared memory.
 %mem=5GB
 --------------------------------------------------------------
 # m062x/6-311+g(2df,2p) opt=(verytight,gdiis) freq IOP(2/16=3)
 --------------------------------------------------------------

 Warning!  Use of Opt=GDIIS is deprecated since it is seldom a good choice.

 1/7=1,14=-1,18=20,19=11,26=3,38=1/1,3;
 2/9=110,12=2,16=3,17=6,18=5,40=1/2;
 3/5=4,6=6,7=214,11=2,16=1,25=1,30=1,71=1,74=-55/1,2,3;
 4//1;
 5/5=2,38=5/2;
 6/7=2,8=2,9=2,10=2,28=1/1;
 7//1,2,3,16;
 1/7=1,14=-1,18=20,19=11/3(2);
 2/9=110,16=3/2;
 99//99;
 2/9=110,16=3/2;
 3/5=4,6=6,7=214,11=2,16=1,25=1,30=1,71=1,74=-55/1,2,3;
 4/5=5,16=3/1;
 5/5=2,38=5/2;
 7//1,2,3,16;
 1/7=1,14=-1,18=20,19=11/3(-5);
 2/9=110,16=3/2;
 6/7=2,8=2,9=2,10=2,19=2,28=1/1;
 99/9=1/99;
 -----------------------------------------------------------
 InChI=1S/C8H17O/c1-5-8(6-2)9-7(3)4/h7-8H,3,5-6H2,1-2,4H3/u3
 -----------------------------------------------------------
 Symbolic Z-matrix:
 Charge =  0 Multiplicity = 2
 C                     0.8739   -0.1185   -0.0916 
 C                     1.8265    0.9619   -0.6377 
 C                     1.3268   -1.4972   -0.6147 
 C                    -1.4026    0.0673    0.4938 
 C                    -2.7702   -0.217    -0.1247 
 C                     1.4862    2.3548   -0.1126 
 C                     0.5153   -2.6484   -0.0252 
 C                    -1.4462    1.3742    1.2866 
 O                    -0.4445    0.1568   -0.5486 
 H                     0.9748   -0.1108    1.0216 
 H                    -1.1835   -0.7693    1.1964 
 H                     1.7842    0.9772   -1.7491 
 H                     2.8704    0.7242   -0.3363 
 H                     1.2392   -1.5269   -1.723 
 H                     2.3948   -1.6612   -0.3509 
 H                    -3.0563    0.5949   -0.8275 
 H                    -2.7367   -1.1753   -0.685 
 H                    -3.5438   -0.301     0.6685 
 H                     0.4966    2.6812   -0.4947 
 H                     1.4771    2.36      0.9981 
 H                     2.2506    3.0796   -0.4637 
 H                     0.9399   -3.6145   -0.3706 
 H                    -0.5403   -2.5939   -0.3637 
 H                     0.5547   -2.6227    1.0845 
 H                    -2.1575    1.2969    2.1362 
 H                    -1.7293    2.2274    0.6339 
 

 GradGradGradGradGradGradGradGradGradGradGradGradGradGradGradGradGradGrad
 Berny optimization.
 Initialization pass.
                           ----------------------------
                           !    Initial Parameters    !
                           ! (Angstroms and Degrees)  !
 --------------------------                            --------------------------
 ! Name  Definition              Value          Derivative Info.                !
 --------------------------------------------------------------------------------
 ! R1    R(1,2)                  1.5404         estimate D2E/DX2                !
 ! R2    R(1,3)                  1.5426         estimate D2E/DX2                !
 ! R3    R(1,9)                  1.4223         estimate D2E/DX2                !
 ! R4    R(1,10)                 1.1178         estimate D2E/DX2                !
 ! R5    R(2,6)                  1.527          estimate D2E/DX2                !
 ! R6    R(2,12)                 1.1123         estimate D2E/DX2                !
 ! R7    R(2,13)                 1.1122         estimate D2E/DX2                !
 ! R8    R(3,7)                  1.5269         estimate D2E/DX2                !
 ! R9    R(3,14)                 1.1122         estimate D2E/DX2                !
 ! R10   R(3,15)                 1.1123         estimate D2E/DX2                !
 ! R11   R(4,5)                  1.5276         estimate D2E/DX2                !
 ! R12   R(4,8)                  1.5292         estimate D2E/DX2                !
 ! R13   R(4,9)                  1.4186         estimate D2E/DX2                !
 ! R14   R(4,11)                 1.1142         estimate D2E/DX2                !
 ! R15   R(5,16)                 1.1113         estimate D2E/DX2                !
 ! R16   R(5,17)                 1.1106         estimate D2E/DX2                !
 ! R17   R(5,18)                 1.1112         estimate D2E/DX2                !
 ! R18   R(6,19)                 1.1099         estimate D2E/DX2                !
 ! R19   R(6,20)                 1.1107         estimate D2E/DX2                !
 ! R20   R(6,21)                 1.1104         estimate D2E/DX2                !
 ! R21   R(7,22)                 1.1104         estimate D2E/DX2                !
 ! R22   R(7,23)                 1.1099         estimate D2E/DX2                !
 ! R23   R(7,24)                 1.1107         estimate D2E/DX2                !
 ! R24   R(8,25)                 1.1107         estimate D2E/DX2                !
 ! R25   R(8,26)                 1.1109         estimate D2E/DX2                !
 ! A1    A(2,1,3)              108.9699         estimate D2E/DX2                !
 ! A2    A(2,1,9)              108.8789         estimate D2E/DX2                !
 ! A3    A(2,1,10)             107.0018         estimate D2E/DX2                !
 ! A4    A(3,1,9)              109.6454         estimate D2E/DX2                !
 ! A5    A(3,1,10)             108.5038         estimate D2E/DX2                !
 ! A6    A(9,1,10)             113.7247         estimate D2E/DX2                !
 ! A7    A(1,2,6)              112.3367         estimate D2E/DX2                !
 ! A8    A(1,2,12)             109.8983         estimate D2E/DX2                !
 ! A9    A(1,2,13)             109.5388         estimate D2E/DX2                !
 ! A10   A(6,2,12)             108.8187         estimate D2E/DX2                !
 ! A11   A(6,2,13)             108.1149         estimate D2E/DX2                !
 ! A12   A(12,2,13)            108.0228         estimate D2E/DX2                !
 ! A13   A(1,3,7)              112.7616         estimate D2E/DX2                !
 ! A14   A(1,3,14)             109.7961         estimate D2E/DX2                !
 ! A15   A(1,3,15)             109.4675         estimate D2E/DX2                !
 ! A16   A(7,3,14)             108.8294         estimate D2E/DX2                !
 ! A17   A(7,3,15)             107.9143         estimate D2E/DX2                !
 ! A18   A(14,3,15)            107.9417         estimate D2E/DX2                !
 ! A19   A(5,4,8)              110.086          estimate D2E/DX2                !
 ! A20   A(5,4,9)              108.5936         estimate D2E/DX2                !
 ! A21   A(5,4,11)             106.9537         estimate D2E/DX2                !
 ! A22   A(8,4,9)              110.2601         estimate D2E/DX2                !
 ! A23   A(8,4,11)             108.6855         estimate D2E/DX2                !
 ! A24   A(9,4,11)             112.2032         estimate D2E/DX2                !
 ! A25   A(4,5,16)             110.5215         estimate D2E/DX2                !
 ! A26   A(4,5,17)             109.7455         estimate D2E/DX2                !
 ! A27   A(4,5,18)             110.3847         estimate D2E/DX2                !
 ! A28   A(16,5,17)            108.6096         estimate D2E/DX2                !
 ! A29   A(16,5,18)            109.1137         estimate D2E/DX2                !
 ! A30   A(17,5,18)            108.4159         estimate D2E/DX2                !
 ! A31   A(2,6,19)             110.4003         estimate D2E/DX2                !
 ! A32   A(2,6,20)             110.4848         estimate D2E/DX2                !
 ! A33   A(2,6,21)             109.4681         estimate D2E/DX2                !
 ! A34   A(19,6,20)            109.6074         estimate D2E/DX2                !
 ! A35   A(19,6,21)            108.2394         estimate D2E/DX2                !
 ! A36   A(20,6,21)            108.5887         estimate D2E/DX2                !
 ! A37   A(3,7,22)             109.4307         estimate D2E/DX2                !
 ! A38   A(3,7,23)             110.531          estimate D2E/DX2                !
 ! A39   A(3,7,24)             110.4531         estimate D2E/DX2                !
 ! A40   A(22,7,23)            108.1522         estimate D2E/DX2                !
 ! A41   A(22,7,24)            108.503          estimate D2E/DX2                !
 ! A42   A(23,7,24)            109.7134         estimate D2E/DX2                !
 ! A43   A(4,8,25)             110.8141         estimate D2E/DX2                !
 ! A44   A(4,8,26)             111.0412         estimate D2E/DX2                !
 ! A45   A(25,8,26)            109.8562         estimate D2E/DX2                !
 ! A46   A(1,9,4)              112.1932         estimate D2E/DX2                !
 ! D1    D(3,1,2,6)           -177.3191         estimate D2E/DX2                !
 ! D2    D(3,1,2,12)            61.375          estimate D2E/DX2                !
 ! D3    D(3,1,2,13)           -57.1537         estimate D2E/DX2                !
 ! D4    D(9,1,2,6)             63.1255         estimate D2E/DX2                !
 ! D5    D(9,1,2,12)           -58.1804         estimate D2E/DX2                !
 ! D6    D(9,1,2,13)          -176.7091         estimate D2E/DX2                !
 ! D7    D(10,1,2,6)           -60.1875         estimate D2E/DX2                !
 ! D8    D(10,1,2,12)          178.5066         estimate D2E/DX2                !
 ! D9    D(10,1,2,13)           59.9779         estimate D2E/DX2                !
 ! D10   D(2,1,3,7)            174.8868         estimate D2E/DX2                !
 ! D11   D(2,1,3,14)           -63.5785         estimate D2E/DX2                !
 ! D12   D(2,1,3,15)            54.7471         estimate D2E/DX2                !
 ! D13   D(9,1,3,7)            -66.0348         estimate D2E/DX2                !
 ! D14   D(9,1,3,14)            55.4999         estimate D2E/DX2                !
 ! D15   D(9,1,3,15)           173.8255         estimate D2E/DX2                !
 ! D16   D(10,1,3,7)            58.7133         estimate D2E/DX2                !
 ! D17   D(10,1,3,14)         -179.752          estimate D2E/DX2                !
 ! D18   D(10,1,3,15)          -61.4263         estimate D2E/DX2                !
 ! D19   D(2,1,9,4)           -133.2377         estimate D2E/DX2                !
 ! D20   D(3,1,9,4)            107.6279         estimate D2E/DX2                !
 ! D21   D(10,1,9,4)           -14.0389         estimate D2E/DX2                !
 ! D22   D(1,2,6,19)           -65.7882         estimate D2E/DX2                !
 ! D23   D(1,2,6,20)            55.6201         estimate D2E/DX2                !
 ! D24   D(1,2,6,21)           175.157          estimate D2E/DX2                !
 ! D25   D(12,2,6,19)           56.1339         estimate D2E/DX2                !
 ! D26   D(12,2,6,20)          177.5422         estimate D2E/DX2                !
 ! D27   D(12,2,6,21)          -62.9209         estimate D2E/DX2                !
 ! D28   D(13,2,6,19)          173.2247         estimate D2E/DX2                !
 ! D29   D(13,2,6,20)          -65.367          estimate D2E/DX2                !
 ! D30   D(13,2,6,21)           54.1699         estimate D2E/DX2                !
 ! D31   D(1,3,7,22)          -175.2979         estimate D2E/DX2                !
 ! D32   D(1,3,7,23)            65.6979         estimate D2E/DX2                !
 ! D33   D(1,3,7,24)           -55.9097         estimate D2E/DX2                !
 ! D34   D(14,3,7,22)           62.6211         estimate D2E/DX2                !
 ! D35   D(14,3,7,23)          -56.3831         estimate D2E/DX2                !
 ! D36   D(14,3,7,24)         -177.9907         estimate D2E/DX2                !
 ! D37   D(15,3,7,22)          -54.2692         estimate D2E/DX2                !
 ! D38   D(15,3,7,23)         -173.2734         estimate D2E/DX2                !
 ! D39   D(15,3,7,24)           65.119          estimate D2E/DX2                !
 ! D40   D(8,4,5,16)            61.1621         estimate D2E/DX2                !
 ! D41   D(8,4,5,17)          -179.0767         estimate D2E/DX2                !
 ! D42   D(8,4,5,18)           -59.6404         estimate D2E/DX2                !
 ! D43   D(9,4,5,16)           -59.637          estimate D2E/DX2                !
 ! D44   D(9,4,5,17)            60.1242         estimate D2E/DX2                !
 ! D45   D(9,4,5,18)           179.5604         estimate D2E/DX2                !
 ! D46   D(11,4,5,16)          179.0727         estimate D2E/DX2                !
 ! D47   D(11,4,5,17)          -61.166          estimate D2E/DX2                !
 ! D48   D(11,4,5,18)           58.2702         estimate D2E/DX2                !
 ! D49   D(5,4,8,25)            62.9969         estimate D2E/DX2                !
 ! D50   D(5,4,8,26)           -59.3859         estimate D2E/DX2                !
 ! D51   D(9,4,8,25)          -177.21           estimate D2E/DX2                !
 ! D52   D(9,4,8,26)            60.4072         estimate D2E/DX2                !
 ! D53   D(11,4,8,25)          -53.8385         estimate D2E/DX2                !
 ! D54   D(11,4,8,26)         -176.2213         estimate D2E/DX2                !
 ! D55   D(5,4,9,1)           -156.2866         estimate D2E/DX2                !
 ! D56   D(8,4,9,1)             83.0218         estimate D2E/DX2                !
 ! D57   D(11,4,9,1)           -38.2778         estimate D2E/DX2                !
 --------------------------------------------------------------------------------
 Trust Radius=3.00D-01 FncErr=1.00D-07 GrdErr=1.00D-06
 Number of steps in this run=    138 maximum allowed number of steps=    156.
 GradGradGradGradGradGradGradGradGradGradGradGradGradGradGradGradGradGrad

                          Input orientation:                          
 ---------------------------------------------------------------------
 Center     Atomic      Atomic             Coordinates (Angstroms)
 Number     Number       Type             X           Y           Z
 ---------------------------------------------------------------------
      1          6           0        0.873900   -0.118500   -0.091600
      2          6           0        1.826500    0.961900   -0.637700
      3          6           0        1.326800   -1.497200   -0.614700
      4          6           0       -1.402600    0.067300    0.493800
      5          6           0       -2.770200   -0.217000   -0.124700
      6          6           0        1.486200    2.354800   -0.112600
      7          6           0        0.515300   -2.648400   -0.025200
      8          6           0       -1.446200    1.374200    1.286600
      9          8           0       -0.444500    0.156800   -0.548600
     10          1           0        0.974800   -0.110800    1.021600
     11          1           0       -1.183500   -0.769300    1.196400
     12          1           0        1.784200    0.977200   -1.749100
     13          1           0        2.870400    0.724200   -0.336300
     14          1           0        1.239200   -1.526900   -1.723000
     15          1           0        2.394800   -1.661200   -0.350900
     16          1           0       -3.056300    0.594900   -0.827500
     17          1           0       -2.736700   -1.175300   -0.685000
     18          1           0       -3.543800   -0.301000    0.668500
     19          1           0        0.496600    2.681200   -0.494700
     20          1           0        1.477100    2.360000    0.998100
     21          1           0        2.250600    3.079600   -0.463700
     22          1           0        0.939900   -3.614500   -0.370600
     23          1           0       -0.540300   -2.593900   -0.363700
     24          1           0        0.554700   -2.622700    1.084500
     25          1           0       -2.157500    1.296900    2.136200
     26          1           0       -1.729300    2.227400    0.633900
 ---------------------------------------------------------------------
                    Distance matrix (angstroms):
                    1          2          3          4          5
     1  C    0.000000
     2  C    1.540434   0.000000
     3  C    1.542584   2.509462   0.000000
     4  C    2.357895   3.536621   3.335574   0.000000
     5  C    3.645581   4.773115   4.320234   1.527645   0.000000
     6  C    2.548051   1.526992   3.887855   3.734373   4.973052
     7  C    2.556051   3.889559   1.526861   3.364926   4.088535
     8  C    3.083902   3.818833   4.421471   1.529189   2.505327
     9  O    1.422258   2.411134   2.424374   1.418649   2.393386
    10  H    1.117790   2.151594   2.173358   2.441787   3.917947
    11  H    2.513042   3.926968   3.179863   1.114249   2.137278
    12  H    2.185523   1.112310   2.760205   4.001776   4.980698
    13  H    2.180833   1.112237   2.719343   4.402171   5.722499
    14  H    2.185978   2.777935   1.112153   3.799314   4.510620
    15  H    2.181810   2.699236   1.112255   4.256933   5.367877
    16  H    4.061645   4.900250   4.861454   2.181495   1.111289
    17  H    3.808593   5.039113   4.076836   2.171047   1.110584
    18  H    4.486327   5.669321   5.176895   2.179656   1.111161
    19  H    2.853623   2.178319   4.261767   3.378841   4.382744
    20  H    2.773853   2.180047   4.183504   3.715301   5.093247
    21  H    3.501657   2.166746   4.671542   4.830800   6.015889
    22  H    3.507736   4.669137   2.166157   4.448612   5.036697
    23  H    2.863844   4.280249   2.179866   2.925894   3.267909
    24  H    2.784981   4.175261   2.179488   3.378765   4.278378
    25  H    4.019432   4.866108   5.245454   2.186154   2.789079
    26  H    3.578582   3.982734   4.977087   2.189153   2.762976
                    6          7          8          9         10
     6  C    0.000000
     7  C    5.097283   0.000000
     8  C    3.393863   4.663648   0.000000
     9  O    2.957854   3.010699   2.419385   0.000000
    10  H    2.761725   2.783226   2.852489   2.133436   0.000000
    11  H    4.312862   2.812338   2.161421   2.109220   2.263280
    12  H    2.159796   4.210334   4.450682   2.661083   3.084745
    13  H    2.150560   4.125253   4.657182   3.369804   2.476775
    14  H    4.209750   2.159703   4.968445   2.654978   3.099690
    15  H    4.124390   2.147828   5.162203   3.377252   2.510756
    16  H    4.923681   4.890706   2.769323   2.662934   4.490763
    17  H    5.533727   3.630546   3.471678   2.654671   4.221478
    18  H    5.741454   4.740021   2.754681   3.361038   4.536364
    19  H    1.109885   5.350273   2.942066   2.694656   3.212959
    20  H    1.110749   5.201564   3.098502   3.307403   2.521450
    21  H    1.110366   6.001128   4.431509   3.976623   3.743319
    22  H    5.999796   1.110376   5.772947   4.021312   3.770325
    23  H    5.353446   1.109885   4.392034   2.758571   3.221858
    24  H    5.203484   1.110697   4.474333   3.375061   2.547564
    25  H    4.410533   5.232676   1.110740   3.382654   3.610437
    26  H    3.303473   5.407963   1.110906   2.708579   3.595782
                   11         12         13         14         15
    11  H    0.000000
    12  H    4.531388   0.000000
    13  H    4.584083   1.799956   0.000000
    14  H    3.868634   2.562854   3.106638   0.000000
    15  H    3.999232   3.047778   2.432394   1.798918   0.000000
    16  H    3.076458   4.942261   5.948426   4.873938   5.918752
    17  H    2.473243   5.118994   5.930368   4.124178   5.165270
    18  H    2.463534   5.988837   6.572870   5.486273   6.177078
    19  H    4.193865   2.476903   3.080563   4.446154   4.741337
    20  H    4.112254   3.090882   2.529377   4.750681   4.339588
    21  H    5.418764   2.507961   2.438912   4.881456   4.744334
    22  H    3.880655   4.867937   4.748929   2.505322   2.435673
    23  H    2.485314   4.480557   4.758510   2.480485   3.079757
    24  H    2.543414   4.743442   4.310786   3.090530   2.524049
    25  H    2.470037   5.543894   5.632142   5.865564   5.971554
    26  H    3.097501   4.425649   4.935396   5.334954   5.753194
                   16         17         18         19         20
    16  H    0.000000
    17  H    1.804455   0.000000
    18  H    1.810610   1.802158   0.000000
    19  H    4.133582   5.036173   5.154744   0.000000
    20  H    5.196163   5.752155   5.692011   1.814663   0.000000
    21  H    5.871054   6.559444   6.803338   1.798944   1.803604
    22  H    5.822149   4.423339   5.671206   6.312508   6.152770
    23  H    4.088253   2.634356   3.917121   5.377639   5.519559
    24  H    5.200771   4.007419   4.728747   5.534311   5.068095
    25  H    3.175557   3.795578   2.574734   3.985244   3.954209
    26  H    2.561577   3.785858   3.112300   2.536593   3.229741
                   21         22         23         24         25
    21  H    0.000000
    22  H    6.821846   0.000000
    23  H    6.323585   1.797961   0.000000
    24  H    6.147294   1.802599   1.815802   0.000000
    25  H    5.419303   6.324538   4.899302   4.881123   0.000000
    26  H    4.215516   6.500880   5.064964   5.379885   1.818266
                   26
    26  H    0.000000
 Stoichiometry    C8H17O(2)
 Framework group  C1[X(C8H17O)]
 Deg. of freedom    72
 Full point group                 C1      NOp   1
 Largest Abelian subgroup         C1      NOp   1
 Largest concise Abelian subgroup C1      NOp   1
                         Standard orientation:                         
 ---------------------------------------------------------------------
 Center     Atomic      Atomic             Coordinates (Angstroms)
 Number     Number       Type             X           Y           Z
 ---------------------------------------------------------------------
      1          6           0       -0.872094    0.172707    0.157600
      2          6           0       -1.962153   -0.822955   -0.282133
      3          6           0       -1.368550    1.609009   -0.107229
      4          6           0        1.467161   -0.117132    0.217178
      5          6           0        2.683356    0.210801   -0.647130
      6          6           0       -1.575807   -2.271627    0.007331
      7          6           0       -0.404187    2.672610    0.412442
      8          6           0        1.623964   -1.505180    0.839396
      9          8           0        0.307304   -0.072588   -0.598489
     10          1           0       -0.735337    0.042106    1.259278
     11          1           0        1.436200    0.639181    1.034848
     12          1           0       -2.156694   -0.714386   -1.371903
     13          1           0       -2.907977   -0.602368    0.259926
     14          1           0       -1.516356    1.761151   -1.198967
     15          1           0       -2.348886    1.761003    0.395712
     16          1           0        2.780712   -0.522115   -1.476779
     17          1           0        2.571336    1.226275   -1.082631
     18          1           0        3.610084    0.191924   -0.034351
     19          1           0       -0.703721   -2.570356   -0.610789
     20          1           0       -1.332063   -2.401381    1.083211
     21          1           0       -2.426247   -2.939106   -0.245924
     22          1           0       -0.852310    3.678572    0.270448
     23          1           0        0.552719    2.637995   -0.148786
     24          1           0       -0.208854    2.523446    1.495605
     25          1           0        2.501518   -1.535947    1.519612
     26          1           0        1.727301   -2.284690    0.054668
 ---------------------------------------------------------------------
 Rotational constants (GHZ):      1.5820122      1.3881112      0.8349389
 Standard basis: 6-311+G(2df,2p) (5D, 7F)
 There are   459 symmetry adapted basis functions of A   symmetry.
 Integral buffers will be    131072 words long.
 Raffenetti 2 integral format.
 Two-electron integral symmetry is turned on.
   459 basis functions,   655 primitive gaussians,   504 cartesian basis functions
    37 alpha electrons       36 beta electrons
       nuclear repulsion energy       495.2894262783 Hartrees.
 NAtoms=   26 NActive=   26 NUniq=   26 SFac= 1.00D+00 NAtFMM=   50 NAOKFM=F Big=F
 One-electron integrals computed using PRISM.
 NBasis=   459 RedAO= T  NBF=   459
 NBsUse=   459 1.00D-06 NBFU=   459
 Harris functional with IExCor= 1009 diagonalized for initial guess.
 ExpMin= 4.38D-02 ExpMax= 8.59D+03 ExpMxC= 1.30D+03 IAcc=2 IRadAn=         0 AccDes= 0.00D+00
 HarFok:  IExCor= 1009 AccDes= 0.00D+00 IRadAn=         0 IDoV= 1
 ScaDFX=  1.000000  1.000000  1.000000  1.000000
 FoFCou: FMM=F IPFlag=           0 FMFlag=      100000 FMFlg1=           0
         NFxFlg=           0 DoJE=T BraDBF=F KetDBF=T FulRan=T
         Omega=  0.000000  0.000000  1.000000  0.000000  0.000000 ICntrl=     500 IOpCl=  0
         NMat0=    1 NMatS0=    1 NMatT0=    0 NMatD0=    1 NMtDS0=    0 NMtDT0=    0
         I1Cent=           4 NGrid=           0.
 Petite list used in FoFCou.
 Initial guess orbital symmetries:
 Alpha Orbitals:
       Occupied  (A) (A) (A) (A) (A) (A) (A) (A) (A) (A) (A) (A)
                 (A) (A) (A) (A) (A) (A) (A) (A) (A) (A) (A) (A)
                 (A) (A) (A) (A) (A) (A) (A) (A) (A) (A) (A) (A)
                 (A)
       Virtual   (A) (A) (A) (A) (A) (A) (A) (A) (A) (A) (A) (A)
                 (A) (A) (A) (A) (A) (A) (A) (A) (A) (A) (A) (A)
                 (A) (A) (A) (A) (A) (A) (A) (A) (A) (A) (A) (A)
                 (A) (A) (A) (A) (A) (A) (A) (A) (A) (A) (A) (A)
                 (A) (A) (A) (A) (A) (A) (A) (A) (A) (A) (A) (A)
                 (A) (A) (A) (A) (A) (A) (A) (A) (A) (A) (A) (A)
                 (A) (A) (A) (A) (A) (A) (A) (A) (A) (A) (A) (A)
                 (A) (A) (A) (A) (A) (A) (A) (A) (A) (A) (A) (A)
                 (A) (A) (A) (A) (A) (A) (A) (A) (A) (A) (A) (A)
                 (A) (A) (A) (A) (A) (A) (A) (A) (A) (A) (A) (A)
                 (A) (A) (A) (A) (A) (A) (A) (A) (A) (A) (A) (A)
                 (A) (A) (A) (A) (A) (A) (A) (A) (A) (A) (A) (A)
                 (A) (A) (A) (A) (A) (A) (A) (A) (A) (A) (A) (A)
                 (A) (A) (A) (A) (A) (A) (A) (A) (A) (A) (A) (A)
                 (A) (A) (A) (A) (A) (A) (A) (A) (A) (A) (A) (A)
                 (A) (A) (A) (A) (A) (A) (A) (A) (A) (A) (A) (A)
                 (A) (A) (A) (A) (A) (A) (A) (A) (A) (A) (A) (A)
                 (A) (A) (A) (A) (A) (A) (A) (A) (A) (A) (A) (A)
                 (A) (A) (A) (A) (A) (A) (A) (A) (A) (A) (A) (A)
                 (A) (A) (A) (A) (A) (A) (A) (A) (A) (A) (A) (A)
                 (A) (A) (A) (A) (A) (A) (A) (A) (A) (A) (A) (A)
                 (A) (A) (A) (A) (A) (A) (A) (A) (A) (A) (A) (A)
                 (A) (A) (A) (A) (A) (A) (A) (A) (A) (A) (A) (A)
                 (A) (A) (A) (A) (A) (A) (A) (A) (A) (A) (A) (A)
                 (A) (A) (A) (A) (A) (A) (A) (A) (A) (A) (A) (A)
                 (A) (A) (A) (A) (A) (A) (A) (A) (A) (A) (A) (A)
                 (A) (A) (A) (A) (A) (A) (A) (A) (A) (A) (A) (A)
                 (A) (A) (A) (A) (A) (A) (A) (A) (A) (A) (A) (A)
                 (A) (A) (A) (A) (A) (A) (A) (A) (A) (A) (A) (A)
                 (A) (A) (A) (A) (A) (A) (A) (A) (A) (A) (A) (A)
                 (A) (A) (A) (A) (A) (A) (A) (A) (A) (A) (A) (A)
                 (A) (A) (A) (A) (A) (A) (A) (A) (A) (A) (A) (A)
                 (A) (A) (A) (A) (A) (A) (A) (A) (A) (A) (A) (A)
                 (A) (A) (A) (A) (A) (A) (A) (A) (A) (A) (A) (A)
                 (A) (A) (A) (A) (A) (A) (A) (A) (A) (A) (A) (A)
                 (A) (A)
 Beta  Orbitals:
       Occupied  (A) (A) (A) (A) (A) (A) (A) (A) (A) (A) (A) (A)
                 (A) (A) (A) (A) (A) (A) (A) (A) (A) (A) (A) (A)
                 (A) (A) (A) (A) (A) (A) (A) (A) (A) (A) (A) (A)
       Virtual   (A) (A) (A) (A) (A) (A) (A) (A) (A) (A) (A) (A)
                 (A) (A) (A) (A) (A) (A) (A) (A) (A) (A) (A) (A)
                 (A) (A) (A) (A) (A) (A) (A) (A) (A) (A) (A) (A)
                 (A) (A) (A) (A) (A) (A) (A) (A) (A) (A) (A) (A)
                 (A) (A) (A) (A) (A) (A) (A) (A) (A) (A) (A) (A)
                 (A) (A) (A) (A) (A) (A) (A) (A) (A) (A) (A) (A)
                 (A) (A) (A) (A) (A) (A) (A) (A) (A) (A) (A) (A)
                 (A) (A) (A) (A) (A) (A) (A) (A) (A) (A) (A) (A)
                 (A) (A) (A) (A) (A) (A) (A) (A) (A) (A) (A) (A)
                 (A) (A) (A) (A) (A) (A) (A) (A) (A) (A) (A) (A)
                 (A) (A) (A) (A) (A) (A) (A) (A) (A) (A) (A) (A)
                 (A) (A) (A) (A) (A) (A) (A) (A) (A) (A) (A) (A)
                 (A) (A) (A) (A) (A) (A) (A) (A) (A) (A) (A) (A)
                 (A) (A) (A) (A) (A) (A) (A) (A) (A) (A) (A) (A)
                 (A) (A) (A) (A) (A) (A) (A) (A) (A) (A) (A) (A)
                 (A) (A) (A) (A) (A) (A) (A) (A) (A) (A) (A) (A)
                 (A) (A) (A) (A) (A) (A) (A) (A) (A) (A) (A) (A)
                 (A) (A) (A) (A) (A) (A) (A) (A) (A) (A) (A) (A)
                 (A) (A) (A) (A) (A) (A) (A) (A) (A) (A) (A) (A)
                 (A) (A) (A) (A) (A) (A) (A) (A) (A) (A) (A) (A)
                 (A) (A) (A) (A) (A) (A) (A) (A) (A) (A) (A) (A)
                 (A) (A) (A) (A) (A) (A) (A) (A) (A) (A) (A) (A)
                 (A) (A) (A) (A) (A) (A) (A) (A) (A) (A) (A) (A)
                 (A) (A) (A) (A) (A) (A) (A) (A) (A) (A) (A) (A)
                 (A) (A) (A) (A) (A) (A) (A) (A) (A) (A) (A) (A)
                 (A) (A) (A) (A) (A) (A) (A) (A) (A) (A) (A) (A)
                 (A) (A) (A) (A) (A) (A) (A) (A) (A) (A) (A) (A)
                 (A) (A) (A) (A) (A) (A) (A) (A) (A) (A) (A) (A)
                 (A) (A) (A) (A) (A) (A) (A) (A) (A) (A) (A) (A)
                 (A) (A) (A) (A) (A) (A) (A) (A) (A) (A) (A) (A)
                 (A) (A) (A) (A) (A) (A) (A) (A) (A) (A) (A) (A)
                 (A) (A) (A) (A) (A) (A) (A) (A) (A) (A) (A) (A)
                 (A) (A) (A) (A) (A) (A) (A) (A) (A) (A) (A) (A)
                 (A) (A) (A) (A) (A) (A) (A) (A) (A) (A) (A) (A)
                 (A) (A) (A) (A) (A) (A) (A) (A) (A) (A) (A) (A)
                 (A) (A) (A)
 The electronic state of the initial guess is 2-A.
 Initial guess <Sx>= 0.0000 <Sy>= 0.0000 <Sz>= 0.5000 <S**2>= 0.7500 S= 0.5000
 Requested convergence on RMS density matrix=1.00D-08 within 128 cycles.
 Requested convergence on MAX density matrix=1.00D-06.
 Requested convergence on             energy=1.00D-06.
 No special actions if energy rises.
 SCF Done:  E(UM062X) =  -390.170024011     A.U. after   14 cycles
             Convg  =    0.5973D-08             -V/T =  2.0056
 <Sx>= 0.0000 <Sy>= 0.0000 <Sz>= 0.5000 <S**2>= 0.7545 S= 0.5022
 <L.S>= 0.000000000000E+00
 Annihilation of the first spin contaminant:
 S**2 before annihilation     0.7545,   after     0.7500

 **********************************************************************

            Population analysis using the SCF density.

 **********************************************************************

 Orbital symmetries:
 Alpha Orbitals:
       Occupied  (A) (A) (A) (A) (A) (A) (A) (A) (A) (A) (A) (A)
                 (A) (A) (A) (A) (A) (A) (A) (A) (A) (A) (A) (A)
                 (A) (A) (A) (A) (A) (A) (A) (A) (A) (A) (A) (A)
                 (A)
       Virtual   (A) (A) (A) (A) (A) (A) (A) (A) (A) (A) (A) (A)
                 (A) (A) (A) (A) (A) (A) (A) (A) (A) (A) (A) (A)
                 (A) (A) (A) (A) (A) (A) (A) (A) (A) (A) (A) (A)
                 (A) (A) (A) (A) (A) (A) (A) (A) (A) (A) (A) (A)
                 (A) (A) (A) (A) (A) (A) (A) (A) (A) (A) (A) (A)
                 (A) (A) (A) (A) (A) (A) (A) (A) (A) (A) (A) (A)
                 (A) (A) (A) (A) (A) (A) (A) (A) (A) (A) (A) (A)
                 (A) (A) (A) (A) (A) (A) (A) (A) (A) (A) (A) (A)
                 (A) (A) (A) (A) (A) (A) (A) (A) (A) (A) (A) (A)
                 (A) (A) (A) (A) (A) (A) (A) (A) (A) (A) (A) (A)
                 (A) (A) (A) (A) (A) (A) (A) (A) (A) (A) (A) (A)
                 (A) (A) (A) (A) (A) (A) (A) (A) (A) (A) (A) (A)
                 (A) (A) (A) (A) (A) (A) (A) (A) (A) (A) (A) (A)
                 (A) (A) (A) (A) (A) (A) (A) (A) (A) (A) (A) (A)
                 (A) (A) (A) (A) (A) (A) (A) (A) (A) (A) (A) (A)
                 (A) (A) (A) (A) (A) (A) (A) (A) (A) (A) (A) (A)
                 (A) (A) (A) (A) (A) (A) (A) (A) (A) (A) (A) (A)
                 (A) (A) (A) (A) (A) (A) (A) (A) (A) (A) (A) (A)
                 (A) (A) (A) (A) (A) (A) (A) (A) (A) (A) (A) (A)
                 (A) (A) (A) (A) (A) (A) (A) (A) (A) (A) (A) (A)
                 (A) (A) (A) (A) (A) (A) (A) (A) (A) (A) (A) (A)
                 (A) (A) (A) (A) (A) (A) (A) (A) (A) (A) (A) (A)
                 (A) (A) (A) (A) (A) (A) (A) (A) (A) (A) (A) (A)
                 (A) (A) (A) (A) (A) (A) (A) (A) (A) (A) (A) (A)
                 (A) (A) (A) (A) (A) (A) (A) (A) (A) (A) (A) (A)
                 (A) (A) (A) (A) (A) (A) (A) (A) (A) (A) (A) (A)
                 (A) (A) (A) (A) (A) (A) (A) (A) (A) (A) (A) (A)
                 (A) (A) (A) (A) (A) (A) (A) (A) (A) (A) (A) (A)
                 (A) (A) (A) (A) (A) (A) (A) (A) (A) (A) (A) (A)
                 (A) (A) (A) (A) (A) (A) (A) (A) (A) (A) (A) (A)
                 (A) (A) (A) (A) (A) (A) (A) (A) (A) (A) (A) (A)
                 (A) (A) (A) (A) (A) (A) (A) (A) (A) (A) (A) (A)
                 (A) (A) (A) (A) (A) (A) (A) (A) (A) (A) (A) (A)
                 (A) (A) (A) (A) (A) (A) (A) (A) (A) (A) (A) (A)
                 (A) (A) (A) (A) (A) (A) (A) (A) (A) (A) (A) (A)
                 (A) (A)
 Beta  Orbitals:
       Occupied  (A) (A) (A) (A) (A) (A) (A) (A) (A) (A) (A) (A)
                 (A) (A) (A) (A) (A) (A) (A) (A) (A) (A) (A) (A)
                 (A) (A) (A) (A) (A) (A) (A) (A) (A) (A) (A) (A)
       Virtual   (A) (A) (A) (A) (A) (A) (A) (A) (A) (A) (A) (A)
                 (A) (A) (A) (A) (A) (A) (A) (A) (A) (A) (A) (A)
                 (A) (A) (A) (A) (A) (A) (A) (A) (A) (A) (A) (A)
                 (A) (A) (A) (A) (A) (A) (A) (A) (A) (A) (A) (A)
                 (A) (A) (A) (A) (A) (A) (A) (A) (A) (A) (A) (A)
                 (A) (A) (A) (A) (A) (A) (A) (A) (A) (A) (A) (A)
                 (A) (A) (A) (A) (A) (A) (A) (A) (A) (A) (A) (A)
                 (A) (A) (A) (A) (A) (A) (A) (A) (A) (A) (A) (A)
                 (A) (A) (A) (A) (A) (A) (A) (A) (A) (A) (A) (A)
                 (A) (A) (A) (A) (A) (A) (A) (A) (A) (A) (A) (A)
                 (A) (A) (A) (A) (A) (A) (A) (A) (A) (A) (A) (A)
                 (A) (A) (A) (A) (A) (A) (A) (A) (A) (A) (A) (A)
                 (A) (A) (A) (A) (A) (A) (A) (A) (A) (A) (A) (A)
                 (A) (A) (A) (A) (A) (A) (A) (A) (A) (A) (A) (A)
                 (A) (A) (A) (A) (A) (A) (A) (A) (A) (A) (A) (A)
                 (A) (A) (A) (A) (A) (A) (A) (A) (A) (A) (A) (A)
                 (A) (A) (A) (A) (A) (A) (A) (A) (A) (A) (A) (A)
                 (A) (A) (A) (A) (A) (A) (A) (A) (A) (A) (A) (A)
                 (A) (A) (A) (A) (A) (A) (A) (A) (A) (A) (A) (A)
                 (A) (A) (A) (A) (A) (A) (A) (A) (A) (A) (A) (A)
                 (A) (A) (A) (A) (A) (A) (A) (A) (A) (A) (A) (A)
                 (A) (A) (A) (A) (A) (A) (A) (A) (A) (A) (A) (A)
                 (A) (A) (A) (A) (A) (A) (A) (A) (A) (A) (A) (A)
                 (A) (A) (A) (A) (A) (A) (A) (A) (A) (A) (A) (A)
                 (A) (A) (A) (A) (A) (A) (A) (A) (A) (A) (A) (A)
                 (A) (A) (A) (A) (A) (A) (A) (A) (A) (A) (A) (A)
                 (A) (A) (A) (A) (A) (A) (A) (A) (A) (A) (A) (A)
                 (A) (A) (A) (A) (A) (A) (A) (A) (A) (A) (A) (A)
                 (A) (A) (A) (A) (A) (A) (A) (A) (A) (A) (A) (A)
                 (A) (A) (A) (A) (A) (A) (A) (A) (A) (A) (A) (A)
                 (A) (A) (A) (A) (A) (A) (A) (A) (A) (A) (A) (A)
                 (A) (A) (A) (A) (A) (A) (A) (A) (A) (A) (A) (A)
                 (A) (A) (A) (A) (A) (A) (A) (A) (A) (A) (A) (A)
                 (A) (A) (A) (A) (A) (A) (A) (A) (A) (A) (A) (A)
                 (A) (A) (A) (A) (A) (A) (A) (A) (A) (A) (A) (A)
                 (A) (A) (A)
 The electronic state is 2-A.
 Alpha  occ. eigenvalues --  -19.62303 -10.59536 -10.58450 -10.55518 -10.53542
 Alpha  occ. eigenvalues --  -10.52997 -10.52787 -10.52654 -10.51917  -1.15840
 Alpha  occ. eigenvalues --   -0.90555  -0.86179  -0.84491  -0.77025  -0.75771
 Alpha  occ. eigenvalues --   -0.67363  -0.66934  -0.65343  -0.58419  -0.53841
 Alpha  occ. eigenvalues --   -0.51445  -0.50210  -0.50043  -0.49205  -0.45926
 Alpha  occ. eigenvalues --   -0.45570  -0.45426  -0.44917  -0.43366  -0.41040
 Alpha  occ. eigenvalues --   -0.40722  -0.39350  -0.38727  -0.38626  -0.37318
 Alpha  occ. eigenvalues --   -0.32019  -0.29650
 Alpha virt. eigenvalues --    0.01515   0.02510   0.02660   0.03013   0.04283
 Alpha virt. eigenvalues --    0.04444   0.04987   0.05599   0.05870   0.07089
 Alpha virt. eigenvalues --    0.07533   0.08099   0.08599   0.08786   0.09051
 Alpha virt. eigenvalues --    0.09446   0.10775   0.11735   0.11914   0.12379
 Alpha virt. eigenvalues --    0.13182   0.13241   0.13981   0.15459   0.15680
 Alpha virt. eigenvalues --    0.16126   0.17143   0.17445   0.18699   0.18983
 Alpha virt. eigenvalues --    0.20072   0.20804   0.21245   0.21740   0.22182
 Alpha virt. eigenvalues --    0.22721   0.22848   0.22947   0.23748   0.24417
 Alpha virt. eigenvalues --    0.24823   0.25298   0.25598   0.26431   0.26980
 Alpha virt. eigenvalues --    0.27919   0.28282   0.28872   0.29179   0.29827
 Alpha virt. eigenvalues --    0.30200   0.30617   0.31238   0.32335   0.34032
 Alpha virt. eigenvalues --    0.34442   0.34926   0.37058   0.37970   0.39580
 Alpha virt. eigenvalues --    0.40104   0.42358   0.42973   0.44158   0.44869
 Alpha virt. eigenvalues --    0.46370   0.47986   0.49518   0.50469   0.50870
 Alpha virt. eigenvalues --    0.51430   0.52114   0.53668   0.53882   0.55421
 Alpha virt. eigenvalues --    0.55527   0.57048   0.57387   0.57598   0.58282
 Alpha virt. eigenvalues --    0.58595   0.59687   0.59791   0.61234   0.61513
 Alpha virt. eigenvalues --    0.61868   0.62868   0.63403   0.63632   0.64483
 Alpha virt. eigenvalues --    0.65353   0.65497   0.66469   0.66774   0.67404
 Alpha virt. eigenvalues --    0.68124   0.69017   0.69720   0.70167   0.70684
 Alpha virt. eigenvalues --    0.70988   0.72223   0.72728   0.73652   0.75377
 Alpha virt. eigenvalues --    0.77945   0.79834   0.80459   0.81297   0.84428
 Alpha virt. eigenvalues --    0.84997   0.86891   0.88126   0.89051   0.89377
 Alpha virt. eigenvalues --    0.90618   0.92230   0.92830   0.94108   0.95739
 Alpha virt. eigenvalues --    0.97766   0.98038   0.99383   1.01115   1.02362
 Alpha virt. eigenvalues --    1.02750   1.03385   1.06163   1.07018   1.08478
 Alpha virt. eigenvalues --    1.09052   1.10610   1.13070   1.13416   1.14027
 Alpha virt. eigenvalues --    1.14747   1.15485   1.16330   1.17552   1.17768
 Alpha virt. eigenvalues --    1.18427   1.18717   1.20086   1.20293   1.22645
 Alpha virt. eigenvalues --    1.23609   1.23892   1.24984   1.25429   1.27046
 Alpha virt. eigenvalues --    1.27313   1.28383   1.29655   1.30638   1.31210
 Alpha virt. eigenvalues --    1.31382   1.32782   1.32833   1.34308   1.34464
 Alpha virt. eigenvalues --    1.36013   1.37091   1.39066   1.39420   1.40084
 Alpha virt. eigenvalues --    1.41771   1.42550   1.42798   1.44239   1.45387
 Alpha virt. eigenvalues --    1.45935   1.47286   1.48133   1.48448   1.49388
 Alpha virt. eigenvalues --    1.49889   1.50717   1.51631   1.52548   1.52939
 Alpha virt. eigenvalues --    1.54383   1.55356   1.56020   1.56639   1.57559
 Alpha virt. eigenvalues --    1.58400   1.59012   1.59405   1.60858   1.61739
 Alpha virt. eigenvalues --    1.63575   1.64179   1.64925   1.65877   1.67497
 Alpha virt. eigenvalues --    1.68576   1.70012   1.71013   1.75220   1.76890
 Alpha virt. eigenvalues --    1.78943   1.81111   1.86724   1.89542   1.96821
 Alpha virt. eigenvalues --    2.10519   2.18818   2.22311   2.31504   2.40908
 Alpha virt. eigenvalues --    2.43342   2.44970   2.49081   2.52904   2.53479
 Alpha virt. eigenvalues --    2.54839   2.57157   2.60440   2.61575   2.63143
 Alpha virt. eigenvalues --    2.64506   2.66061   2.68420   2.69681   2.72550
 Alpha virt. eigenvalues --    2.73933   2.75205   2.78484   2.80887   2.82365
 Alpha virt. eigenvalues --    2.83070   2.83997   2.85752   2.86810   2.87612
 Alpha virt. eigenvalues --    2.89800   2.90276   2.92148   2.93454   2.94640
 Alpha virt. eigenvalues --    2.96072   2.96827   2.97981   3.00443   3.00974
 Alpha virt. eigenvalues --    3.01656   3.02213   3.04185   3.05843   3.05962
 Alpha virt. eigenvalues --    3.09282   3.09420   3.12303   3.13307   3.13581
 Alpha virt. eigenvalues --    3.15723   3.16257   3.16842   3.17806   3.19238
 Alpha virt. eigenvalues --    3.20572   3.22009   3.23488   3.25127   3.25996
 Alpha virt. eigenvalues --    3.27961   3.29710   3.31186   3.32192   3.32661
 Alpha virt. eigenvalues --    3.33662   3.34541   3.37270   3.38509   3.39121
 Alpha virt. eigenvalues --    3.39246   3.40934   3.42036   3.42732   3.43488
 Alpha virt. eigenvalues --    3.46773   3.47124   3.49877   3.51726   3.55025
 Alpha virt. eigenvalues --    3.56657   3.57086   3.57733   3.59396   3.61565
 Alpha virt. eigenvalues --    3.62115   3.63368   3.63961   3.65366   3.66408
 Alpha virt. eigenvalues --    3.67159   3.68487   3.69183   3.70519   3.72068
 Alpha virt. eigenvalues --    3.73069   3.74909   3.75263   3.76508   3.78446
 Alpha virt. eigenvalues --    3.80454   3.82751   3.84236   3.85195   3.87332
 Alpha virt. eigenvalues --    3.87695   3.88739   3.89364   3.90679   3.92729
 Alpha virt. eigenvalues --    3.93618   3.94924   3.96314   3.97227   3.98343
 Alpha virt. eigenvalues --    3.98900   4.00075   4.01078   4.01813   4.02609
 Alpha virt. eigenvalues --    4.04347   4.04715   4.06044   4.07226   4.09349
 Alpha virt. eigenvalues --    4.11592   4.14611   4.15624   4.15978   4.18362
 Alpha virt. eigenvalues --    4.19287   4.19550   4.19969   4.20306   4.21008
 Alpha virt. eigenvalues --    4.21617   4.23118   4.25200   4.26901   4.27166
 Alpha virt. eigenvalues --    4.29387   4.30469   4.31357   4.34137   4.35483
 Alpha virt. eigenvalues --    4.36652   4.38065   4.39338   4.40207   4.41136
 Alpha virt. eigenvalues --    4.42301   4.44164   4.45746   4.47463   4.47899
 Alpha virt. eigenvalues --    4.50614   4.51326   4.52715   4.53554   4.54757
 Alpha virt. eigenvalues --    4.55197   4.56255   4.57130   4.59008   4.61210
 Alpha virt. eigenvalues --    4.63304   4.66491   4.67024   4.69472   4.69741
 Alpha virt. eigenvalues --    4.72455   4.77970   4.81652   4.90159   4.97192
 Alpha virt. eigenvalues --    5.11907   5.22574   5.23984   5.32353   5.33453
 Alpha virt. eigenvalues --    5.39410   5.40508   5.42250   5.42589   5.45385
 Alpha virt. eigenvalues --    5.45888   5.49916   5.50787   5.51882   5.53213
 Alpha virt. eigenvalues --    5.55112   5.57629   5.59229   5.60818   5.62639
 Alpha virt. eigenvalues --    5.63836   5.66926   5.72491   5.88824   5.93929
 Alpha virt. eigenvalues --    6.16217   6.54245   6.78236   7.21926   7.32175
 Alpha virt. eigenvalues --    7.47712   7.73705   7.88937  24.16001  24.24235
 Alpha virt. eigenvalues --   24.30238  24.30777  24.36328  24.40399  24.46202
 Alpha virt. eigenvalues --   24.47424  50.27117
  Beta  occ. eigenvalues --  -19.62299 -10.59570 -10.58449 -10.54668 -10.53471
  Beta  occ. eigenvalues --  -10.52997 -10.52787 -10.52654 -10.51910  -1.15796
  Beta  occ. eigenvalues --   -0.90282  -0.85526  -0.84440  -0.75746  -0.74600
  Beta  occ. eigenvalues --   -0.67347  -0.66236  -0.65094  -0.58191  -0.53455
  Beta  occ. eigenvalues --   -0.51077  -0.50059  -0.49800  -0.48653  -0.45546
  Beta  occ. eigenvalues --   -0.45195  -0.44764  -0.44490  -0.43170  -0.40855
  Beta  occ. eigenvalues --   -0.40635  -0.39219  -0.38507  -0.38371  -0.37209
  Beta  occ. eigenvalues --   -0.31758
  Beta virt. eigenvalues --   -0.04186   0.01279   0.02478   0.02548   0.03305
  Beta virt. eigenvalues --    0.04259   0.04435   0.05066   0.05487   0.05904
  Beta virt. eigenvalues --    0.07079   0.07509   0.08105   0.08597   0.08756
  Beta virt. eigenvalues --    0.09055   0.09292   0.10667   0.11288   0.11905
  Beta virt. eigenvalues --    0.12328   0.13067   0.13376   0.13883   0.14980
  Beta virt. eigenvalues --    0.15611   0.16206   0.17023   0.17627   0.18703
  Beta virt. eigenvalues --    0.19305   0.20115   0.20551   0.21205   0.21616
  Beta virt. eigenvalues --    0.22226   0.22707   0.22878   0.23249   0.23648
  Beta virt. eigenvalues --    0.24374   0.25014   0.25536   0.25956   0.26561
  Beta virt. eigenvalues --    0.27089   0.27908   0.28425   0.28912   0.29194
  Beta virt. eigenvalues --    0.30192   0.30472   0.30736   0.31374   0.32220
  Beta virt. eigenvalues --    0.34107   0.34529   0.35066   0.37302   0.38161
  Beta virt. eigenvalues --    0.40100   0.40318   0.42448   0.43039   0.44711
  Beta virt. eigenvalues --    0.45033   0.46490   0.48194   0.49536   0.50746
  Beta virt. eigenvalues --    0.51054   0.51500   0.52649   0.53809   0.54030
  Beta virt. eigenvalues --    0.55300   0.55629   0.57155   0.57646   0.57809
  Beta virt. eigenvalues --    0.58383   0.58749   0.59743   0.60507   0.61107
  Beta virt. eigenvalues --    0.61514   0.62398   0.62828   0.63367   0.63684
  Beta virt. eigenvalues --    0.64853   0.65236   0.65516   0.66534   0.66995
  Beta virt. eigenvalues --    0.67287   0.68352   0.69333   0.69829   0.70167
  Beta virt. eigenvalues --    0.70702   0.71117   0.72314   0.72869   0.73637
  Beta virt. eigenvalues --    0.75650   0.78144   0.79160   0.80555   0.81303
  Beta virt. eigenvalues --    0.84800   0.85014   0.86989   0.88239   0.89200
  Beta virt. eigenvalues --    0.89363   0.90552   0.92095   0.92844   0.94222
  Beta virt. eigenvalues --    0.95829   0.97862   0.98252   0.99512   1.01261
  Beta virt. eigenvalues --    1.02678   1.03005   1.03406   1.06118   1.06879
  Beta virt. eigenvalues --    1.08442   1.09144   1.10644   1.13097   1.13292
  Beta virt. eigenvalues --    1.14131   1.14738   1.15519   1.16363   1.17566
  Beta virt. eigenvalues --    1.17857   1.18430   1.18754   1.20355   1.20497
  Beta virt. eigenvalues --    1.22825   1.23845   1.24074   1.25076   1.25666
  Beta virt. eigenvalues --    1.27126   1.27404   1.28498   1.29823   1.30746
  Beta virt. eigenvalues --    1.31456   1.31583   1.32936   1.33235   1.34511
  Beta virt. eigenvalues --    1.34841   1.36192   1.37228   1.39234   1.39550
  Beta virt. eigenvalues --    1.40276   1.42017   1.42663   1.42925   1.44287
  Beta virt. eigenvalues --    1.45440   1.46396   1.47300   1.48176   1.48510
  Beta virt. eigenvalues --    1.49548   1.49941   1.50883   1.51945   1.52764
  Beta virt. eigenvalues --    1.53251   1.54439   1.55484   1.56252   1.56810
  Beta virt. eigenvalues --    1.57953   1.58402   1.59126   1.59653   1.61105
  Beta virt. eigenvalues --    1.61847   1.63628   1.64209   1.64985   1.65939
  Beta virt. eigenvalues --    1.67574   1.68676   1.70091   1.71139   1.75479
  Beta virt. eigenvalues --    1.77569   1.79091   1.81448   1.86919   1.90244
  Beta virt. eigenvalues --    1.97079   2.11028   2.18974   2.22427   2.31622
  Beta virt. eigenvalues --    2.41048   2.43576   2.45222   2.49673   2.53290
  Beta virt. eigenvalues --    2.53804   2.55085   2.57542   2.60753   2.61667
  Beta virt. eigenvalues --    2.63580   2.64711   2.66471   2.69006   2.70277
  Beta virt. eigenvalues --    2.73371   2.74654   2.75863   2.79540   2.81723
  Beta virt. eigenvalues --    2.82952   2.83911   2.85150   2.86220   2.86931
  Beta virt. eigenvalues --    2.88292   2.90107   2.90959   2.92624   2.94189
  Beta virt. eigenvalues --    2.94976   2.96825   2.98238   2.99465   3.00999
  Beta virt. eigenvalues --    3.01805   3.02127   3.02923   3.04710   3.06576
  Beta virt. eigenvalues --    3.07271   3.09785   3.10326   3.12575   3.13829
  Beta virt. eigenvalues --    3.14704   3.16096   3.16984   3.17676   3.18267
  Beta virt. eigenvalues --    3.19923   3.21063   3.23355   3.24086   3.26560
  Beta virt. eigenvalues --    3.28321   3.28866   3.30395   3.31540   3.32694
  Beta virt. eigenvalues --    3.33587   3.34517   3.34767   3.37741   3.39007
  Beta virt. eigenvalues --    3.39613   3.40005   3.41465   3.42976   3.43272
  Beta virt. eigenvalues --    3.44516   3.47099   3.47447   3.50907   3.52924
  Beta virt. eigenvalues --    3.55785   3.56977   3.57429   3.58048   3.59699
  Beta virt. eigenvalues --    3.62418   3.63670   3.64034   3.65445   3.66631
  Beta virt. eigenvalues --    3.67230   3.68228   3.69325   3.69677   3.71507
  Beta virt. eigenvalues --    3.72515   3.73733   3.75093   3.75913   3.77139
  Beta virt. eigenvalues --    3.78567   3.81586   3.82854   3.84535   3.86044
  Beta virt. eigenvalues --    3.87434   3.88174   3.89265   3.89698   3.91494
  Beta virt. eigenvalues --    3.93024   3.94495   3.95307   3.97111   3.97764
  Beta virt. eigenvalues --    3.98566   3.99294   4.00226   4.01346   4.02314
  Beta virt. eigenvalues --    4.02981   4.04442   4.05257   4.07300   4.07606
  Beta virt. eigenvalues --    4.10007   4.12718   4.15207   4.16174   4.17375
  Beta virt. eigenvalues --    4.18782   4.19580   4.19800   4.20469   4.20777
  Beta virt. eigenvalues --    4.21278   4.21935   4.23318   4.25612   4.27244
  Beta virt. eigenvalues --    4.27959   4.30028   4.30708   4.31588   4.34531
  Beta virt. eigenvalues --    4.35852   4.36892   4.39016   4.39936   4.40394
  Beta virt. eigenvalues --    4.41793   4.42956   4.44690   4.45792   4.47863
  Beta virt. eigenvalues --    4.48186   4.50708   4.51895   4.53065   4.54103
  Beta virt. eigenvalues --    4.55447   4.55590   4.56622   4.57379   4.59060
  Beta virt. eigenvalues --    4.61680   4.63547   4.66574   4.67443   4.69727
  Beta virt. eigenvalues --    4.70044   4.72664   4.78165   4.81748   4.92663
  Beta virt. eigenvalues --    4.97505   5.11987   5.23702   5.24161   5.32379
  Beta virt. eigenvalues --    5.35321   5.40262   5.40883   5.42498   5.43315
  Beta virt. eigenvalues --    5.45962   5.48541   5.50216   5.51692   5.51948
  Beta virt. eigenvalues --    5.53522   5.55530   5.57651   5.59276   5.60845
  Beta virt. eigenvalues --    5.62673   5.64216   5.66984   5.72581   5.89020
  Beta virt. eigenvalues --    5.94140   6.16247   6.54286   6.78288   7.21990
  Beta virt. eigenvalues --    7.32224   7.47770   7.73746   7.88991  24.17310
  Beta virt. eigenvalues --   24.24331  24.30300  24.30887  24.36336  24.40409
  Beta virt. eigenvalues --   24.46292  24.47435  50.27117
          Condensed to atoms (all electrons):
              1          2          3          4          5          6
     1  C    7.049557  -0.675622  -0.916055  -0.404420  -0.064251   0.238022
     2  C   -0.675622   6.348268   0.424447  -0.076055  -0.050649  -0.271957
     3  C   -0.916055   0.424447   6.518958   0.084368   0.070060  -0.132532
     4  C   -0.404420  -0.076055   0.084368   5.871324   0.183947   0.032905
     5  C   -0.064251  -0.050649   0.070060   0.183947   5.569540   0.007332
     6  C    0.238022  -0.271957  -0.132532   0.032905   0.007332   5.631696
     7  C    0.270682  -0.135792  -0.272200  -0.004869  -0.012123  -0.023751
     8  C   -0.028732   0.120537   0.028588   0.060457  -0.278547  -0.060654
     9  O    0.273016  -0.179560  -0.137765   0.176798  -0.159225   0.012196
    10  H    0.468390  -0.067402  -0.038056   0.006164   0.003978  -0.006222
    11  H    0.045835   0.002064  -0.043619   0.423350  -0.058853   0.002173
    12  H    0.027212   0.393530  -0.022493  -0.003655   0.001429  -0.046315
    13  H   -0.056898   0.457139  -0.011697   0.000065   0.000601  -0.037162
    14  H    0.032486  -0.025030   0.387720  -0.008354   0.002473   0.005734
    15  H   -0.068027  -0.004737   0.471834  -0.001260  -0.001406   0.003917
    16  H   -0.005401   0.003151   0.001743   0.008555   0.384566  -0.000556
    17  H    0.007034   0.003903  -0.005673  -0.019049   0.367047  -0.000651
    18  H    0.002414  -0.001543  -0.001481  -0.060397   0.450707   0.000192
    19  H   -0.032196  -0.005130  -0.004895  -0.005973   0.001359   0.410044
    20  H   -0.017924   0.003562   0.016319  -0.009251  -0.002522   0.365264
    21  H    0.034640  -0.063275   0.003046   0.000925   0.000118   0.413183
    22  H    0.036595   0.003876  -0.074411   0.005995  -0.003255   0.000280
    23  H   -0.039031   0.000632   0.007580   0.009127  -0.006797   0.000373
    24  H   -0.018516   0.011208  -0.004931  -0.013045   0.005203   0.000391
    25  H    0.011249  -0.006027  -0.002407  -0.016858  -0.022313   0.005321
    26  H   -0.019021   0.002528  -0.002133  -0.028533   0.011377  -0.003022
              7          8          9         10         11         12
     1  C    0.270682  -0.028732   0.273016   0.468390   0.045835   0.027212
     2  C   -0.135792   0.120537  -0.179560  -0.067402   0.002064   0.393530
     3  C   -0.272200   0.028588  -0.137765  -0.038056  -0.043619  -0.022493
     4  C   -0.004869   0.060457   0.176798   0.006164   0.423350  -0.003655
     5  C   -0.012123  -0.278547  -0.159225   0.003978  -0.058853   0.001429
     6  C   -0.023751  -0.060654   0.012196  -0.006222   0.002173  -0.046315
     7  C    5.620152  -0.016247  -0.013588  -0.005105   0.002870   0.005132
     8  C   -0.016247   5.886460  -0.137213  -0.010717  -0.033055   0.000974
     9  O   -0.013588  -0.137213   8.229892  -0.012061  -0.027641  -0.008198
    10  H   -0.005105  -0.010717  -0.012061   0.460970  -0.003466   0.005134
    11  H    0.002870  -0.033055  -0.027641  -0.003466   0.524697   0.000009
    12  H    0.005132   0.000974  -0.008198   0.005134   0.000009   0.501630
    13  H    0.003047   0.000089   0.011853  -0.006114  -0.000039  -0.028851
    14  H   -0.037391  -0.001630  -0.009764   0.004462   0.000381   0.000853
    15  H   -0.051033   0.001577   0.009276  -0.004733  -0.000258  -0.000121
    16  H   -0.001629  -0.012725  -0.009392  -0.000075   0.006352  -0.000010
    17  H    0.001915   0.023987  -0.003194   0.000006  -0.006571  -0.000002
    18  H    0.001801  -0.019854   0.014404   0.000026  -0.007755   0.000001
    19  H    0.000681  -0.001627   0.007065  -0.000452  -0.000114  -0.007271
    20  H    0.000389   0.002963  -0.002494   0.001381   0.000155   0.006203
    21  H    0.000311   0.001099  -0.000808  -0.000082  -0.000007  -0.004146
    22  H    0.419086   0.001573  -0.001510  -0.000062   0.000352  -0.000015
    23  H    0.385268   0.004293   0.008377  -0.000040  -0.006600  -0.000003
    24  H    0.389931  -0.006538   0.001187   0.000972  -0.000174  -0.000017
    25  H    0.001484   0.400407   0.007148  -0.000385  -0.004516   0.000004
    26  H   -0.000719   0.396401  -0.000321   0.000208   0.005724  -0.000017
             13         14         15         16         17         18
     1  C   -0.056898   0.032486  -0.068027  -0.005401   0.007034   0.002414
     2  C    0.457139  -0.025030  -0.004737   0.003151   0.003903  -0.001543
     3  C   -0.011697   0.387720   0.471834   0.001743  -0.005673  -0.001481
     4  C    0.000065  -0.008354  -0.001260   0.008555  -0.019049  -0.060397
     5  C    0.000601   0.002473  -0.001406   0.384566   0.367047   0.450707
     6  C   -0.037162   0.005734   0.003917  -0.000556  -0.000651   0.000192
     7  C    0.003047  -0.037391  -0.051033  -0.001629   0.001915   0.001801
     8  C    0.000089  -0.001630   0.001577  -0.012725   0.023987  -0.019854
     9  O    0.011853  -0.009764   0.009276  -0.009392  -0.003194   0.014404
    10  H   -0.006114   0.004462  -0.004733  -0.000075   0.000006   0.000026
    11  H   -0.000039   0.000381  -0.000258   0.006352  -0.006571  -0.007755
    12  H   -0.028851   0.000853  -0.000121  -0.000010  -0.000002   0.000001
    13  H    0.517875   0.000042  -0.000650   0.000000  -0.000002   0.000000
    14  H    0.000042   0.496937  -0.028361  -0.000010  -0.000020   0.000002
    15  H   -0.000650  -0.028361   0.521960   0.000003   0.000010  -0.000001
    16  H    0.000000  -0.000010   0.000003   0.518991  -0.024902  -0.030647
    17  H   -0.000002  -0.000020   0.000010  -0.024902   0.532983  -0.023320
    18  H    0.000000   0.000002  -0.000001  -0.030647  -0.023320   0.527247
    19  H    0.005399  -0.000016  -0.000041  -0.000027   0.000004  -0.000004
    20  H   -0.005667  -0.000008  -0.000046   0.000010   0.000004  -0.000001
    21  H   -0.006584  -0.000021  -0.000019  -0.000001   0.000000   0.000000
    22  H   -0.000017  -0.002730  -0.006536   0.000004  -0.000012   0.000001
    23  H   -0.000038  -0.007021   0.006006   0.000057   0.001385  -0.000083
    24  H   -0.000049   0.005435  -0.005759  -0.000013  -0.000029   0.000001
    25  H    0.000008   0.000003  -0.000003  -0.000029  -0.000029   0.000063
    26  H   -0.000020   0.000000  -0.000003   0.001139  -0.000382  -0.000372
             19         20         21         22         23         24
     1  C   -0.032196  -0.017924   0.034640   0.036595  -0.039031  -0.018516
     2  C   -0.005130   0.003562  -0.063275   0.003876   0.000632   0.011208
     3  C   -0.004895   0.016319   0.003046  -0.074411   0.007580  -0.004931
     4  C   -0.005973  -0.009251   0.000925   0.005995   0.009127  -0.013045
     5  C    0.001359  -0.002522   0.000118  -0.003255  -0.006797   0.005203
     6  C    0.410044   0.365264   0.413183   0.000280   0.000373   0.000391
     7  C    0.000681   0.000389   0.000311   0.419086   0.385268   0.389931
     8  C   -0.001627   0.002963   0.001099   0.001573   0.004293  -0.006538
     9  O    0.007065  -0.002494  -0.000808  -0.001510   0.008377   0.001187
    10  H   -0.000452   0.001381  -0.000082  -0.000062  -0.000040   0.000972
    11  H   -0.000114   0.000155  -0.000007   0.000352  -0.006600  -0.000174
    12  H   -0.007271   0.006203  -0.004146  -0.000015  -0.000003  -0.000017
    13  H    0.005399  -0.005667  -0.006584  -0.000017  -0.000038  -0.000049
    14  H   -0.000016  -0.000008  -0.000021  -0.002730  -0.007021   0.005435
    15  H   -0.000041  -0.000046  -0.000019  -0.006536   0.006006  -0.005759
    16  H   -0.000027   0.000010  -0.000001   0.000004   0.000057  -0.000013
    17  H    0.000004   0.000004   0.000000  -0.000012   0.001385  -0.000029
    18  H   -0.000004  -0.000001   0.000000   0.000001  -0.000083   0.000001
    19  H    0.528485  -0.033985  -0.022939   0.000000  -0.000014  -0.000003
    20  H   -0.033985   0.552239  -0.022178   0.000002  -0.000006  -0.000006
    21  H   -0.022939  -0.022178   0.524227   0.000000   0.000000   0.000001
    22  H    0.000000   0.000002   0.000000   0.513460  -0.024591  -0.019279
    23  H   -0.000014  -0.000006   0.000000  -0.024591   0.537858  -0.033714
    24  H   -0.000003  -0.000006   0.000001  -0.019279  -0.033714   0.536467
    25  H    0.000117  -0.000100  -0.000001   0.000000  -0.000020   0.000007
    26  H   -0.000242  -0.000269   0.000005   0.000000  -0.000011  -0.000001
             25         26
     1  C    0.011249  -0.019021
     2  C   -0.006027   0.002528
     3  C   -0.002407  -0.002133
     4  C   -0.016858  -0.028533
     5  C   -0.022313   0.011377
     6  C    0.005321  -0.003022
     7  C    0.001484  -0.000719
     8  C    0.400407   0.396401
     9  O    0.007148  -0.000321
    10  H   -0.000385   0.000208
    11  H   -0.004516   0.005724
    12  H    0.000004  -0.000017
    13  H    0.000008  -0.000020
    14  H    0.000003   0.000000
    15  H   -0.000003  -0.000003
    16  H   -0.000029   0.001139
    17  H   -0.000029  -0.000382
    18  H    0.000063  -0.000372
    19  H    0.000117  -0.000242
    20  H   -0.000100  -0.000269
    21  H   -0.000001   0.000005
    22  H    0.000000   0.000000
    23  H   -0.000020  -0.000011
    24  H    0.000007  -0.000001
    25  H    0.495494  -0.029635
    26  H   -0.029635   0.489653
 Mulliken atomic charges:
              1
     1  C   -0.151036
     2  C   -0.212065
     3  C   -0.344315
     4  C   -0.212263
     5  C   -0.399795
     6  C   -0.546200
     7  C   -0.528299
     8  C   -0.321865
     9  O   -0.048477
    10  H    0.203279
    11  H    0.178707
    12  H    0.179003
    13  H    0.157668
    14  H    0.183829
    15  H    0.158410
    16  H    0.160847
    17  H    0.145558
    18  H    0.148599
    19  H    0.161776
    20  H    0.145967
    21  H    0.142507
    22  H    0.151191
    23  H    0.157013
    24  H    0.151271
    25  H    0.161022
    26  H    0.177666
 Sum of Mulliken atomic charges =   0.00000
 Mulliken charges with hydrogens summed into heavy atoms:
              1
     1  C    0.052244
     2  C    0.124607
     3  C   -0.002075
     4  C   -0.033556
     5  C    0.055209
     6  C   -0.095950
     7  C   -0.068823
     8  C    0.016823
     9  O   -0.048477
 Sum of Mulliken charges with hydrogens summed into heavy atoms =   0.00000
          Atomic-Atomic Spin Densities.
              1          2          3          4          5          6
     1  C    0.178201  -0.026463  -0.132414   0.013101  -0.030757   0.018080
     2  C   -0.026463   0.112211  -0.059045  -0.023357  -0.025987  -0.032516
     3  C   -0.132414  -0.059045   0.189089   0.022184   0.045180  -0.001434
     4  C    0.013101  -0.023357   0.022184  -0.023216  -0.019752   0.006445
     5  C   -0.030757  -0.025987   0.045180  -0.019752   0.192301   0.000560
     6  C    0.018080  -0.032516  -0.001434   0.006445   0.000560   0.055059
     7  C    0.035426   0.007516  -0.042651  -0.002807  -0.009747   0.000627
     8  C    0.006167   0.001729   0.001063  -0.008035  -0.092524  -0.015276
     9  O   -0.004547   0.006794  -0.014962   0.019178  -0.014807   0.003902
    10  H    0.003692   0.005385  -0.004860   0.002744  -0.000578   0.000110
    11  H    0.004482   0.003183  -0.008766   0.014562  -0.015501   0.000392
    12  H   -0.006658   0.007679  -0.002073   0.003907   0.000599  -0.000239
    13  H    0.001476  -0.005019   0.002966  -0.000052   0.000162   0.000375
    14  H    0.004654   0.002668  -0.004624  -0.000387  -0.000386   0.000223
    15  H   -0.000207   0.000077   0.000633  -0.000406  -0.000176  -0.000082
    16  H    0.000130  -0.000878   0.000415   0.005137   0.001325   0.000270
    17  H    0.006075   0.002374  -0.005761   0.003138  -0.018960  -0.000062
    18  H   -0.001145  -0.000410   0.000729   0.000201   0.007171   0.000036
    19  H    0.002322  -0.003503  -0.001302  -0.005170  -0.000634   0.003070
    20  H   -0.010097   0.006404  -0.001919   0.013239   0.001079   0.007237
    21  H    0.003951  -0.001602   0.001444  -0.001037  -0.000042  -0.005739
    22  H   -0.000084   0.000012  -0.000862   0.000030  -0.000017  -0.000013
    23  H   -0.001353  -0.000384   0.002506  -0.000289   0.000656   0.000001
    24  H   -0.000645   0.000085   0.001340  -0.000007   0.000260  -0.000010
    25  H   -0.000717  -0.000279  -0.000441   0.016610  -0.003604   0.000552
    26  H   -0.003672   0.003567  -0.000769   0.004675  -0.009600   0.000762
              7          8          9         10         11         12
     1  C    0.035426   0.006167  -0.004547   0.003692   0.004482  -0.006658
     2  C    0.007516   0.001729   0.006794   0.005385   0.003183   0.007679
     3  C   -0.042651   0.001063  -0.014962  -0.004860  -0.008766  -0.002073
     4  C   -0.002807  -0.008035   0.019178   0.002744   0.014562   0.003907
     5  C   -0.009747  -0.092524  -0.014807  -0.000578  -0.015501   0.000599
     6  C    0.000627  -0.015276   0.003902   0.000110   0.000392  -0.000239
     7  C    0.008282  -0.002558   0.004933  -0.001483   0.002710  -0.000210
     8  C   -0.002558   1.204933  -0.018663  -0.008972  -0.012964  -0.003403
     9  O    0.004933  -0.018663   0.012740   0.000586   0.001177   0.000409
    10  H   -0.001483  -0.008972   0.000586  -0.017238   0.000017   0.000109
    11  H    0.002710  -0.012964   0.001177   0.000017   0.008213  -0.000005
    12  H   -0.000210  -0.003403   0.000409   0.000109  -0.000005  -0.000109
    13  H   -0.000308   0.000416  -0.000114  -0.000143  -0.000015  -0.000362
    14  H   -0.000860  -0.000361   0.000067  -0.000268   0.000019  -0.000087
    15  H   -0.000050   0.000321   0.000023  -0.000008   0.000013   0.000065
    16  H   -0.000072  -0.006893  -0.000155   0.000001  -0.000194  -0.000001
    17  H    0.001739   0.010048   0.000295  -0.000001   0.001787   0.000000
    18  H   -0.000302  -0.006552  -0.000255  -0.000003  -0.000801   0.000000
    19  H   -0.000081   0.000721   0.000786  -0.000275   0.000045   0.000280
    20  H   -0.000339  -0.018273   0.000243   0.000234  -0.000015  -0.000158
    21  H    0.000080   0.002451  -0.000264   0.000101  -0.000003   0.000132
    22  H    0.000904  -0.000005   0.000027   0.000048  -0.000005   0.000001
    23  H   -0.000768   0.000040  -0.000187   0.000003  -0.000020   0.000011
    24  H   -0.000853  -0.000030  -0.000102  -0.000223  -0.000160  -0.000005
    25  H    0.000304  -0.015513   0.000043   0.000236   0.000795   0.000002
    26  H    0.000200  -0.007126   0.000766   0.000063   0.000480   0.000049
             13         14         15         16         17         18
     1  C    0.001476   0.004654  -0.000207   0.000130   0.006075  -0.001145
     2  C   -0.005019   0.002668   0.000077  -0.000878   0.002374  -0.000410
     3  C    0.002966  -0.004624   0.000633   0.000415  -0.005761   0.000729
     4  C   -0.000052  -0.000387  -0.000406   0.005137   0.003138   0.000201
     5  C    0.000162  -0.000386  -0.000176   0.001325  -0.018960   0.007171
     6  C    0.000375   0.000223  -0.000082   0.000270  -0.000062   0.000036
     7  C   -0.000308  -0.000860  -0.000050  -0.000072   0.001739  -0.000302
     8  C    0.000416  -0.000361   0.000321  -0.006893   0.010048  -0.006552
     9  O   -0.000114   0.000067   0.000023  -0.000155   0.000295  -0.000255
    10  H   -0.000143  -0.000268  -0.000008   0.000001  -0.000001  -0.000003
    11  H   -0.000015   0.000019   0.000013  -0.000194   0.001787  -0.000801
    12  H   -0.000362  -0.000087   0.000065  -0.000001   0.000000   0.000000
    13  H    0.000038  -0.000045   0.000002   0.000000  -0.000001   0.000000
    14  H   -0.000045  -0.000976   0.000036  -0.000002   0.000044  -0.000001
    15  H    0.000002   0.000036  -0.000216   0.000000   0.000003   0.000000
    16  H    0.000000  -0.000002   0.000000  -0.002956  -0.000083   0.000581
    17  H   -0.000001   0.000044   0.000003  -0.000083   0.012647  -0.001251
    18  H    0.000000  -0.000001   0.000000   0.000581  -0.001251  -0.001006
    19  H   -0.000004  -0.000002  -0.000005  -0.000002   0.000004  -0.000002
    20  H   -0.000309  -0.000004   0.000010  -0.000002   0.000001  -0.000001
    21  H    0.000231   0.000004  -0.000001   0.000000   0.000000   0.000000
    22  H   -0.000001   0.000069   0.000041   0.000000   0.000009   0.000000
    23  H    0.000001   0.000022  -0.000045   0.000008  -0.000246   0.000004
    24  H    0.000005  -0.000047   0.000034   0.000000  -0.000033   0.000004
    25  H    0.000000   0.000000   0.000000   0.000039   0.000065  -0.000247
    26  H   -0.000007   0.000003  -0.000001  -0.000078   0.000150  -0.000191
             19         20         21         22         23         24
     1  C    0.002322  -0.010097   0.003951  -0.000084  -0.001353  -0.000645
     2  C   -0.003503   0.006404  -0.001602   0.000012  -0.000384   0.000085
     3  C   -0.001302  -0.001919   0.001444  -0.000862   0.002506   0.001340
     4  C   -0.005170   0.013239  -0.001037   0.000030  -0.000289  -0.000007
     5  C   -0.000634   0.001079  -0.000042  -0.000017   0.000656   0.000260
     6  C    0.003070   0.007237  -0.005739  -0.000013   0.000001  -0.000010
     7  C   -0.000081  -0.000339   0.000080   0.000904  -0.000768  -0.000853
     8  C    0.000721  -0.018273   0.002451  -0.000005   0.000040  -0.000030
     9  O    0.000786   0.000243  -0.000264   0.000027  -0.000187  -0.000102
    10  H   -0.000275   0.000234   0.000101   0.000048   0.000003  -0.000223
    11  H    0.000045  -0.000015  -0.000003  -0.000005  -0.000020  -0.000160
    12  H    0.000280  -0.000158   0.000132   0.000001   0.000011  -0.000005
    13  H   -0.000004  -0.000309   0.000231  -0.000001   0.000001   0.000005
    14  H   -0.000002  -0.000004   0.000004   0.000069   0.000022  -0.000047
    15  H   -0.000005   0.000010  -0.000001   0.000041  -0.000045   0.000034
    16  H   -0.000002  -0.000002   0.000000   0.000000   0.000008   0.000000
    17  H    0.000004   0.000001   0.000000   0.000009  -0.000246  -0.000033
    18  H   -0.000002  -0.000001   0.000000   0.000000   0.000004   0.000004
    19  H   -0.001890  -0.000138   0.000380   0.000000  -0.000002   0.000000
    20  H   -0.000138  -0.017400   0.002790   0.000000   0.000002  -0.000003
    21  H    0.000380   0.002790  -0.005394   0.000000   0.000000   0.000000
    22  H    0.000000   0.000000   0.000000  -0.000264   0.000073   0.000015
    23  H   -0.000002   0.000002   0.000000   0.000073  -0.000644   0.000104
    24  H    0.000000  -0.000003   0.000000   0.000015   0.000104  -0.000077
    25  H    0.000016   0.000083  -0.000003   0.000000   0.000000  -0.000003
    26  H    0.000114   0.000592  -0.000066   0.000000  -0.000005   0.000000
             25         26
     1  C   -0.000717  -0.003672
     2  C   -0.000279   0.003567
     3  C   -0.000441  -0.000769
     4  C    0.016610   0.004675
     5  C   -0.003604  -0.009600
     6  C    0.000552   0.000762
     7  C    0.000304   0.000200
     8  C   -0.015513  -0.007126
     9  O    0.000043   0.000766
    10  H    0.000236   0.000063
    11  H    0.000795   0.000480
    12  H    0.000002   0.000049
    13  H    0.000000  -0.000007
    14  H    0.000000   0.000003
    15  H    0.000000  -0.000001
    16  H    0.000039  -0.000078
    17  H    0.000065   0.000150
    18  H   -0.000247  -0.000191
    19  H    0.000016   0.000114
    20  H    0.000083   0.000592
    21  H   -0.000003  -0.000066
    22  H    0.000000   0.000000
    23  H    0.000000  -0.000005
    24  H   -0.000003   0.000000
    25  H   -0.036665   0.004714
    26  H    0.004714  -0.040393
 Mulliken atomic spin densities:
              1
     1  C    0.058999
     2  C   -0.019759
     3  C   -0.014333
     4  C    0.040637
     5  C    0.006219
     6  C    0.042331
     7  C   -0.000367
     8  C    1.010741
     9  O   -0.002084
    10  H   -0.020726
    11  H   -0.000575
    12  H   -0.000066
    13  H   -0.000706
    14  H   -0.000240
    15  H    0.000060
    16  H   -0.003410
    17  H    0.011980
    18  H   -0.003440
    19  H   -0.005271
    20  H   -0.016741
    21  H   -0.002586
    22  H   -0.000022
    23  H   -0.000511
    24  H   -0.000348
    25  H   -0.034011
    26  H   -0.045773
 Sum of Mulliken atomic spin densities =   1.00000
 Electronic spatial extent (au):  <R**2>=           1549.0867
 Charge=              0.0000 electrons
 Dipole moment (field-independent basis, Debye):
    X=              0.4424    Y=              0.4889    Z=              0.7782  Tot=              1.0200
 Quadrupole moment (field-independent basis, Debye-Ang):
   XX=            -56.2403   YY=            -61.3024   ZZ=            -61.1108
   XY=             -0.8611   XZ=              0.2875   YZ=              0.8066
 Traceless Quadrupole moment (field-independent basis, Debye-Ang):
   XX=              3.3108   YY=             -1.7512   ZZ=             -1.5596
   XY=             -0.8611   XZ=              0.2875   YZ=              0.8066
 Octapole moment (field-independent basis, Debye-Ang**2):
  XXX=              6.3822  YYY=              4.4724  ZZZ=             -3.5760  XYY=             -0.0517
  XXY=             -1.3024  XXZ=              1.0842  XZZ=              0.0597  YZZ=              1.5313
  YYZ=             -6.0715  XYZ=             -0.0519
 Hexadecapole moment (field-independent basis, Debye-Ang**3):
 XXXX=          -1038.5243 YYYY=           -961.5959 ZZZZ=           -200.3165 XXXY=              0.3503
 XXXZ=              4.7732 YYYX=             -9.6659 YYYZ=              4.2807 ZZZX=             -0.0579
 ZZZY=              4.3481 XXYY=           -328.8973 XXZZ=           -204.2915 YYZZ=           -193.7127
 XXYZ=              1.7854 YYXZ=             -3.3227 ZZXY=             -0.8317
 N-N= 4.952894262783D+02 E-N=-2.837009586063D+03  KE= 5.813131585111D+02
                          Isotropic Fermi Contact Couplings
        Atom                 a.u.       MegaHertz       Gauss      10(-4) cm-1
     1  C(13)             -0.00017      -0.19634      -0.07006      -0.06549
     2  C(13)             -0.00004      -0.04836      -0.01726      -0.01613
     3  C(13)             -0.00013      -0.14720      -0.05253      -0.04910
     4  C(13)             -0.02160     -24.28117      -8.66413      -8.09933
     5  C(13)              0.05407      60.78568      21.68984      20.27592
     6  C(13)              0.00538       6.05234       2.15963       2.01884
     7  C(13)              0.00021       0.23275       0.08305       0.07764
     8  C(13)              0.36723     412.84202     147.31229     137.70927
     9  O(17)              0.00797      -4.83000      -1.72346      -1.61111
    10  H(1)               0.00019       0.85438       0.30486       0.28499
    11  H(1)               0.00348      15.53642       5.54378       5.18239
    12  H(1)               0.00022       1.00553       0.35880       0.33541
    13  H(1)               0.00003       0.15048       0.05370       0.05020
    14  H(1)               0.00012       0.55836       0.19924       0.18625
    15  H(1)               0.00003       0.15537       0.05544       0.05183
    16  H(1)              -0.00042      -1.86806      -0.66657      -0.62312
    17  H(1)               0.00588      26.28637       9.37963       8.76819
    18  H(1)               0.00042       1.87632       0.66952       0.62587
    19  H(1)               0.00028       1.24536       0.44438       0.41541
    20  H(1)               0.00099       4.43107       1.58112       1.47805
    21  H(1)               0.00058       2.59330       0.92535       0.86503
    22  H(1)              -0.00001      -0.04866      -0.01736      -0.01623
    23  H(1)               0.00001       0.04923       0.01757       0.01642
    24  H(1)              -0.00001      -0.02518      -0.00899      -0.00840
    25  H(1)              -0.00771     -34.44071     -12.28930     -11.48819
    26  H(1)              -0.00630     -28.16945     -10.05156      -9.39632
 --------------------------------------------------------
       Center         ----  Spin Dipole Couplings  ----
                      3XX-RR        3YY-RR        3ZZ-RR
 --------------------------------------------------------
     1   Atom        0.001148     -0.001153      0.000006
     2   Atom        0.003993     -0.002303     -0.001690
     3   Atom        0.000267      0.001132     -0.001399
     4   Atom       -0.019416      0.008266      0.011150
     5   Atom        0.002750     -0.008564      0.005813
     6   Atom        0.006669     -0.006765      0.000096
     7   Atom       -0.000563      0.001986     -0.001423
     8   Atom        0.489324     -0.432371     -0.056954
     9   Atom        0.005375     -0.012516      0.007141
    10   Atom        0.005309      0.001845     -0.007155
    11   Atom       -0.009200      0.020414     -0.011213
    12   Atom        0.001558     -0.001493     -0.000064
    13   Atom        0.002868     -0.001316     -0.001552
    14   Atom        0.000116      0.000406     -0.000522
    15   Atom        0.000729      0.000377     -0.001106
    16   Atom       -0.004683     -0.003473      0.008157
    17   Atom       -0.003102      0.004543     -0.001441
    18   Atom        0.007805     -0.001599     -0.006206
    19   Atom        0.003332     -0.004322      0.000990
    20   Atom        0.010398     -0.005974     -0.004423
    21   Atom        0.002666     -0.001063     -0.001603
    22   Atom       -0.000374      0.001123     -0.000749
    23   Atom       -0.001206      0.002637     -0.001431
    24   Atom       -0.000971      0.002527     -0.001556
[...]
 02666,0.00005686,-0.00045325,0.00003170,0.00042739,0.00059914,-0.00178
 625,-0.00016152,-0.00002682,0.00018593,-0.00001078,0.00000208,-0.00002
 938,0.00000257,0.00029463,0.00005960,0.00020381,0.00089858,0.00123245,
 0.00096124,-0.00000954,-0.00000196,0.00000365,0.00009242,-0.00001091,0
 .00002888,-0.00002264,0.00003030,-0.00003039,-0.00000428,0.00000604,-0
 .00001597,0.00001849,0.00002045,0.00000250,0.30147418,0.00221417,0.000
 76508,0.00061115,0.03006190,-0.00792061,0.01069790,-0.00006477,-0.0000
 6920,-0.00006680,-0.00071342,-0.00033379,0.00036939,-0.00002512,-0.000
 00703,0.00001486,0.05304683,-0.05878604,0.01974147,-0.00013993,0.00003
 752,-0.00005194,0.00003420,-0.00027306,0.00004589,-0.00095578,0.001025
 69,-0.00027592,-0.00017841,-0.00000395,-0.00010714,0.00011568,0.000078
 15,-0.00015858,-0.00053570,0.00150027,0.00004565,0.00100388,-0.0057614
 4,-0.00197736,0.00004919,0.00001765,-0.00001191,-0.00024123,0.00020541
 ,-0.00003470,-0.00008444,0.00000945,-0.00001044,0.00001416,0.00001430,
 0.00002018,0.00001592,0.00001825,-0.00002351,-0.06113835,0.06494207,-0
 .00095429,0.00045141,-0.00005631,0.01097379,-0.00235125,0.00327749,0.0
 0009662,0.00005226,0.00006455,-0.00021003,0.00038397,0.00041934,0.0001
 1823,-0.00011253,-0.00005228,-0.08346766,0.02063582,-0.07911573,-0.000
 07059,0.00001423,-0.00002537,-0.00028396,0.00050378,-0.00028116,0.0005
 5164,-0.00068091,-0.00037654,-0.00000303,-0.00006056,0.00005983,0.0000
 2384,-0.00011850,-0.00010631,0.00042800,0.00069644,0.00046423,0.000683
 03,-0.00256140,0.00031721,0.00001354,0.00000246,-0.00002250,-0.0000069
 6,0.00002232,-0.00003090,-0.00002018,0.00004089,0.00003047,-0.00005219
 ,-0.00004202,-0.00004619,0.00001897,0.00002302,-0.00000585,0.08936134,
 -0.02005424,0.08193061,0.00044199,-0.00054021,-0.00065641,-0.00067121,
 0.00043383,0.00993355,-0.00004465,-0.00007524,0.00002039,0.00023467,-0
 .00029023,-0.00049261,-0.00008071,0.00011542,0.00006376,-0.04814998,-0
 .00012828,-0.00163660,-0.00000262,-0.00000127,-0.00003526,0.00018816,-
 0.00002778,0.00012840,-0.00036896,-0.00001271,0.00051193,-0.00001853,-
 0.00001216,-0.00006857,-0.00002698,0.00004858,0.00007876,0.00033574,0.
 00190537,0.00037607,-0.00001268,-0.00057728,0.00026533,-0.00001824,-0.
 00004074,-0.00002561,-0.00004681,0.00002939,0.00000827,0.00003056,-0.0
 0001611,-0.00000656,0.00004747,0.00002620,0.00004992,-0.00002120,-0.00
 001905,0.00000075,0.00119098,-0.00206961,-0.03014165,0.04739953,0.0002
 3293,0.00196575,-0.00183882,-0.00091885,-0.00304184,-0.03280886,0.0002
 0788,-0.00007154,0.00000230,-0.00013931,-0.00017976,-0.00006875,-0.000
 01379,0.00001133,0.00003475,-0.00033082,-0.04790442,-0.01470655,-0.000
 01910,0.00006548,0.00016450,0.00009734,0.00002583,-0.00000048,-0.00009
 858,0.00017845,0.00049782,-0.00023459,-0.00049146,0.00086778,-0.000012
 96,-0.00001849,0.00000695,0.00187078,-0.00590715,-0.00155774,0.0000144
 5,0.00125460,0.00066968,-0.00002374,0.00011004,0.00029600,0.00002024,-
 0.00000137,-0.00003557,0.00000276,-0.00000375,0.00000134,0.00001204,0.
 00001233,0.00001417,-0.00000664,0.00000051,-0.00000703,-0.00094722,-0.
 00096373,0.00725459,-0.00127118,0.05357801,0.00037481,0.00096623,0.000
 43757,0.00002565,-0.00125642,-0.00946012,-0.00007111,-0.00002515,0.000
 46294,0.00028651,-0.00023428,-0.00048984,-0.00011628,0.00008780,0.0000
 6289,-0.00196707,-0.01550293,-0.31031534,0.00002719,-0.00005633,0.0000
 0790,0.00048718,-0.00000919,-0.00007988,-0.00064318,-0.00027590,0.0003
 1160,-0.00049826,-0.00056737,0.00044114,-0.00002360,0.00001411,0.00007
 032,0.00103487,-0.00166681,0.00108827,0.00031580,-0.00020998,0.0003664
 1,-0.00000706,0.00024375,0.00005334,-0.00000342,0.00000340,-0.00003152
 ,0.00002241,-0.00001484,-0.00000999,0.00004867,0.00002289,0.00003996,-
 0.00003863,-0.00001491,0.00000045,0.00072597,-0.00006844,-0.01007718,0
 .00049996,0.01900129,0.33747613,-0.00146701,0.00248564,0.00066678,0.00
 690322,0.00883661,-0.00487843,0.00041411,0.00037323,-0.00017833,0.0002
 0612,0.00032098,0.00004747,0.00005282,-0.00003763,-0.00003589,-0.15748
 430,-0.11713880,0.06241816,-0.00008199,0.00015735,0.00005650,-0.000315
 57,0.00025372,0.00011473,0.00062884,-0.00123558,0.00003168,-0.00007994
 ,-0.00001701,0.00007175,-0.00003885,-0.00006091,0.00001636,0.00007782,
 -0.00072306,-0.00013357,0.00064714,-0.00054692,-0.00041225,-0.00000057
 ,-0.00000799,0.00001184,0.00001218,-0.00002086,-0.00002559,0.00002830,
 0.00000990,0.00001539,-0.00002392,-0.00002597,-0.00002840,0.00000245,-
 0.00000201,0.00001414,-0.01779973,-0.02017818,0.01206282,0.00013870,0.
 00165193,-0.00058457,0.16800753,0.00420741,-0.00458682,-0.00343794,-0.
 02029347,-0.02025227,0.01236685,-0.00166231,-0.00084924,0.00096860,0.0
 0030021,-0.00010804,-0.00038304,-0.00006633,0.00001429,0.00007110,-0.1
 1594988,-0.16719383,0.06529954,0.00041917,-0.00057356,-0.00032878,0.00
 012229,-0.00009090,-0.00003202,-0.00025675,0.00067750,0.00019880,0.000
 22805,0.00028392,-0.00005295,-0.00000029,0.00001777,0.00002749,-0.0002
 7393,0.00103686,-0.00041622,0.00029293,0.00113584,0.00067615,-0.000027
 85,-0.00000707,-0.00008203,0.00004451,0.00003056,0.00006543,-0.0000075
 3,0.00000527,-0.00001323,0.00002783,0.00000898,0.00001426,-0.00004313,
 -0.00000181,-0.00000679,0.00451422,0.00519291,-0.00380951,0.00231147,0
 .00140639,-0.00050653,0.12627794,0.18386815,0.00050231,-0.00141355,-0.
 00064565,-0.00783934,-0.00747855,0.00351991,-0.00026084,-0.00030786,0.
 00052898,0.00020914,-0.00015752,-0.00033172,-0.00006898,0.00007354,0.0
 0005251,0.06248895,0.06597490,-0.08366623,0.00009957,-0.00016685,-0.00
 007770,0.00036971,0.00015674,0.00002024,0.00007705,-0.00034445,0.00025
 763,-0.00006818,-0.00024508,0.00037860,-0.00001961,0.00000961,0.000025
 47,-0.00047196,0.00052946,0.00026080,0.00000205,0.00063976,0.00019287,
 -0.00003641,0.00007831,0.00000463,0.00001288,0.00000549,-0.00000352,0.
 00001122,-0.00000490,0.00000114,0.00003454,0.00001175,0.00003636,-0.00
 002176,-0.00000780,-0.00000505,-0.00695492,-0.00877492,0.00387183,0.02
 135740,0.02211229,-0.01027373,-0.06932614,-0.07070632,0.08588255,-0.00
 411884,-0.00226084,0.00207083,0.00068602,-0.00096909,-0.00041360,0.007
 41184,-0.01990475,-0.00746541,-0.00011943,-0.00052273,0.00073295,0.000
 09109,0.00004530,-0.00007091,-0.00029946,-0.00021172,0.00020506,-0.081
 10358,0.08651404,0.02984262,0.00001608,0.00019327,-0.00024773,0.001047
 00,0.00069009,0.00014531,-0.00005733,0.00016115,0.00000034,-0.00007208
 ,0.00041147,-0.00049592,0.00000519,0.00000051,0.00003879,0.00000495,0.
 00002930,-0.00005086,0.00055900,0.00088744,-0.00008445,0.00075856,0.00
 062787,-0.00067465,-0.00005655,0.00003335,-0.00002998,0.00012355,-0.00
 002608,0.00008036,0.00000467,0.00002996,0.00002433,0.00002140,-0.00001
 800,0.00002378,-0.00001374,0.00001481,-0.00001709,0.00005347,-0.000150
 93,-0.00003343,0.08618762,-0.00471652,-0.00140165,0.00307302,0.0010923
 0,-0.00115987,-0.00075638,0.00938802,-0.02102726,-0.00806245,-0.000414
 66,0.00021014,0.00026042,0.00003539,0.00000152,-0.00005627,-0.00047577
 ,-0.00028249,0.00034955,0.08559703,-0.25325584,-0.07283193,0.00007383,
 -0.00003127,0.00000370,0.00028648,0.00038155,-0.00013077,-0.00006956,0
 .00028742,-0.00001919,0.00001736,-0.00006652,0.00000156,0.00001428,-0.
 00002122,0.00007825,-0.00002976,0.00003388,-0.00005527,0.00045598,0.00
 068787,0.00037345,-0.00016810,0.00087764,-0.00052534,-0.00000356,-0.00
 000347,0.00000610,-0.00001276,-0.00000568,0.00000497,0.00004121,-0.000
 00428,-0.00000026,0.00003310,0.00000960,0.00000451,0.00000486,0.000028
 43,-0.00002655,0.00004993,-0.00022973,-0.00005450,-0.09141495,0.276279
 81,0.00143786,0.00131013,-0.00079101,-0.00020081,0.00054649,0.00054029
 ,-0.00549711,0.01172453,0.00342602,0.00041685,0.00038385,-0.00076770,-
 0.00004568,-0.00016465,0.00008024,0.00018633,0.00014792,-0.00013058,0.
 02988782,-0.07345245,-0.07342754,0.00001737,-0.00002847,0.00011808,0.0
 0003418,0.00006963,0.00034187,-0.00000843,0.00033427,0.00029199,-0.000
 04346,-0.00031386,0.00016659,-0.00005783,-0.00005798,0.00000254,0.0000
 0894,-0.00001375,0.00000531,-0.00066678,-0.00027185,0.00033910,-0.0002
 1164,-0.00066860,0.00022560,0.00005472,0.00000750,0.00004817,0.0000512
 8,0.00000684,0.00002923,-0.00001842,0.00001457,-0.00000215,-0.00000498
 ,-0.00000518,-0.00000738,0.00001077,-0.00001067,0.00000300,-0.00001584
 ,0.00008585,0.00001909,-0.03405237,0.07854944,0.07549810,-0.00138824,0
 .00126287,-0.00014961,-0.00001147,-0.00011530,-0.00007487,-0.01839685,
 0.00060176,-0.00602989,0.00007788,0.00022889,0.00075451,0.00015619,0.0
 0020390,0.00020482,0.00003966,-0.00000524,0.00005760,-0.27951030,0.023
 08270,-0.08301858,-0.00001528,0.00022078,-0.00020287,0.00114106,0.0008
 1876,0.00027763,0.00000691,-0.00013676,0.00004848,-0.00018838,0.000803
 21,-0.00008308,-0.00001985,0.00000405,0.00001773,0.00019372,0.00003800
 ,0.00002472,0.00045953,0.00029267,0.00021509,-0.00066374,-0.00306707,0
 .00188015,0.00001641,-0.00007794,-0.00009403,-0.00000146,-0.00013333,-
 0.00019177,0.00002196,-0.00001746,0.00001487,0.00003490,-0.00006298,0.
 00000592,-0.00001035,-0.00000402,-0.00001340,0.00001587,-0.00002931,-0
 .00000149,-0.01019628,0.00087735,-0.00357453,0.30625801,-0.00111841,0.
 00131581,-0.00088568,-0.00004473,-0.00000395,0.00014460,-0.02486009,0.
 00233827,-0.00932203,0.00074172,-0.00148013,-0.00069653,0.00001385,-0.
 00018991,-0.00006513,0.00015026,0.00001292,0.00000785,0.02459080,-0.04
 801532,0.00783709,-0.00000007,0.00006309,-0.00005916,0.00075948,0.0004
 5448,0.00022300,0.00008846,-0.00009590,0.00005977,0.00033603,-0.000829
 71,-0.00077454,-0.00003309,0.00001367,0.00001159,0.00024677,0.00008277
 ,-0.00000020,0.00090865,0.00099114,-0.00011773,-0.00286665,-0.00392124
 ,0.00193341,-0.00006836,0.00007757,0.00001740,0.00025371,0.00013426,0.
 00014256,-0.00007881,0.00010371,0.00004763,0.00001690,-0.00009130,0.00
 000245,-0.00001343,-0.00000719,-0.00000549,0.00001644,0.00002481,0.000
 00636,0.02681186,-0.00214212,0.01088975,-0.02478740,0.05249087,-0.0009
 6317,-0.00003877,0.00005668,0.00009822,-0.00010162,0.00004025,0.012607
 63,-0.00197910,0.00419718,-0.00026157,-0.00092809,0.00096845,0.0001858
 6,0.00027443,0.00001290,-0.00008243,0.00000424,-0.00002226,-0.08298968
 ,0.00707969,-0.07795524,0.00003505,0.00021954,-0.00034046,0.00055274,0
 .00023127,-0.00050026,-0.00003289,0.00001011,0.00002057,0.00002564,-0.
 00050700,-0.00096714,0.00000949,-0.00000794,-0.00002857,-0.00003662,-0
 .00001882,-0.00002519,0.00006915,-0.00079780,0.00044787,0.00170865,0.0
 0244472,0.00003596,-0.00005909,0.00004498,-0.00005374,-0.00004105,-0.0
 0008992,0.00011823,0.00003010,-0.00007940,-0.00004449,0.00000201,0.000
 00613,0.00002577,-0.00000900,-0.00000304,-0.00000804,0.00001792,-0.000
 01484,-0.00000635,0.01079368,-0.00025268,0.00308462,0.08904177,-0.0089
 0827,0.08043411,0.00067385,0.00081777,-0.00020135,-0.00009293,0.000064
 88,-0.00001211,-0.00059991,0.00039531,0.02101043,0.00018101,0.00018923
 ,-0.00081567,-0.00010041,-0.00017246,-0.00006528,-0.00000098,0.0000149
 3,-0.00009508,-0.04812174,0.00057756,0.00122940,0.00002796,-0.00011261
 ,0.00016176,-0.00019800,0.00042282,0.00029478,0.00012336,-0.00025054,-
 0.00040246,-0.00033284,0.00013114,0.00007159,0.00001055,0.00007417,-0.
 00013267,-0.00004845,0.00000006,0.00003009,-0.00161925,-0.00350827,0.0
 0119541,0.00032765,0.00091188,-0.00003553,0.00003256,0.00003717,0.0000
 7488,0.00009977,0.00003776,0.00003717,-0.00002966,0.00004070,0.0000180
 4,0.00000222,0.00000876,-0.00000574,0.00001712,-0.00003392,-0.00000486
 ,-0.00001235,0.00000630,0.00001137,-0.00090389,-0.00063153,0.01229912,
 0.00201510,-0.00104424,-0.03067866,0.04854835,0.00055527,0.00197512,0.
 00161088,-0.00019728,-0.00003381,-0.00000406,0.00018794,-0.00066549,0.
 02662362,0.00007244,-0.00018328,0.00027357,0.00005082,0.00007852,-0.00
 002966,0.00003412,0.00003417,-0.00013901,0.00062155,-0.04657502,-0.001
 62364,-0.00002068,0.00003255,-0.00008823,0.00010091,-0.00035492,-0.000
 36791,0.00000723,-0.00030252,-0.00073804,0.00053766,-0.00014992,0.0000
 5841,0.00004059,0.00003867,-0.00024925,0.00000136,0.00001838,0.0000336
 3,-0.00321280,-0.00347847,0.00164949,0.00035035,0.00082516,-0.00075729
 ,-0.00004124,-0.00000786,-0.00003123,-0.00001886,-0.00002175,-0.000016
 15,0.00000160,-0.00000195,0.00000260,-0.00000209,-0.00000719,0.0000068
 9,0.00000038,-0.00006134,-0.00002656,-0.00000161,0.00002771,0.00000137
 ,-0.00107227,0.00084441,-0.02905100,-0.00007920,-0.00141861,0.00330871
 ,0.00206734,0.04935982,0.00010484,-0.00079598,0.00050287,-0.00002825,0
 .00011129,0.00041765,0.00051151,0.00041065,-0.01145726,0.00068416,0.00
 071922,-0.00118800,-0.00008803,-0.00025966,0.00008545,0.00004636,0.000
 03703,0.00000616,0.00121984,-0.00156453,-0.30814645,-0.00000713,-0.000
 07784,0.00023821,-0.00075505,0.00033001,0.00045629,-0.00025060,0.00091
 087,0.00021064,0.00000409,-0.00047972,0.00034844,-0.00007283,-0.000212
 27,0.00009785,-0.00002098,-0.00001639,-0.00003037,0.00173092,0.0016828
 0,0.00091527,0.00037415,0.00004633,0.00042120,0.00009094,-0.00000812,0
 .00007368,0.00007537,0.00003065,0.00000523,-0.00003609,0.00003307,0.00
 001360,-0.00001294,0.00001449,-0.00001241,0.00000564,0.00003322,0.0000
 1545,-0.00000624,0.00003356,0.00000433,-0.00040648,0.00008847,-0.00909
 657,0.00080600,-0.00055344,-0.00956657,-0.00396031,-0.00045213,0.33569
 726,0.00037664,-0.00014651,0.00046606,-0.00010307,0.00001194,-0.000072
 01,-0.00000059,0.00001239,-0.00008189,0.00490610,0.00015938,-0.0021772
 0,-0.00136303,0.00036751,0.00024458,0.00001289,-0.00004564,0.00019926,
 0.00003999,0.00000241,0.00004820,-0.01719042,-0.00458924,0.05768394,-0
 .00204175,0.00071898,0.00213748,-0.00022714,0.00013581,0.00004414,-0.0
 0014334,-0.00034871,0.00031124,0.00002973,-0.00000598,-0.00004818,-0.0
 0003166,-0.00002565,0.00001377,0.00001062,-0.00002763,-0.00003379,-0.0
 0003554,0.00001485,0.00000560,0.00010301,-0.00016651,-0.00000082,0.000
 12494,-0.00013873,0.00025450,-0.00017772,-0.00011508,-0.00009678,-0.00
 010622,0.00001598,-0.00001389,-0.00006778,-0.00006878,0.00000037,-0.00
 004600,0.00000384,-0.00005442,-0.00001827,-0.00000903,-0.00001151,-0.0
 0002250,-0.00001510,-0.00002325,0.00000402,0.00001928,-0.00000793,0.01
 322301,-0.00115182,0.00007272,-0.00041148,0.00002741,-0.00012994,-0.00
 000442,0.00019164,0.00007151,0.00005744,0.00323896,0.00821967,-0.01918
 438,0.00023491,-0.00130381,-0.00034761,0.00017973,-0.00017035,0.000308
 24,-0.00000651,0.00004257,-0.00004336,-0.00398711,-0.05905136,0.027095
 09,0.00227216,-0.00286459,-0.00473404,0.00017352,-0.00004591,0.0000880
 0,0.00040849,0.00103652,0.00084959,-0.00002888,-0.00000257,0.00001553,
 0.00002950,0.00010861,0.00000329,-0.00003844,0.00001352,0.00001313,0.0
 0006553,-0.00008387,0.00001100,-0.00003105,0.00001510,-0.00009585,-0.0
 0046862,-0.00015721,-0.00018140,-0.00027978,0.00001304,-0.00006534,-0.
 00008378,0.00008917,-0.00025222,0.00005618,0.00001168,-0.00000972,-0.0
 0014806,0.00005468,-0.00001675,-0.00000184,-0.00001173,0.00001673,-0.0
 0000596,0.00003780,-0.00001590,0.00002480,-0.00001272,0.00002952,0.003
 55532,0.05122058,-0.00128190,0.00011532,-0.00084715,0.00008127,-0.0000
 4172,0.00010939,0.00022699,-0.00000620,0.00019565,0.00255564,0.0081319
 9,-0.00666128,0.00032762,-0.00076162,-0.00027299,-0.00008263,0.0000018
 5,-0.00016481,0.00000780,0.00001826,-0.00004894,0.05255505,0.02537160,
 -0.34109895,0.00142615,-0.00249377,-0.00155232,0.00012462,0.00002892,0
 .00029254,0.00002718,-0.00050502,0.00071008,-0.00003365,-0.00000415,0.
 00002197,0.00006137,0.00001892,-0.00002082,-0.00003766,0.00004110,0.00
 002749,0.00005639,-0.00010002,-0.00000617,0.00012650,-0.00004877,0.000
 14921,-0.00034716,-0.00018292,-0.00002526,-0.00038071,-0.00012026,-0.0
 0003769,-0.00000167,-0.00008221,0.00007909,0.00002338,0.00001306,0.000
 02188,0.00004763,0.00000805,0.00003075,0.00000825,-0.00001844,0.000013
 47,0.00000431,0.00004003,-0.00000780,0.00001131,-0.00001155,0.00002376
 ,-0.05724103,-0.02705752,0.35457967,0.00006150,0.00033339,0.00012353,0
 .00008977,0.00015383,0.00012175,-0.00011396,0.00001143,0.00000387,0.00
 102861,-0.00270794,0.00041147,0.00083602,0.00057507,0.00103736,-0.0005
 2232,-0.00010794,-0.00004954,0.00003000,-0.00003804,-0.00000220,-0.012
 24705,0.01159648,-0.00157137,0.00011263,-0.00011077,-0.00102532,0.0000
 2203,0.00007727,-0.00008807,0.00083194,0.00056084,-0.00035322,-0.00000
 436,-0.00006079,-0.00004356,0.00004369,-0.00010915,-0.00001426,0.00000
 672,-0.00000713,0.00000242,-0.00001376,0.00001528,0.00000151,0.0000692
 5,-0.00004310,-0.00020492,0.00001786,0.00022403,0.00015474,-0.00026753
 ,-0.00017193,0.00000747,-0.00061272,-0.00017474,0.00086867,-0.00047047
 ,-0.00000165,0.00013914,0.00016165,0.00000556,-0.00001870,-0.00001100,
 -0.00002093,0.00000414,-0.00001251,-0.00000455,-0.00000048,-0.00000312
 ,-0.00000281,-0.00000095,0.00274406,-0.00422633,0.00173493,0.00822307,
 -0.00011550,-0.00013991,-0.00005398,0.00014158,-0.00012794,-0.00002758
 ,-0.00006739,0.00001420,0.00004631,0.00069320,-0.01786028,0.01488092,0
 .00066709,0.00062024,0.00068912,-0.00021650,-0.00044378,0.00035909,-0.
 00007073,-0.00012886,-0.00004214,0.00505616,-0.29632257,0.11056825,0.0
 0057108,0.00279357,-0.00023452,-0.00005569,-0.00005521,-0.00001057,-0.
 00031619,-0.00285123,-0.00356433,-0.00000422,0.00003528,0.00000697,-0.
 00000163,0.00005971,-0.00000712,0.00000676,0.00001660,-0.00001880,0.00
 003230,0.00001912,0.00000220,-0.00060425,0.00012948,-0.00057698,-0.000
 11131,0.00029220,-0.00020025,-0.00006740,-0.00006243,-0.00006606,-0.00
 045219,0.00031180,-0.00005192,0.00016362,0.00000322,0.00013793,-0.0002
 8908,0.00010760,0.00007947,0.00010277,0.00000085,-0.00004906,0.0000870
 2,0.00005420,0.00011937,-0.00006901,0.00004033,-0.00009109,0.00068489,
 0.00282690,-0.00235493,-0.00576536,0.31066690,0.00023283,0.00006315,0.
 00003980,-0.00010838,0.00005469,-0.00006695,-0.00011378,-0.00001430,-0
 .00001293,-0.00005244,-0.01697235,0.01045214,0.00095891,-0.00003440,0.
 00097435,0.00054415,0.00010575,-0.00007144,-0.00003875,-0.00011793,-0.
 00009497,0.00174309,0.11297997,-0.10788454,-0.00099243,0.00197088,0.00
 164158,-0.00003061,0.00003088,-0.00007382,0.00000145,-0.00337605,-0.00
 165692,0.00002653,-0.00002859,-0.00001660,-0.00001720,0.00004186,0.000
 01361,0.00001150,-0.00000377,-0.00000717,0.00000389,0.00003825,-0.0000
 0049,-0.00007083,0.00039716,-0.00015311,-0.00003093,0.00019209,-0.0001
 2748,-0.00011269,0.00006429,-0.00004525,0.00093901,0.00013618,-0.00032
 431,-0.00026201,0.00006776,-0.00011362,0.00003210,-0.00002549,-0.00007
 775,0.00007657,-0.00000343,-0.00001038,0.00008050,0.00002470,0.0000835
 1,-0.00003561,0.00001654,-0.00003569,-0.00154645,0.02393243,-0.0055107
 8,-0.00123843,-0.11954028,0.10307922\\-0.00000010,-0.00000036,-0.00000
 159,-0.00000023,0.00000105,0.00000097,-0.00000175,0.00000083,-0.000007
 11,0.00000059,-0.00000066,0.00000209,-0.00000047,0.00000287,0.00000331
 ,0.00000139,-0.00000023,0.00000642,-0.00000182,-0.00000045,-0.00000991
 ,0.00000275,-0.00000376,0.00000622,-0.00000064,0.00000213,0.00000093,0
 .00000136,-0.00000421,-0.00000142,0.00000088,-0.00000291,-0.00000135,-
 0.00000177,0.00000490,0.00000077,0.00000002,-0.00000069,-0.00000119,-0
 .00000328,0.00000464,-0.00000723,-0.00000141,-0.00000104,-0.00000900,-
 0.00000073,0.00000522,0.00000656,-0.00000195,0.00000504,0.00000015,0.0
 0000046,0.00000100,0.00000417,0.00000104,0.00000173,0.00000865,0.00000
 293,-0.00000403,0.00000669,0.00000136,0.00000066,0.00000805,-0.0000029
 6,0.00000048,-0.00001382,-0.00000227,0.00000155,-0.00000820,-0.0000003
 2,-0.00000423,-0.00000993,0.00000410,-0.00000735,0.00000613,0.00000283
 ,-0.00000217,0.00000968\\\@


 WE HAVE LEFT UNDONE THOSE THINGS WHICH WE OUGHT TO HAVE DONE,
 AND WE HAVE DONE THOSE THINGS WHICH WE OUGHT NOT TO HAVE DONE.
                   BOOK OF COMMON PRAYER                      
 Job cpu time:  0 days 22 hours 52 minutes 23.6 seconds.
 File lengths (MBytes):  RWF=   2960 Int=      0 D2E=      0 Chk=     48 Scr=     32
 Normal termination of Gaussian 09 at Sat Aug 19 12:55:06 2017.
