 Entering Gaussian System, Link 0=/shared/apps/gaussian/G09_LINUX_LINDA/g09/g09
 Input=/gss_gpfs_scratch/harms.n/QMscratch/AKXKFZDCRYJKTF-UHFFFAOYSA.gjf
 Output=/gss_gpfs_scratch/harms.n/QMscratch/AKXKFZDCRYJKTF-UHFFFAOYSA.log
 Initial command:
 /shared/apps/gaussian/G09_LINUX_LINDA/g09/l1.exe /gss_gpfs_scratch/harms.n/comparerTST/Gau-22908.inp -scrdir=/gss_gpfs_scratch/harms.n/comparerTST/
 Entering Link 1 = /shared/apps/gaussian/G09_LINUX_LINDA/g09/l1.exe PID=     22909.
  
 Copyright (c) 1988,1990,1992,1993,1995,1998,2003,2009,2010,
            Gaussian, Inc.  All Rights Reserved.
  
 This is part of the Gaussian(R) 09 program.  It is based on
 the Gaussian(R) 03 system (copyright 2003, Gaussian, Inc.),
 the Gaussian(R) 98 system (copyright 1998, Gaussian, Inc.),
 the Gaussian(R) 94 system (copyright 1995, Gaussian, Inc.),
 the Gaussian 92(TM) system (copyright 1992, Gaussian, Inc.),
 the Gaussian 90(TM) system (copyright 1990, Gaussian, Inc.),
 the Gaussian 88(TM) system (copyright 1988, Gaussian, Inc.),
 the Gaussian 86(TM) system (copyright 1986, Carnegie Mellon
 University), and the Gaussian 82(TM) system (copyright 1983,
 Carnegie Mellon University). Gaussian is a federally registered
 trademark of Gaussian, Inc.
  
 This software contains proprietary and confidential information,
 including trade secrets, belonging to Gaussian, Inc.
  
 This software is provided under written license and may be
 used, copied, transmitted, or stored only in accord with that
 written license.
  
 The following legend is applicable only to US Government
 contracts under FAR:
  
                    RESTRICTED RIGHTS LEGEND
  
 Use, reproduction and disclosure by the US Government is
 subject to restrictions as set forth in subparagraphs (a)
 and (c) of the Commercial Computer Software - Restricted
 Rights clause in FAR 52.227-19.
  
 Gaussian, Inc.
 340 Quinnipiac St., Bldg. 40, Wallingford CT 06492
  
  
 ---------------------------------------------------------------
 Warning -- This program may not be used in any manner that
 competes with the business of Gaussian, Inc. or will provide
 assistance to any competitor of Gaussian, Inc.  The licensee
 of this program is prohibited from giving any competitor of
 Gaussian, Inc. access to this program.  By using this program,
 the user acknowledges that Gaussian, Inc. is engaged in the
 business of creating and licensing software in the field of
 computational chemistry and represents and warrants to the
 licensee that it is not a competitor of Gaussian, Inc. and that
 it will not use this program in any manner prohibited above.
 ---------------------------------------------------------------
  

 Cite this work as:
 Gaussian 09, Revision B.01,
 M. J. Frisch, G. W. Trucks, H. B. Schlegel, G. E. Scuseria, 
 M. A. Robb, J. R. Cheeseman, G. Scalmani, V. Barone, B. Mennucci, 
 G. A. Petersson, H. Nakatsuji, M. Caricato, X. Li, H. P. Hratchian, 
 A. F. Izmaylov, J. Bloino, G. Zheng, J. L. Sonnenberg, M. Hada, 
 M. Ehara, K. Toyota, R. Fukuda, J. Hasegawa, M. Ishida, T. Nakajima, 
 Y. Honda, O. Kitao, H. Nakai, T. Vreven, J. A. Montgomery, Jr., 
 J. E. Peralta, F. Ogliaro, M. Bearpark, J. J. Heyd, E. Brothers, 
 K. N. Kudin, V. N. Staroverov, T. Keith, R. Kobayashi, J. Normand, 
 K. Raghavachari, A. Rendell, J. C. Burant, S. S. Iyengar, J. Tomasi, 
 M. Cossi, N. Rega, J. M. Millam, M. Klene, J. E. Knox, J. B. Cross, 
 V. Bakken, C. Adamo, J. Jaramillo, R. Gomperts, R. E. Stratmann, 
 O. Yazyev, A. J. Austin, R. Cammi, C. Pomelli, J. W. Ochterski, 
 R. L. Martin, K. Morokuma, V. G. Zakrzewski, G. A. Voth, 
 P. Salvador, J. J. Dannenberg, S. Dapprich, A. D. Daniels, 
 O. Farkas, J. B. Foresman, J. V. Ortiz, J. Cioslowski, 
 and D. J. Fox, Gaussian, Inc., Wallingford CT, 2010.
 
 ******************************************
 Gaussian 09:  EM64L-G09RevB.01 12-Aug-2010
                 7-Aug-2017 
 ******************************************
 %nprocshared=20
 Will use up to   20 processors via shared memory.
 %mem=5GB
 --------------------------------------------------------------
 # m062x/6-311+g(2df,2p) opt=(verytight,gdiis) freq IOP(2/16=3)
 --------------------------------------------------------------

 Warning!  Use of Opt=GDIIS is deprecated since it is seldom a good choice.

 1/7=1,14=-1,18=20,19=11,26=3,38=1/1,3;
 2/9=110,12=2,16=3,17=6,18=5,40=1/2;
 3/5=4,6=6,7=214,11=2,16=1,25=1,30=1,71=1,74=-55/1,2,3;
 4//1;
 5/5=2,38=5/2;
 6/7=2,8=2,9=2,10=2,28=1/1;
 7//1,2,3,16;
 1/7=1,14=-1,18=20,19=11/3(2);
 2/9=110,16=3/2;
 99//99;
 2/9=110,16=3/2;
 3/5=4,6=6,7=214,11=2,16=1,25=1,30=1,71=1,74=-55/1,2,3;
 4/5=5,16=3/1;
 5/5=2,38=5/2;
 7//1,2,3,16;
 1/7=1,14=-1,18=20,19=11/3(-5);
 2/9=110,16=3/2;
 6/7=2,8=2,9=2,10=2,19=2,28=1/1;
 99/9=1/99;
 --------------------------------------
 InChI=1S/C3H6O2/c4-2-1-3-5/h2,5H,1,3H2
 --------------------------------------
 Symbolic Z-matrix:
 Charge =  0 Multiplicity = 1
 C                    -0.4333   -0.2525    0.5243 
 C                     0.8362    0.131    -0.2306 
 C                    -1.6476    0.04     -0.3047 
 O                     1.9544   -0.1534    0.5627 
 H                    -0.4786    0.3127    1.4814 
 H                    -0.4132   -1.3382    0.7591 
 H                     0.8957   -0.4479   -1.1801 
 H                     0.8137    1.2188   -0.468 
 O                    -2.4906    0.8301    0.0891 
 H                    -1.7829   -0.4553   -1.261 
 H                     2.7463    0.1146    0.0279 
 

 GradGradGradGradGradGradGradGradGradGradGradGradGradGradGradGradGradGrad
 Berny optimization.
 Initialization pass.
                           ----------------------------
                           !    Initial Parameters    !
                           ! (Angstroms and Degrees)  !
 --------------------------                            --------------------------
 ! Name  Definition              Value          Derivative Info.                !
 --------------------------------------------------------------------------------
 ! R1    R(1,2)                  1.526          estimate D2E/DX2                !
 ! R2    R(1,3)                  1.4991         estimate D2E/DX2                !
 ! R3    R(1,5)                  1.1124         estimate D2E/DX2                !
 ! R4    R(1,6)                  1.111          estimate D2E/DX2                !
 ! R5    R(2,4)                  1.4002         estimate D2E/DX2                !
 ! R6    R(2,7)                  1.1136         estimate D2E/DX2                !
 ! R7    R(2,8)                  1.1136         estimate D2E/DX2                !
 ! R8    R(3,9)                  1.2206         estimate D2E/DX2                !
 ! R9    R(3,10)                 1.0854         estimate D2E/DX2                !
 ! R10   R(4,11)                 0.9924         estimate D2E/DX2                !
 ! A1    A(2,1,3)              110.5652         estimate D2E/DX2                !
 ! A2    A(2,1,5)              109.3787         estimate D2E/DX2                !
 ! A3    A(2,1,6)              109.5785         estimate D2E/DX2                !
 ! A4    A(3,1,5)              110.0997         estimate D2E/DX2                !
 ! A5    A(3,1,6)              108.7963         estimate D2E/DX2                !
 ! A6    A(5,1,6)              108.3857         estimate D2E/DX2                !
 ! A7    A(1,2,4)              109.4542         estimate D2E/DX2                !
 ! A8    A(1,2,7)              109.6086         estimate D2E/DX2                !
 ! A9    A(1,2,8)              109.5201         estimate D2E/DX2                !
 ! A10   A(4,2,7)              109.5603         estimate D2E/DX2                !
 ! A11   A(4,2,8)              109.5916         estimate D2E/DX2                !
 ! A12   A(7,2,8)              109.0922         estimate D2E/DX2                !
 ! A13   A(1,3,9)              120.4841         estimate D2E/DX2                !
 ! A14   A(1,3,10)             119.9436         estimate D2E/DX2                !
 ! A15   A(9,3,10)             119.572          estimate D2E/DX2                !
 ! A16   A(2,4,11)             106.0856         estimate D2E/DX2                !
 ! D1    D(3,1,2,4)           -179.9068         estimate D2E/DX2                !
 ! D2    D(3,1,2,7)            -59.7236         estimate D2E/DX2                !
 ! D3    D(3,1,2,8)             59.9261         estimate D2E/DX2                !
 ! D4    D(5,1,2,4)             58.6901         estimate D2E/DX2                !
 ! D5    D(5,1,2,7)            178.8733         estimate D2E/DX2                !
 ! D6    D(5,1,2,8)            -61.4769         estimate D2E/DX2                !
 ! D7    D(6,1,2,4)            -59.9934         estimate D2E/DX2                !
 ! D8    D(6,1,2,7)             60.1897         estimate D2E/DX2                !
 ! D9    D(6,1,2,8)            179.8395         estimate D2E/DX2                !
 ! D10   D(2,1,3,9)           -119.1708         estimate D2E/DX2                !
 ! D11   D(2,1,3,10)            61.0418         estimate D2E/DX2                !
 ! D12   D(5,1,3,9)              1.8049         estimate D2E/DX2                !
 ! D13   D(5,1,3,10)          -177.9825         estimate D2E/DX2                !
 ! D14   D(6,1,3,9)            120.4471         estimate D2E/DX2                !
 ! D15   D(6,1,3,10)           -59.3403         estimate D2E/DX2                !
 ! D16   D(1,2,4,11)          -179.9166         estimate D2E/DX2                !
 ! D17   D(7,2,4,11)            59.8708         estimate D2E/DX2                !
 ! D18   D(8,2,4,11)           -59.7932         estimate D2E/DX2                !
 --------------------------------------------------------------------------------
 Trust Radius=3.00D-01 FncErr=1.00D-07 GrdErr=1.00D-06
 Number of steps in this run=     54 maximum allowed number of steps=    100.
 GradGradGradGradGradGradGradGradGradGradGradGradGradGradGradGradGradGrad

                          Input orientation:                          
 ---------------------------------------------------------------------
 Center     Atomic      Atomic             Coordinates (Angstroms)
 Number     Number       Type             X           Y           Z
 ---------------------------------------------------------------------
      1          6           0       -0.433300   -0.252500    0.524300
      2          6           0        0.836200    0.131000   -0.230600
      3          6           0       -1.647600    0.040000   -0.304700
      4          8           0        1.954400   -0.153400    0.562700
      5          1           0       -0.478600    0.312700    1.481400
      6          1           0       -0.413200   -1.338200    0.759100
      7          1           0        0.895700   -0.447900   -1.180100
      8          1           0        0.813700    1.218800   -0.468000
      9          8           0       -2.490600    0.830100    0.089100
     10          1           0       -1.782900   -0.455300   -1.261000
     11          1           0        2.746300    0.114600    0.027900
 ---------------------------------------------------------------------
                    Distance matrix (angstroms):
                    1          2          3          4          5
     1  C    0.000000
     2  C    1.525967   0.000000
     3  C    1.499107   2.486571   0.000000
     4  O    2.390064   1.400207   3.710012   0.000000
     5  H    1.112449   2.166254   2.151994   2.642111   0.000000
     6  H    1.110981   2.167730   2.134209   2.654779   1.803182
     7  H    2.170116   1.113650   2.733632   2.060322   3.090436
     8  H    2.168961   1.113631   2.733905   2.060697   2.508230
     9  O    2.365144   3.414461   1.220650   4.577073   2.500869
    10  H    2.247186   2.874919   1.085421   4.169465   3.132376
    11  H    3.238986   1.927582   4.407102   0.992442   3.542864
                    6          7          8          9         10
     6  H    0.000000
     7  H    2.503268   0.000000
     8  H    3.090195   1.814304   0.000000
     9  O    3.076689   3.835516   3.373403   0.000000
    10  H    2.595457   2.679832   3.189638   1.993956   0.000000
    11  H    3.553551   2.280436   2.280377   5.285906   4.743385
                   11
    11  H    0.000000
 Stoichiometry    C3H6O2
 Framework group  C1[X(C3H6O2)]
 Deg. of freedom    27
 Full point group                 C1      NOp   1
 Largest Abelian subgroup         C1      NOp   1
 Largest concise Abelian subgroup C1      NOp   1
                         Standard orientation:                         
 ---------------------------------------------------------------------
 Center     Atomic      Atomic             Coordinates (Angstroms)
 Number     Number       Type             X           Y           Z
 ---------------------------------------------------------------------
      1          6           0        0.096727   -0.480606    0.304995
      2          6           0       -1.039495    0.454571   -0.098759
      3          6           0        1.404488    0.252217    0.312378
      4          8           0       -2.248347   -0.252005   -0.095971
      5          1           0        0.141472   -1.335350   -0.405606
      6          1           0       -0.094877   -0.881206    1.323370
      7          1           0       -1.100802    1.301171    0.622160
      8          1           0       -0.845013    0.857805   -1.118442
      9          8           0        2.314473   -0.097554   -0.422177
     10          1           0        1.547671    1.098309    0.977032
     11          1           0       -2.947781    0.398648   -0.365012
 ---------------------------------------------------------------------
 Rotational constants (GHZ):     21.4356092      2.2326429      2.1984354
 Standard basis: 6-311+G(2df,2p) (5D, 7F)
 There are   224 symmetry adapted basis functions of A   symmetry.
 Integral buffers will be    131072 words long.
 Raffenetti 2 integral format.
 Two-electron integral symmetry is turned on.
   224 basis functions,   326 primitive gaussians,   249 cartesian basis functions
    20 alpha electrons       20 beta electrons
       nuclear repulsion energy       170.1011763949 Hartrees.
 NAtoms=   11 NActive=   11 NUniq=   11 SFac= 1.00D+00 NAtFMM=   50 NAOKFM=F Big=F
 One-electron integrals computed using PRISM.
 NBasis=   224 RedAO= T  NBF=   224
 NBsUse=   224 1.00D-06 NBFU=   224
 Harris functional with IExCor= 1009 diagonalized for initial guess.
 ExpMin= 4.38D-02 ExpMax= 8.59D+03 ExpMxC= 1.30D+03 IAcc=2 IRadAn=         0 AccDes= 0.00D+00
 HarFok:  IExCor= 1009 AccDes= 0.00D+00 IRadAn=         0 IDoV= 1
 ScaDFX=  1.000000  1.000000  1.000000  1.000000
 FoFCou: FMM=F IPFlag=           0 FMFlag=      100000 FMFlg1=           0
         NFxFlg=           0 DoJE=T BraDBF=F KetDBF=T FulRan=T
         Omega=  0.000000  0.000000  1.000000  0.000000  0.000000 ICntrl=     500 IOpCl=  0
         NMat0=    1 NMatS0=    1 NMatT0=    0 NMatD0=    1 NMtDS0=    0 NMtDT0=    0
         I1Cent=           4 NGrid=           0.
 Petite list used in FoFCou.
 Initial guess orbital symmetries:
       Occupied  (A) (A) (A) (A) (A) (A) (A) (A) (A) (A) (A) (A)
                 (A) (A) (A) (A) (A) (A) (A) (A)
       Virtual   (A) (A) (A) (A) (A) (A) (A) (A) (A) (A) (A) (A)
                 (A) (A) (A) (A) (A) (A) (A) (A) (A) (A) (A) (A)
                 (A) (A) (A) (A) (A) (A) (A) (A) (A) (A) (A) (A)
                 (A) (A) (A) (A) (A) (A) (A) (A) (A) (A) (A) (A)
                 (A) (A) (A) (A) (A) (A) (A) (A) (A) (A) (A) (A)
                 (A) (A) (A) (A) (A) (A) (A) (A) (A) (A) (A) (A)
                 (A) (A) (A) (A) (A) (A) (A) (A) (A) (A) (A) (A)
                 (A) (A) (A) (A) (A) (A) (A) (A) (A) (A) (A) (A)
                 (A) (A) (A) (A) (A) (A) (A) (A) (A) (A) (A) (A)
                 (A) (A) (A) (A) (A) (A) (A) (A) (A) (A) (A) (A)
                 (A) (A) (A) (A) (A) (A) (A) (A) (A) (A) (A) (A)
                 (A) (A) (A) (A) (A) (A) (A) (A) (A) (A) (A) (A)
                 (A) (A) (A) (A) (A) (A) (A) (A) (A) (A) (A) (A)
                 (A) (A) (A) (A) (A) (A) (A) (A) (A) (A) (A) (A)
                 (A) (A) (A) (A) (A) (A) (A) (A) (A) (A) (A) (A)
                 (A) (A) (A) (A) (A) (A) (A) (A) (A) (A) (A) (A)
                 (A) (A) (A) (A) (A) (A) (A) (A) (A) (A) (A) (A)
 The electronic state of the initial guess is 1-A.
 Requested convergence on RMS density matrix=1.00D-08 within 128 cycles.
 Requested convergence on MAX density matrix=1.00D-06.
 Requested convergence on             energy=1.00D-06.
 No special actions if energy rises.
 Keep R1 ints in memory in canonical form, NReq=492516497.
 SCF Done:  E(RM062X) =  -268.330739198     A.U. after   12 cycles
             Convg  =    0.6248D-08             -V/T =  2.0040

 **********************************************************************

            Population analysis using the SCF density.

 **********************************************************************

 Orbital symmetries:
       Occupied  (A) (A) (A) (A) (A) (A) (A) (A) (A) (A) (A) (A)
                 (A) (A) (A) (A) (A) (A) (A) (A)
       Virtual   (A) (A) (A) (A) (A) (A) (A) (A) (A) (A) (A) (A)
                 (A) (A) (A) (A) (A) (A) (A) (A) (A) (A) (A) (A)
                 (A) (A) (A) (A) (A) (A) (A) (A) (A) (A) (A) (A)
                 (A) (A) (A) (A) (A) (A) (A) (A) (A) (A) (A) (A)
                 (A) (A) (A) (A) (A) (A) (A) (A) (A) (A) (A) (A)
                 (A) (A) (A) (A) (A) (A) (A) (A) (A) (A) (A) (A)
                 (A) (A) (A) (A) (A) (A) (A) (A) (A) (A) (A) (A)
                 (A) (A) (A) (A) (A) (A) (A) (A) (A) (A) (A) (A)
                 (A) (A) (A) (A) (A) (A) (A) (A) (A) (A) (A) (A)
                 (A) (A) (A) (A) (A) (A) (A) (A) (A) (A) (A) (A)
                 (A) (A) (A) (A) (A) (A) (A) (A) (A) (A) (A) (A)
                 (A) (A) (A) (A) (A) (A) (A) (A) (A) (A) (A) (A)
                 (A) (A) (A) (A) (A) (A) (A) (A) (A) (A) (A) (A)
                 (A) (A) (A) (A) (A) (A) (A) (A) (A) (A) (A) (A)
                 (A) (A) (A) (A) (A) (A) (A) (A) (A) (A) (A) (A)
                 (A) (A) (A) (A) (A) (A) (A) (A) (A) (A) (A) (A)
                 (A) (A) (A) (A) (A) (A) (A) (A) (A) (A) (A) (A)
 The electronic state is 1-A.
 Alpha  occ. eigenvalues --  -19.64131 -19.63184 -10.63663 -10.60703 -10.55560
 Alpha  occ. eigenvalues --   -1.17308  -1.16290  -0.88775  -0.74280  -0.67663
 Alpha  occ. eigenvalues --   -0.60915  -0.57434  -0.54246  -0.51633  -0.50551
 Alpha  occ. eigenvalues --   -0.46341  -0.44115  -0.41264  -0.36605  -0.33917
 Alpha virt. eigenvalues --   -0.00199   0.00240   0.02151   0.03506   0.03896
 Alpha virt. eigenvalues --    0.06708   0.07186   0.07477   0.08311   0.08872
 Alpha virt. eigenvalues --    0.11478   0.12383   0.14174   0.17583   0.18616
 Alpha virt. eigenvalues --    0.19338   0.20275   0.21994   0.22816   0.24267
 Alpha virt. eigenvalues --    0.24643   0.25013   0.27243   0.28057   0.28669
 Alpha virt. eigenvalues --    0.30601   0.32392   0.33465   0.35960   0.38504
 Alpha virt. eigenvalues --    0.41394   0.43343   0.44844   0.49503   0.49859
 Alpha virt. eigenvalues --    0.51685   0.53105   0.54610   0.57757   0.58939
 Alpha virt. eigenvalues --    0.59807   0.61380   0.62119   0.64085   0.66013
 Alpha virt. eigenvalues --    0.66758   0.67909   0.72357   0.75049   0.77422
 Alpha virt. eigenvalues --    0.78705   0.81375   0.83716   0.87381   0.89723
 Alpha virt. eigenvalues --    0.96611   0.99566   1.02625   1.04813   1.06369
 Alpha virt. eigenvalues --    1.07585   1.10596   1.11749   1.14924   1.15452
 Alpha virt. eigenvalues --    1.16624   1.17169   1.18166   1.20047   1.21329
 Alpha virt. eigenvalues --    1.25685   1.27095   1.29504   1.30023   1.33604
 Alpha virt. eigenvalues --    1.34016   1.38503   1.40552   1.42258   1.43258
 Alpha virt. eigenvalues --    1.46363   1.48282   1.51272   1.53042   1.54985
 Alpha virt. eigenvalues --    1.58097   1.59419   1.66945   1.71283   1.74538
 Alpha virt. eigenvalues --    1.79396   1.88214   1.94405   2.00319   2.09587
 Alpha virt. eigenvalues --    2.11458   2.26089   2.27748   2.35088   2.46810
 Alpha virt. eigenvalues --    2.48045   2.52179   2.56447   2.60727   2.65588
 Alpha virt. eigenvalues --    2.71005   2.76759   2.77854   2.82083   2.83235
 Alpha virt. eigenvalues --    2.88679   2.93050   3.00858   3.02820   3.05679
 Alpha virt. eigenvalues --    3.06787   3.07495   3.12486   3.14934   3.17840
 Alpha virt. eigenvalues --    3.19242   3.23824   3.27796   3.30557   3.34792
 Alpha virt. eigenvalues --    3.36041   3.38377   3.42627   3.45822   3.52500
 Alpha virt. eigenvalues --    3.54357   3.56741   3.60409   3.63586   3.63867
 Alpha virt. eigenvalues --    3.67227   3.69566   3.73690   3.75407   3.79457
 Alpha virt. eigenvalues --    3.86752   3.88255   3.91955   3.94663   3.96893
 Alpha virt. eigenvalues --    3.98934   3.99508   4.11961   4.12456   4.15476
 Alpha virt. eigenvalues --    4.16510   4.18442   4.24817   4.26135   4.28730
 Alpha virt. eigenvalues --    4.35097   4.41249   4.42329   4.47090   4.49638
 Alpha virt. eigenvalues --    4.52033   4.62378   4.71882   4.85632   5.06509
 Alpha virt. eigenvalues --    5.10529   5.11149   5.16092   5.17799   5.20967
 Alpha virt. eigenvalues --    5.26218   5.30883   5.32633   5.43589   5.44051
 Alpha virt. eigenvalues --    5.44465   5.47089   5.49048   5.51370   5.55045
 Alpha virt. eigenvalues --    5.55869   5.78280   5.83833   5.89910   6.22753
 Alpha virt. eigenvalues --    6.51516   6.56146   6.84383   6.89441   6.95565
 Alpha virt. eigenvalues --    7.00535   7.01204   7.17490   7.22088   7.22442
 Alpha virt. eigenvalues --    7.38787   7.48476   7.60196   7.64790  24.25828
 Alpha virt. eigenvalues --   24.41549  24.65167  50.10483  50.22692
          Condensed to atoms (all electrons):
              1          2          3          4          5          6
     1  C    5.498675  -0.057324   0.200933  -0.134234   0.425467   0.455866
     2  C   -0.057324   5.328455  -0.001578   0.178961  -0.014384  -0.063560
     3  C    0.200933  -0.001578   5.009072   0.030783  -0.040131  -0.038512
     4  O   -0.134234   0.178961   0.030783   8.117153   0.003892   0.004528
     5  H    0.425467  -0.014384  -0.040131   0.003892   0.476335  -0.026716
     6  H    0.455866  -0.063560  -0.038512   0.004528  -0.026716   0.517394
     7  H   -0.042440   0.466835  -0.024472  -0.046894   0.005142  -0.009432
     8  H   -0.039317   0.437136   0.004008  -0.042770  -0.007319   0.006049
     9  O   -0.051623  -0.035438   0.362898  -0.001238  -0.005341   0.000476
    10  H   -0.016606   0.011102   0.371850  -0.001335   0.002327  -0.002356
    11  H   -0.003034   0.009379  -0.005478   0.237289  -0.000042  -0.000342
              7          8          9         10         11
     1  C   -0.042440  -0.039317  -0.051623  -0.016606  -0.003034
     2  C    0.466835   0.437136  -0.035438   0.011102   0.009379
     3  C   -0.024472   0.004008   0.362898   0.371850  -0.005478
     4  O   -0.046894  -0.042770  -0.001238  -0.001335   0.237289
     5  H    0.005142  -0.007319  -0.005341   0.002327  -0.000042
     6  H   -0.009432   0.006049   0.000476  -0.002356  -0.000342
     7  H    0.571556  -0.050645   0.001079   0.000129  -0.005949
     8  H   -0.050645   0.552883   0.000490  -0.000251  -0.007662
     9  O    0.001079   0.000490   8.081365  -0.045300   0.000077
    10  H    0.000129  -0.000251  -0.045300   0.535321   0.000113
    11  H   -0.005949  -0.007662   0.000077   0.000113   0.521619
 Mulliken atomic charges:
              1
     1  C   -0.236363
     2  C   -0.259585
     3  C    0.130626
     4  O   -0.346135
     5  H    0.180770
     6  H    0.156606
     7  H    0.135091
     8  H    0.147399
     9  O   -0.307444
    10  H    0.145006
    11  H    0.254028
 Sum of Mulliken atomic charges =   0.00000
 Mulliken charges with hydrogens summed into heavy atoms:
              1
     1  C    0.101014
     2  C    0.022906
     3  C    0.275632
     4  O   -0.092107
     9  O   -0.307444
 Sum of Mulliken charges with hydrogens summed into heavy atoms =   0.00000
 Electronic spatial extent (au):  <R**2>=            542.5904
 Charge=              0.0000 electrons
 Dipole moment (field-independent basis, Debye):
    X=             -2.3984    Y=              2.0852    Z=              1.1087  Tot=              3.3660
 Quadrupole moment (field-independent basis, Debye-Ang):
   XX=            -36.2468   YY=            -29.6462   ZZ=            -29.8965
   XY=             -3.2454   XZ=              4.6724   YZ=             -0.3298
 Traceless Quadrupole moment (field-independent basis, Debye-Ang):
   XX=             -4.3170   YY=              2.2837   ZZ=              2.0333
   XY=             -3.2454   XZ=              4.6724   YZ=             -0.3298
 Octapole moment (field-independent basis, Debye-Ang**2):
  XXX=            -37.7891  YYY=             -0.3956  ZZZ=             -0.7530  XYY=             -0.0879
  XXY=             13.7496  XXZ=              1.1386  XZZ=             -0.8760  YZZ=              0.4101
  YYZ=              0.1340  XYZ=              1.4809
 Hexadecapole moment (field-independent basis, Debye-Ang**3):
 XXXX=           -516.1755 YYYY=            -76.4819 ZZZZ=            -61.2297 XXXY=            -29.4706
 XXXZ=             30.2990 YYYX=             -0.4656 YYYZ=              1.9372 ZZZX=              0.6207
 ZZZY=             -1.4778 XXYY=            -98.3187 XXZZ=            -98.5851 YYZZ=            -21.6204
 XXYZ=             -2.6180 YYXZ=              0.7747 ZZXY=             -0.2692
 N-N= 1.701011763949D+02 E-N=-9.690065828035D+02  KE= 2.672506807800D+02
 Calling FoFJK, ICntrl=      2127 FMM=F ISym2X=0 I1Cent= 0 IOpClX= 0 NMat=1 NMatS=1 NMatT=0.
 ***** Axes restored to original set *****
 -------------------------------------------------------------------
 Center     Atomic                   Forces (Hartrees/Bohr)
 Number     Number              X              Y              Z
 -------------------------------------------------------------------
      1        6           0.008675473   -0.005212512    0.010157292
      2        6          -0.005777422    0.003541031   -0.014287737
      3        6          -0.022810491    0.031713240    0.032341974
      4        8           0.029417321    0.006457546   -0.013394347
      5        1          -0.002472199   -0.007344156   -0.013682161
      6        1           0.001945403    0.009891343   -0.002996877
      7        1          -0.002994324    0.007868972    0.006899810
      8        1          -0.002814010   -0.011400995   -0.000074258
      9        8           0.016226795   -0.019299096   -0.015662019
     10        1           0.001987220   -0.006634844   -0.009724927
     11        1          -0.021383764   -0.009580529    0.020423248
 -------------------------------------------------------------------
 Cartesian Forces:  Max     0.032341974 RMS     0.014268235

 GradGradGradGradGradGradGradGradGradGradGradGradGradGradGradGradGradGrad
 Berny optimization.
 Internal  Forces:  Max     0.030652509 RMS     0.008468382
 Search for a local minimum.
 Step number   1 out of a maximum of   54
 All quantities printed in internal units (Hartrees-Bohrs-Radians)
 Swaping is turned off.
 Second derivative matrix not updated -- first step.
 ITU=  0
     Eigenvalues ---    0.00422   0.00778   0.00778   0.01689   0.04433
     Eigenvalues ---    0.05282   0.05551   0.05941   0.09073   0.11367
     Eigenvalues ---    0.12614   0.13764   0.16000   0.16000   0.21966
     Eigenvalues ---    0.22000   0.22058   0.29799   0.32217   0.32219
     Eigenvalues ---    0.32342   0.32471   0.32496   0.35347   0.45586
     Eigenvalues ---    0.49042   0.95096
 Angle between quadratic step and forces=  54.78 degrees.
 Linear search not attempted -- option 19 set.
 Iteration  1 RMS(Cart)=  0.04888070 RMS(Int)=  0.00213356
 Iteration  2 RMS(Cart)=  0.00257765 RMS(Int)=  0.00032366
 Iteration  3 RMS(Cart)=  0.00000479 RMS(Int)=  0.00032363
 Iteration  4 RMS(Cart)=  0.00000000 RMS(Int)=  0.00032363
 Variable       Old X    -DE/DX   Delta X   Delta X   Delta X     New X
                                 (Linear)    (Quad)   (Total)
    R1        2.88366  -0.00352   0.00000  -0.01181  -0.01181   2.87185
    R2        2.83290   0.00100   0.00000   0.00308   0.00308   2.83598
    R3        2.10222  -0.01541   0.00000  -0.04765  -0.04765   2.05458
    R4        2.09945  -0.01026   0.00000  -0.03156  -0.03156   2.06789
    R5        2.64601   0.01103   0.00000   0.02419   0.02419   2.67020
    R6        2.10449  -0.01013   0.00000  -0.03146  -0.03146   2.07304
    R7        2.10446  -0.01106   0.00000  -0.03433  -0.03433   2.07013
    R8        2.30669  -0.02874   0.00000  -0.03022  -0.03022   2.27647
    R9        2.05115   0.01134   0.00000   0.03207   0.03207   2.08322
   R10        1.87544  -0.03065   0.00000  -0.06250  -0.06250   1.81294
    A1        1.92973   0.00226   0.00000   0.00945   0.00944   1.93917
    A2        1.90902   0.00216   0.00000   0.02237   0.02247   1.93149
    A3        1.91251  -0.00304   0.00000  -0.02313  -0.02306   1.88945
    A4        1.92160  -0.00304   0.00000  -0.02064  -0.02075   1.90085
    A5        1.89885   0.00087   0.00000   0.00534   0.00537   1.90422
    A6        1.89169   0.00074   0.00000   0.00626   0.00637   1.89806
    A7        1.91034  -0.00770   0.00000  -0.03043  -0.03028   1.88006
    A8        1.91303   0.00116   0.00000  -0.00127  -0.00113   1.91190
    A9        1.91149  -0.00037   0.00000  -0.01357  -0.01343   1.89805
   A10        1.91219   0.00407   0.00000   0.03175   0.03160   1.94379
   A11        1.91273   0.00488   0.00000   0.03589   0.03561   1.94835
   A12        1.90402  -0.00201   0.00000  -0.02226  -0.02280   1.88122
   A13        2.10284   0.01377   0.00000   0.06267   0.06159   2.16444
   A14        2.09341  -0.01064   0.00000  -0.05466  -0.05573   2.03768
   A15        2.08693  -0.00313   0.00000  -0.00773  -0.00881   2.07812
   A16        1.85154   0.00962   0.00000   0.06014   0.06014   1.91168
    D1       -3.13997  -0.00025   0.00000   0.05138   0.05148  -3.08849
    D2       -1.04237   0.00071   0.00000   0.07077   0.07080  -0.97158
    D3        1.04591  -0.00127   0.00000   0.03443   0.03447   1.08038
    D4        1.02434   0.00068   0.00000   0.05639   0.05636   1.08069
    D5        3.12193   0.00164   0.00000   0.07578   0.07567  -3.08558
    D6       -1.07297  -0.00034   0.00000   0.03944   0.03934  -1.03363
    D7       -1.04708   0.00030   0.00000   0.04917   0.04924  -0.99785
    D8        1.05051   0.00126   0.00000   0.06856   0.06855   1.11906
    D9        3.13879  -0.00071   0.00000   0.03222   0.03222  -3.11217
   D10       -2.07992  -0.00093   0.00000   0.03730   0.03733  -2.04259
   D11        1.06538  -0.00161   0.00000  -0.05000  -0.04992   1.01546
   D12        0.03150   0.00124   0.00000   0.05789   0.05780   0.08930
   D13       -3.10638   0.00056   0.00000  -0.02941  -0.02944  -3.13582
   D14        2.10220   0.00087   0.00000   0.05659   0.05657   2.15877
   D15       -1.03568   0.00019   0.00000  -0.03070  -0.03068  -1.06636
   D16       -3.14014   0.00057   0.00000   0.01090   0.01096  -3.12917
   D17        1.04494   0.00139   0.00000   0.01168   0.01218   1.05713
   D18       -1.04359  -0.00163   0.00000  -0.00244  -0.00300  -1.04659
         Item               Value     Threshold  Converged?
 Maximum Force            0.030653     0.000002     NO 
 RMS     Force            0.008468     0.000001     NO 
 Maximum Displacement     0.126861     0.000006     NO 
 RMS     Displacement     0.049313     0.000004     NO 
 Predicted change in Energy=-4.233940D-03
 GradGradGradGradGradGradGradGradGradGradGradGradGradGradGradGradGradGrad

                          Input orientation:                          
 ---------------------------------------------------------------------
 Center     Atomic      Atomic             Coordinates (Angstroms)
 Number     Number       Type             X           Y           Z
 ---------------------------------------------------------------------
      1          6           0       -0.418362   -0.234501    0.532005
      2          6           0        0.828626    0.149102   -0.247364
      3          6           0       -1.659232    0.029307   -0.269778
      4          8           0        1.950488   -0.192602    0.540834
      5          1           0       -0.475448    0.323369    1.463456
      6          1           0       -0.362416   -1.302355    0.764408
      7          1           0        0.838560   -0.380768   -1.207862
      8          1           0        0.795429    1.223560   -0.458268
      9          8           0       -2.513356    0.816423    0.049777
     10          1           0       -1.738569   -0.481096   -1.243669
     11          1           0        2.754380    0.049461    0.076563
 ---------------------------------------------------------------------
                    Distance matrix (angstroms):
                    1          2          3          4          5
     1  C    0.000000
     2  C    1.519720   0.000000
     3  C    1.500736   2.490841   0.000000
     4  O    2.369237   1.413008   3.706267   0.000000
     5  H    1.087235   2.158213   2.119414   2.646248   0.000000
     6  H    1.094282   2.132837   2.127109   2.575085   1.773252
     7  H    2.151368   1.097004   2.699468   2.080799   3.059145
     8  H    2.140063   1.095464   2.736262   2.082758   2.473560
     9  O    2.392904   3.420885   1.204656   4.602736   2.528766
    10  H    2.226382   2.824936   1.102392   4.108141   3.093730
    11  H    3.217819   1.955348   4.427226   0.959367   3.525662
                    6          7          8          9         10
     6  H    0.000000
     7  H    2.486265   0.000000
     8  H    3.035751   1.771332   0.000000
     9  O    3.102654   3.774952   3.372229   0.000000
    10  H    2.569171   2.579330   3.153387   1.989184   0.000000
    11  H    3.466260   2.346319   2.345643   5.323345   4.712865
                   11
    11  H    0.000000
 Stoichiometry    C3H6O2
 Framework group  C1[X(C3H6O2)]
 Deg. of freedom    27
 Full point group                 C1      NOp   1
 Largest Abelian subgroup         C1      NOp   1
 Largest concise Abelian subgroup C1      NOp   1
                         Standard orientation:                         
 ---------------------------------------------------------------------
 Center     Atomic      Atomic             Coordinates (Angstroms)
 Number     Number       Type             X           Y           Z
 ---------------------------------------------------------------------
      1          6           0        0.076857   -0.510527    0.236117
      2          6           0       -1.031564    0.477847   -0.086476
      3          6           0        1.405746    0.180164    0.332088
      4          8           0       -2.253259   -0.232113   -0.089961
      5          1           0        0.135680   -1.283395   -0.526309
      6          1           0       -0.152403   -0.981113    1.197076
      7          1           0       -1.037407    1.279848    0.661973
      8          1           0       -0.825582    0.931922   -1.061887
      9          8           0        2.334936   -0.041441   -0.401870
     10          1           0        1.491858    0.989256    1.075877
     11          1           0       -2.971785    0.367013   -0.302458
 ---------------------------------------------------------------------
 Rotational constants (GHZ):     22.2632384      2.2252996      2.1856568
 Standard basis: 6-311+G(2df,2p) (5D, 7F)
 There are   224 symmetry adapted basis functions of A   symmetry.
 Integral buffers will be    131072 words long.
 Raffenetti 2 integral format.
 Two-electron integral symmetry is turned on.
   224 basis functions,   326 primitive gaussians,   249 cartesian basis functions
    20 alpha electrons       20 beta electrons
       nuclear repulsion energy       170.6109274752 Hartrees.
 NAtoms=   11 NActive=   11 NUniq=   11 SFac= 1.00D+00 NAtFMM=   50 NAOKFM=F Big=F
 One-electron integrals computed using PRISM.
 NBasis=   224 RedAO= T  NBF=   224
 NBsUse=   224 1.00D-06 NBFU=   224
 Initial guess read from the read-write file.
 B after Tr=     0.000000    0.000000    0.000000
         Rot=    1.000000    0.000000    0.000000    0.000000 Ang=   0.00 deg.
 Initial guess orbital symmetries:
       Occupied  (A) (A) (A) (A) (A) (A) (A) (A) (A) (A) (A) (A)
                 (A) (A) (A) (A) (A) (A) (A) (A)
       Virtual   (A) (A) (A) (A) (A) (A) (A) (A) (A) (A) (A) (A)
                 (A) (A) (A) (A) (A) (A) (A) (A) (A) (A) (A) (A)
                 (A) (A) (A) (A) (A) (A) (A) (A) (A) (A) (A) (A)
                 (A) (A) (A) (A) (A) (A) (A) (A) (A) (A) (A) (A)
                 (A) (A) (A) (A) (A) (A) (A) (A) (A) (A) (A) (A)
                 (A) (A) (A) (A) (A) (A) (A) (A) (A) (A) (A) (A)
                 (A) (A) (A) (A) (A) (A) (A) (A) (A) (A) (A) (A)
                 (A) (A) (A) (A) (A) (A) (A) (A) (A) (A) (A) (A)
                 (A) (A) (A) (A) (A) (A) (A) (A) (A) (A) (A) (A)
                 (A) (A) (A) (A) (A) (A) (A) (A) (A) (A) (A) (A)
                 (A) (A) (A) (A) (A) (A) (A) (A) (A) (A) (A) (A)
                 (A) (A) (A) (A) (A) (A) (A) (A) (A) (A) (A) (A)
                 (A) (A) (A) (A) (A) (A) (A) (A) (A) (A) (A) (A)
                 (A) (A) (A) (A) (A) (A) (A) (A) (A) (A) (A) (A)
                 (A) (A) (A) (A) (A) (A) (A) (A) (A) (A) (A) (A)
                 (A) (A) (A) (A) (A) (A) (A) (A) (A) (A) (A) (A)
                 (A) (A) (A) (A) (A) (A) (A) (A) (A) (A) (A) (A)
 Harris functional with IExCor= 1009 diagonalized for initial guess.
 ExpMin= 4.38D-02 ExpMax= 8.59D+03 ExpMxC= 1.30D+03 IAcc=2 IRadAn=         0 AccDes= 0.00D+00
 HarFok:  IExCor= 1009 AccDes= 0.00D+00 IRadAn=         0 IDoV= 1
 ScaDFX=  1.000000  1.000000  1.000000  1.000000
 FoFCou: FMM=F IPFlag=           0 FMFlag=      100000 FMFlg1=           0
         NFxFlg=           0 DoJE=T BraDBF=F KetDBF=T FulRan=T
         Omega=  0.000000  0.000000  1.000000  0.000000  0.000000 ICntrl=     500 IOpCl=  0
         NMat0=    1 NMatS0=    1 NMatT0=    0 NMatD0=    1 NMtDS0=    0 NMtDT0=    0
         I1Cent=           4 NGrid=           0.
 Petite list used in FoFCou.
 Requested convergence on RMS density matrix=1.00D-08 within 128 cycles.
 Requested convergence on MAX density matrix=1.00D-06.
 Requested convergence on             energy=1.00D-06.
 No special actions if energy rises.
 Keep R1 ints in memory in canonical form, NReq=492516497.
 SCF Done:  E(RM062X) =  -268.335003702     A.U. after   12 cycles
             Convg  =    0.8596D-08             -V/T =  2.0035
 Calling FoFJK, ICntrl=      2127 FMM=F ISym2X=0 I1Cent= 0 IOpClX= 0 NMat=1 NMatS=1 NMatT=0.
 ***** Axes restored to original set *****
 -------------------------------------------------------------------
 Center     Atomic                   Forces (Hartrees/Bohr)
 Number     Number              X              Y              Z
 -------------------------------------------------------------------
      1        6          -0.000581347   -0.003679565    0.003062647
      2        6          -0.001607837    0.001125787   -0.001700197
      3        6          -0.003985628    0.013885150    0.000088232
      4        8          -0.001388788    0.000138708   -0.001434509
      5        1           0.000231891    0.000425633    0.000666096
      6        1           0.000067699    0.000157690   -0.000312939
      7        1           0.001038045    0.000060015    0.000659983
      8        1           0.002027863   -0.000249418    0.000260337
      9        8           0.004819045   -0.007244419   -0.000285097
     10        1           0.000156004   -0.004672449   -0.001256579
     11        1          -0.000776947    0.000052867    0.000252027
 -------------------------------------------------------------------
 Cartesian Forces:  Max     0.013885150 RMS     0.003252749

 GradGradGradGradGradGradGradGradGradGradGradGradGradGradGradGradGradGrad
 Berny optimization.
 Using GDIIS optimizer.
 Internal  Forces:  Max     0.008234057 RMS     0.001727322
 Search for a local minimum.
 Step number   2 out of a maximum of   54
 All quantities printed in internal units (Hartrees-Bohrs-Radians)
 Swaping is turned off.
 Update second derivatives using D2CorX and points    1    2
 DE= -4.26D-03 DEPred=-4.23D-03 R= 1.01D+00
 SS=  1.41D+00  RLast= 2.61D-01 DXNew= 5.0454D-01 7.8286D-01
 Trust test= 1.01D+00 RLast= 2.61D-01 DXMaxT set to 5.05D-01
 ITU=  1  0
     Eigenvalues ---    0.00412   0.00777   0.00888   0.01688   0.04377
     Eigenvalues ---    0.05428   0.05534   0.06200   0.09163   0.11228
     Eigenvalues ---    0.12718   0.13663   0.15361   0.16259   0.21140
     Eigenvalues ---    0.21989   0.22388   0.29848   0.31725   0.32219
     Eigenvalues ---    0.32435   0.32466   0.32567   0.34854   0.46111
     Eigenvalues ---    0.48715   0.90758
 DIIS coeff's:      0.99346      0.00654
 Cosine:  1.000 >  0.970
 Length:  1.000
 GDIIS step was calculated using  2 of the last  2 vectors.
 Iteration  1 RMS(Cart)=  0.07463945 RMS(Int)=  0.01120673
 Iteration  2 RMS(Cart)=  0.00914777 RMS(Int)=  0.00625545
 Iteration  3 RMS(Cart)=  0.00012863 RMS(Int)=  0.00625418
 Iteration  4 RMS(Cart)=  0.00000134 RMS(Int)=  0.00625418
 Iteration  5 RMS(Cart)=  0.00000002 RMS(Int)=  0.00625418
 Variable       Old X    -DE/DX   Delta X   Delta X   Delta X     New X
                                  (DIIS)     (GDIIS)  (Total)
    R1        2.87185   0.00071   0.00008  -0.00153  -0.00145   2.87040
    R2        2.83598   0.00031  -0.00002   0.00195   0.00193   2.83791
    R3        2.05458   0.00078   0.00031  -0.01332  -0.01301   2.04156
    R4        2.06789  -0.00022   0.00021  -0.01107  -0.01086   2.05703
    R5        2.67020  -0.00243  -0.00016   0.00269   0.00253   2.67273
    R6        2.07304  -0.00060   0.00021  -0.01222  -0.01202   2.06102
    R7        2.07013  -0.00035   0.00022  -0.01241  -0.01218   2.05794
    R8        2.27647  -0.00823   0.00020  -0.01857  -0.01837   2.25810
    R9        2.08322   0.00327  -0.00021   0.01977   0.01956   2.10278
   R10        1.81294  -0.00076   0.00041  -0.02215  -0.02174   1.79120
    A1        1.93917  -0.00163  -0.00006  -0.00514  -0.00523   1.93394
    A2        1.93149   0.00025  -0.00015   0.00934   0.00921   1.94070
    A3        1.88945   0.00034   0.00015  -0.00910  -0.00898   1.88047
    A4        1.90085   0.00094   0.00014   0.00097   0.00111   1.90197
    A5        1.90422   0.00022  -0.00004  -0.00084  -0.00094   1.90328
    A6        1.89806  -0.00010  -0.00004   0.00484   0.00482   1.90288
    A7        1.88006  -0.00156   0.00020  -0.01873  -0.01850   1.86156
    A8        1.91190   0.00100   0.00001   0.00719   0.00715   1.91905
    A9        1.89805   0.00209   0.00009   0.01297   0.01304   1.91109
   A10        1.94379  -0.00033  -0.00021   0.00086   0.00067   1.94446
   A11        1.94835  -0.00072  -0.00023   0.00220   0.00204   1.95038
   A12        1.88122  -0.00036   0.00015  -0.00378  -0.00371   1.87751
   A13        2.16444   0.00054  -0.00040   0.02966   0.00607   2.17051
   A14        2.03768  -0.00220   0.00036  -0.02080  -0.04388   1.99380
   A15        2.07812   0.00190   0.00006   0.02020  -0.00431   2.07380
   A16        1.91168  -0.00045  -0.00039   0.01702   0.01663   1.92831
    D1       -3.08849   0.00047  -0.00034   0.06048   0.06011  -3.02837
    D2       -0.97158  -0.00030  -0.00046   0.05435   0.05384  -0.91774
    D3        1.08038   0.00105  -0.00023   0.06137   0.06117   1.14155
    D4        1.08069   0.00021  -0.00037   0.05638   0.05599   1.13669
    D5       -3.08558  -0.00056  -0.00050   0.05024   0.04972  -3.03587
    D6       -1.03363   0.00078  -0.00026   0.05727   0.05705  -0.97658
    D7       -0.99785  -0.00002  -0.00032   0.05059   0.05027  -0.94757
    D8        1.11906  -0.00079  -0.00045   0.04445   0.04400   1.16306
    D9       -3.11217   0.00055  -0.00021   0.05148   0.05133  -3.06084
   D10       -2.04259  -0.00182  -0.00024  -0.20431  -0.20232  -2.24491
   D11        1.01546   0.00171   0.00033   0.20639   0.20449   1.21995
   D12        0.08930  -0.00193  -0.00038  -0.19529  -0.19343  -0.10413
   D13       -3.13582   0.00160   0.00019   0.21541   0.21337  -2.92245
   D14        2.15877  -0.00138  -0.00037  -0.18937  -0.18751   1.97126
   D15       -1.06636   0.00215   0.00020   0.22133   0.21929  -0.84707
   D16       -3.12917  -0.00026  -0.00007   0.00600   0.00593  -3.12324
   D17        1.05713  -0.00030  -0.00008   0.00860   0.00849   1.06562
   D18       -1.04659   0.00089   0.00002   0.01133   0.01137  -1.03522
         Item               Value     Threshold  Converged?
 Maximum Force            0.008234     0.000002     NO 
 RMS     Force            0.001727     0.000001     NO 
 Maximum Displacement     0.211827     0.000006     NO 
 RMS     Displacement     0.076557     0.000004     NO 
 Predicted change in Energy=-1.309663D-03
 GradGradGradGradGradGradGradGradGradGradGradGradGradGradGradGradGradGrad

                          Input orientation:                          
 ---------------------------------------------------------------------
 Center     Atomic      Atomic             Coordinates (Angstroms)
 Number     Number       Type             X           Y           Z
 ---------------------------------------------------------------------
      1          6           0       -0.413237   -0.187328    0.512545
      2          6           0        0.844628    0.182014   -0.254644
      3          6           0       -1.639632    0.089545   -0.308777
      4          8           0        1.939430   -0.251033    0.529102
      5          1           0       -0.480363    0.362137    1.440303
      6          1           0       -0.366467   -1.252205    0.733357
      7          1           0        0.839400   -0.300834   -1.232568
      8          1           0        0.867017    1.258255   -0.419452
      9          8           0       -2.577653    0.724009    0.072595
     10          1           0       -1.771303   -0.593189   -1.177528
     11          1           0        2.758281   -0.031472    0.105165
 ---------------------------------------------------------------------
                    Distance matrix (angstroms):
                    1          2          3          4          5
     1  C    0.000000
     2  C    1.518953   0.000000
     3  C    1.501757   2.486570   0.000000
     4  O    2.353588   1.414348   3.691575   0.000000
     5  H    1.080349   2.158910   2.116008   2.657380   0.000000
     6  H    1.088535   2.121293   2.123037   2.522148   1.766025
     7  H    2.151140   1.090644   2.674207   2.077506   3.053776
     8  H    2.144151   1.089017   2.767927   2.080331   2.465188
     9  O    2.389308   3.480352   1.194936   4.643614   2.529862
    10  H    2.205769   2.880235   1.112741   4.098683   3.071191
    11  H    3.201371   1.958854   4.419009   0.947864   3.525102
                    6          7          8          9         10
     6  H    0.000000
     7  H    2.494812   0.000000
     8  H    3.025370   1.758601   0.000000
     9  O    3.038317   3.798684   3.520409   0.000000
    10  H    2.461575   2.627598   3.311082   1.986963   0.000000
    11  H    3.413044   2.354611   2.348510   5.389249   4.741093
                   11
    11  H    0.000000
 Stoichiometry    C3H6O2
 Framework group  C1[X(C3H6O2)]
 Deg. of freedom    27
 Full point group                 C1      NOp   1
 Largest Abelian subgroup         C1      NOp   1
 Largest concise Abelian subgroup C1      NOp   1
                         Standard orientation:                         
 ---------------------------------------------------------------------
 Center     Atomic      Atomic             Coordinates (Angstroms)
 Number     Number       Type             X           Y           Z
 ---------------------------------------------------------------------
      1          6           0        0.076923   -0.475521    0.201096
      2          6           0       -1.052909    0.479631   -0.142972
      3          6           0        1.390563    0.250100    0.256765
      4          8           0       -2.255539   -0.255053   -0.023389
      5          1           0        0.147235   -1.274274   -0.522923
      6          1           0       -0.135390   -0.901565    1.180033
      7          1           0       -1.038557    1.333061    0.535966
      8          1           0       -0.911663    0.860800   -1.153278
      9          8           0        2.375235   -0.091895   -0.327472
     10          1           0        1.493226    0.943291    1.121137
     11          1           0       -2.999879    0.289014   -0.243378
 ---------------------------------------------------------------------
 Rotational constants (GHZ):     23.8637958      2.2051339      2.1531413
 Standard basis: 6-311+G(2df,2p) (5D, 7F)
 There are   224 symmetry adapted basis functions of A   symmetry.
 Integral buffers will be    131072 words long.
 Raffenetti 2 integral format.
 Two-electron integral symmetry is turned on.
   224 basis functions,   326 primitive gaussians,   249 cartesian basis functions
    20 alpha electrons       20 beta electrons
       nuclear repulsion energy       170.7973873771 Hartrees.
 NAtoms=   11 NActive=   11 NUniq=   11 SFac= 1.00D+00 NAtFMM=   50 NAOKFM=F Big=F
 One-electron integrals computed using PRISM.
 NBasis=   224 RedAO= T  NBF=   224
 NBsUse=   224 1.00D-06 NBFU=   224
 Initial guess read from the read-write file.
 B after Tr=     0.000000    0.000000    0.000000
         Rot=    1.000000    0.000000    0.000000    0.000000 Ang=   0.00 deg.
 Initial guess orbital symmetries:
       Occupied  (A) (A) (A) (A) (A) (A) (A) (A) (A) (A) (A) (A)
                 (A) (A) (A) (A) (A) (A) (A) (A)
       Virtual   (A) (A) (A) (A) (A) (A) (A) (A) (A) (A) (A) (A)
                 (A) (A) (A) (A) (A) (A) (A) (A) (A) (A) (A) (A)
                 (A) (A) (A) (A) (A) (A) (A) (A) (A) (A) (A) (A)
                 (A) (A) (A) (A) (A) (A) (A) (A) (A) (A) (A) (A)
                 (A) (A) (A) (A) (A) (A) (A) (A) (A) (A) (A) (A)
                 (A) (A) (A) (A) (A) (A) (A) (A) (A) (A) (A) (A)
                 (A) (A) (A) (A) (A) (A) (A) (A) (A) (A) (A) (A)
                 (A) (A) (A) (A) (A) (A) (A) (A) (A) (A) (A) (A)
                 (A) (A) (A) (A) (A) (A) (A) (A) (A) (A) (A) (A)
                 (A) (A) (A) (A) (A) (A) (A) (A) (A) (A) (A) (A)
                 (A) (A) (A) (A) (A) (A) (A) (A) (A) (A) (A) (A)
                 (A) (A) (A) (A) (A) (A) (A) (A) (A) (A) (A) (A)
                 (A) (A) (A) (A) (A) (A) (A) (A) (A) (A) (A) (A)
                 (A) (A) (A) (A) (A) (A) (A) (A) (A) (A) (A) (A)
                 (A) (A) (A) (A) (A) (A) (A) (A) (A) (A) (A) (A)
                 (A) (A) (A) (A) (A) (A) (A) (A) (A) (A) (A) (A)
                 (A) (A) (A) (A) (A) (A) (A) (A) (A) (A) (A) (A)
 Harris functional with IExCor= 1009 diagonalized for initial guess.
 ExpMin= 4.38D-02 ExpMax= 8.59D+03 ExpMxC= 1.30D+03 IAcc=2 IRadAn=         0 AccDes= 0.00D+00
 HarFok:  IExCor= 1009 AccDes= 0.00D+00 IRadAn=         0 IDoV= 1
 ScaDFX=  1.000000  1.000000  1.000000  1.000000
 FoFCou: FMM=F IPFlag=           0 FMFlag=      100000 FMFlg1=           0
         NFxFlg=           0 DoJE=T BraDBF=F KetDBF=T FulRan=T
         Omega=  0.000000  0.000000  1.000000  0.000000  0.000000 ICntrl=     500 IOpCl=  0
         NMat0=    1 NMatS0=    1 NMatT0=    0 NMatD0=    1 NMtDS0=    0 NMtDT0=    0
         I1Cent=           4 NGrid=           0.
 Petite list used in FoFCou.
 Requested convergence on RMS density matrix=1.00D-08 within 128 cycles.
 Requested convergence on MAX density matrix=1.00D-06.
 Requested convergence on             energy=1.00D-06.
 No special actions if energy rises.
 Keep R1 ints in memory in canonical form, NReq=492516497.
 SCF Done:  E(RM062X) =  -268.330860343     A.U. after   12 cycles
             Convg  =    0.8617D-08             -V/T =  2.0031
 Calling FoFJK, ICntrl=      2127 FMM=F ISym2X=0 I1Cent= 0 IOpClX= 0 NMat=1 NMatS=1 NMatT=0.
 ***** Axes restored to original set *****
 -------------------------------------------------------------------
 Center     Atomic                   Forces (Hartrees/Bohr)
 Number     Number              X              Y              Z
 -------------------------------------------------------------------
      1        6           0.006239339    0.012021238   -0.008871157
      2        6           0.001673914   -0.002313588    0.006136425
      3        6          -0.012943616   -0.036843494    0.013253916
      4        8          -0.009811345   -0.002247558    0.003875818
      5        1           0.001083205    0.002860511    0.004713944
      6        1          -0.002857920   -0.003159412   -0.000964155
      7        1           0.000634621   -0.002437106   -0.002556275
      8        1           0.001663486    0.003568159    0.000350266
      9        8          -0.000841310    0.015186206   -0.002518969
     10        1           0.005652224    0.010106327   -0.007416902
     11        1           0.009507403    0.003258717   -0.006002912
 -------------------------------------------------------------------
 Cartesian Forces:  Max     0.036843494 RMS     0.009158370

 GradGradGradGradGradGradGradGradGradGradGradGradGradGradGradGradGradGrad
 Berny optimization.
 Using GDIIS optimizer.
 Internal  Forces:  Max     0.011660581 RMS     0.004298541
 Search for a local minimum.
 Step number   3 out of a maximum of   54
 All quantities printed in internal units (Hartrees-Bohrs-Radians)
 Swaping is turned off.
 Update second derivatives using D2CorX and points    1    2    3
 DE=  4.14D-03 DEPred=-1.31D-03 R=-3.16D+00
 Trust test=-3.16D+00 RLast= 5.29D-01 DXMaxT set to 2.52D-01
 ITU= -1  1  0
     Eigenvalues ---    0.00385   0.00778   0.01684   0.04196   0.04570
     Eigenvalues ---    0.05503   0.05529   0.06142   0.09123   0.11056
     Eigenvalues ---    0.12542   0.13094   0.13673   0.16205   0.19082
     Eigenvalues ---    0.22033   0.22667   0.28673   0.29862   0.32219
     Eigenvalues ---    0.32321   0.32464   0.32637   0.34770   0.45488
     Eigenvalues ---    0.46406   0.87472
 DIIS coeff's:      0.19109      0.83386     -0.02495
 Cosine:  0.999 >  0.840
 Length:  1.022
 GDIIS step was calculated using  3 of the last  3 vectors.
 Iteration  1 RMS(Cart)=  0.04981955 RMS(Int)=  0.00513662
 Iteration  2 RMS(Cart)=  0.00513613 RMS(Int)=  0.00078427
 Iteration  3 RMS(Cart)=  0.00003071 RMS(Int)=  0.00078382
 Iteration  4 RMS(Cart)=  0.00000000 RMS(Int)=  0.00078382
 Variable       Old X    -DE/DX   Delta X   Delta X   Delta X     New X
                                  (DIIS)     (GDIIS)  (Total)
    R1        2.87040   0.00210   0.00088   0.00281   0.00369   2.87409
    R2        2.83791   0.00268  -0.00148   0.00241   0.00093   2.83884
    R3        2.04156   0.00544   0.00934   0.00311   0.01244   2.05401
    R4        2.05703   0.00277   0.00800  -0.00034   0.00766   2.06469
    R5        2.67273  -0.00174  -0.00144  -0.00423  -0.00567   2.66706
    R6        2.06102   0.00337   0.00894  -0.00101   0.00793   2.06895
    R7        2.05794   0.00351   0.00900  -0.00039   0.00861   2.06655
    R8        2.25810   0.00792   0.01410  -0.00714   0.00697   2.26507
    R9        2.10278  -0.00108  -0.01502   0.00866  -0.00636   2.09642
   R10        1.79120   0.01166   0.01602   0.00037   0.01640   1.80760
    A1        1.93394   0.00508   0.00447  -0.00244   0.00205   1.93598
    A2        1.94070  -0.00250  -0.00689   0.00164  -0.00527   1.93543
    A3        1.88047   0.00049   0.00669  -0.00180   0.00492   1.88539
    A4        1.90197   0.00017  -0.00142   0.00853   0.00711   1.90907
    A5        1.90328  -0.00439   0.00090  -0.00936  -0.00841   1.89487
    A6        1.90288   0.00103  -0.00374   0.00310  -0.00064   1.90224
    A7        1.86156   0.00385   0.01421  -0.00584   0.00836   1.86992
    A8        1.91905  -0.00089  -0.00581   0.00618   0.00043   1.91948
    A9        1.91109   0.00023  -0.01088   0.01575   0.00491   1.91600
   A10        1.94446  -0.00176   0.00025  -0.00933  -0.00911   1.93535
   A11        1.95038  -0.00222  -0.00076  -0.00946  -0.01031   1.94008
   A12        1.87751   0.00077   0.00243   0.00338   0.00581   1.88332
   A13        2.17051   0.00100  -0.00337   0.00410   0.00373   2.17423
   A14        1.99380   0.00393   0.03410  -0.01069   0.02641   2.02021
   A15        2.07380  -0.00008   0.00327   0.00856   0.01483   2.08864
   A16        1.92831  -0.00202  -0.01195  -0.00220  -0.01415   1.91416
    D1       -3.02837   0.00146  -0.04734   0.04680  -0.00052  -3.02889
    D2       -0.91774   0.00116  -0.04178   0.03553  -0.00622  -0.92396
    D3        1.14155   0.00171  -0.04862   0.05275   0.00411   1.14565
    D4        1.13669  -0.00054  -0.04389   0.03651  -0.00735   1.12933
    D5       -3.03587  -0.00084  -0.03833   0.02525  -0.01306  -3.04893
    D6       -0.97658  -0.00029  -0.04517   0.04247  -0.00273  -0.97931
    D7       -0.94757  -0.00064  -0.03944   0.03289  -0.00654  -0.95411
    D8        1.16306  -0.00093  -0.03388   0.02162  -0.01225   1.15081
    D9       -3.06084  -0.00039  -0.04072   0.03885  -0.00192  -3.06276
   D10       -2.24491   0.00842   0.16459  -0.00034   0.16425  -2.08066
   D11        1.21995  -0.00847  -0.16666  -0.00851  -0.17518   1.04477
   D12       -0.10413   0.00872   0.15791   0.00585   0.16378   0.05965
   D13       -2.92245  -0.00817  -0.17333  -0.00231  -0.17565  -3.09810
   D14        1.97126   0.00750   0.15309   0.00911   0.16221   2.13347
   D15       -0.84707  -0.00938  -0.17815   0.00095  -0.17722  -1.02428
   D16       -3.12324  -0.00030  -0.00453   0.00264  -0.00188  -3.12512
   D17        1.06562  -0.00063  -0.00657   0.00412  -0.00237   1.06325
   D18       -1.03522   0.00113  -0.00927   0.01277   0.00341  -1.03181
         Item               Value     Threshold  Converged?
 Maximum Force            0.011661     0.000002     NO 
 RMS     Force            0.004299     0.000001     NO 
 Maximum Displacement     0.121481     0.000006     NO 
 RMS     Displacement     0.050121     0.000004     NO 
 Predicted change in Energy=-4.661522D-03
 GradGradGradGradGradGradGradGradGradGradGradGradGradGradGradGradGradGrad

                          Input orientation:                          
 ---------------------------------------------------------------------
 Center     Atomic      Atomic             Coordinates (Angstroms)
 Number     Number       Type             X           Y           Z
 ---------------------------------------------------------------------
      1          6           0       -0.418519   -0.212952    0.536958
      2          6           0        0.827687    0.168187   -0.247166
      3          6           0       -1.658698    0.030707   -0.275035
      4          8           0        1.941491   -0.229735    0.522896
      5          1           0       -0.479147    0.348826    1.465480
      6          1           0       -0.358786   -1.278826    0.769544
      7          1           0        0.825950   -0.334464   -1.219799
      8          1           0        0.836717    1.246964   -0.426209
      9          8           0       -2.538539    0.782894    0.036083
     10          1           0       -1.726862   -0.528904   -1.230497
     11          1           0        2.748806    0.007204    0.067845
 ---------------------------------------------------------------------
                    Distance matrix (angstroms):
                    1          2          3          4          5
     1  C    0.000000
     2  C    1.520904   0.000000
     3  C    1.502247   2.490339   0.000000
     4  O    2.360111   1.411346   3.696739   0.000000
     5  H    1.086933   2.161853   2.126483   2.661332   0.000000
     6  H    1.092589   2.129615   2.120328   2.540216   1.774279
     7  H    2.156308   1.094840   2.683171   2.071807   3.062824
     8  H    2.152827   1.093571   2.780149   2.074118   2.473184
     9  O    2.395218   3.433594   1.198624   4.618773   2.544147
    10  H    2.221596   2.824641   1.109378   4.076850   3.097660
    11  H    3.209437   1.953419   4.420884   0.956541   3.534088
                    6          7          8          9         10
     6  H    0.000000
     7  H    2.500580   0.000000
     8  H    3.039517   1.769411   0.000000
     9  O    3.088685   3.761052   3.438230   0.000000
    10  H    2.536568   2.560229   3.220641   1.995961   0.000000
    11  H    3.435605   2.339261   2.331776   5.344036   4.690918
                   11
    11  H    0.000000
 Stoichiometry    C3H6O2
 Framework group  C1[X(C3H6O2)]
 Deg. of freedom    27
 Full point group                 C1      NOp   1
 Largest Abelian subgroup         C1      NOp   1
 Largest concise Abelian subgroup C1      NOp   1
                         Standard orientation:                         
 ---------------------------------------------------------------------
 Center     Atomic      Atomic             Coordinates (Angstroms)
 Number     Number       Type             X           Y           Z
 ---------------------------------------------------------------------
      1          6           0        0.075155   -0.515588    0.198797
      2          6           0       -1.034044    0.478979   -0.107249
      3          6           0        1.400343    0.180671    0.324678
      4          8           0       -2.253354   -0.230176   -0.059494
      5          1           0        0.139047   -1.275425   -0.575793
      6          1           0       -0.156440   -0.997695    1.151523
      7          1           0       -1.024276    1.288656    0.629638
      8          1           0       -0.872828    0.920869   -1.094488
      9          8           0        2.350542   -0.034002   -0.373702
     10          1           0        1.465996    0.951883    1.119438
     11          1           0       -2.977724    0.360763   -0.262098
 ---------------------------------------------------------------------
 Rotational constants (GHZ):     22.8519142      2.2205739      2.1756998
 Standard basis: 6-311+G(2df,2p) (5D, 7F)
 There are   224 symmetry adapted basis functions of A   symmetry.
 Integral buffers will be    131072 words long.
 Raffenetti 2 integral format.
 Two-electron integral symmetry is turned on.
   224 basis functions,   326 primitive gaussians,   249 cartesian basis functions
    20 alpha electrons       20 beta electrons
       nuclear repulsion energy       170.7156676309 Hartrees.
 NAtoms=   11 NActive=   11 NUniq=   11 SFac= 1.00D+00 NAtFMM=   50 NAOKFM=F Big=F
 One-electron integrals computed using PRISM.
 NBasis=   224 RedAO= T  NBF=   224
 NBsUse=   224 1.00D-06 NBFU=   224
 Initial guess read from the read-write file.
 B after Tr=     0.000000    0.000000    0.000000
         Rot=    1.000000    0.000000    0.000000    0.000000 Ang=   0.00 deg.
 Initial guess orbital symmetries:
       Occupied  (A) (A) (A) (A) (A) (A) (A) (A) (A) (A) (A) (A)
                 (A) (A) (A) (A) (A) (A) (A) (A)
       Virtual   (A) (A) (A) (A) (A) (A) (A) (A) (A) (A) (A) (A)
                 (A) (A) (A) (A) (A) (A) (A) (A) (A) (A) (A) (A)
                 (A) (A) (A) (A) (A) (A) (A) (A) (A) (A) (A) (A)
                 (A) (A) (A) (A) (A) (A) (A) (A) (A) (A) (A) (A)
                 (A) (A) (A) (A) (A) (A) (A) (A) (A) (A) (A) (A)
                 (A) (A) (A) (A) (A) (A) (A) (A) (A) (A) (A) (A)
                 (A) (A) (A) (A) (A) (A) (A) (A) (A) (A) (A) (A)
                 (A) (A) (A) (A) (A) (A) (A) (A) (A) (A) (A) (A)
                 (A) (A) (A) (A) (A) (A) (A) (A) (A) (A) (A) (A)
                 (A) (A) (A) (A) (A) (A) (A) (A) (A) (A) (A) (A)
                 (A) (A) (A) (A) (A) (A) (A) (A) (A) (A) (A) (A)
                 (A) (A) (A) (A) (A) (A) (A) (A) (A) (A) (A) (A)
                 (A) (A) (A) (A) (A) (A) (A) (A) (A) (A) (A) (A)
                 (A) (A) (A) (A) (A) (A) (A) (A) (A) (A) (A) (A)
                 (A) (A) (A) (A) (A) (A) (A) (A) (A) (A) (A) (A)
                 (A) (A) (A) (A) (A) (A) (A) (A) (A) (A) (A) (A)
                 (A) (A) (A) (A) (A) (A) (A) (A) (A) (A) (A) (A)
 Harris functional with IExCor= 1009 diagonalized for initial guess.
 ExpMin= 4.38D-02 ExpMax= 8.59D+03 ExpMxC= 1.30D+03 IAcc=2 IRadAn=         0 AccDes= 0.00D+00
 HarFok:  IExCor= 1009 AccDes= 0.00D+00 IRadAn=         0 IDoV= 1
 ScaDFX=  1.000000  1.000000  1.000000  1.000000
 FoFCou: FMM=F IPFlag=           0 FMFlag=      100000 FMFlg1=           0
         NFxFlg=           0 DoJE=T BraDBF=F KetDBF=T FulRan=T
         Omega=  0.000000  0.000000  1.000000  0.000000  0.000000 ICntrl=     500 IOpCl=  0
         NMat0=    1 NMatS0=    1 NMatT0=    0 NMatD0=    1 NMtDS0=    0 NMtDT0=    0
         I1Cent=           4 NGrid=           0.
 Petite list used in FoFCou.
 Requested convergence on RMS density matrix=1.00D-08 within 128 cycles.
 Requested convergence on MAX density matrix=1.00D-06.
 Requested convergence on             energy=1.00D-06.
 No special actions if energy rises.
 Keep R1 ints in memory in canonical form, NReq=492516497.
 SCF Done:  E(RM062X) =  -268.335416952     A.U. after   12 cycles
             Convg  =    0.6346D-08             -V/T =  2.0034
 Calling FoFJK, ICntrl=      2127 FMM=F ISym2X=0 I1Cent= 0 IOpClX= 0 NMat=1 NMatS=1 NMatT=0.
 ***** Axes restored to original set *****
 -------------------------------------------------------------------
 Center     Atomic                   Forces (Hartrees/Bohr)
 Number     Number              X              Y              Z
 -------------------------------------------------------------------
      1        6          -0.000473725    0.000681266   -0.000766356
      2        6          -0.000181792   -0.000335478    0.000734908
      3        6          -0.000798122    0.000359038   -0.001483629
      4        8          -0.001101285   -0.000959112    0.001286114
      5        1           0.000177649    0.000451778    0.000707644
      6        1           0.000190975   -0.000726709   -0.000071582
      7        1          -0.000309404   -0.000489477   -0.000669146
      8        1          -0.000005239    0.000580481    0.000117925
      9        8           0.000045692    0.000077651    0.000719969
     10        1           0.000658973   -0.000404017    0.000516482
     11        1           0.001796278    0.000764579   -0.001092330
 -------------------------------------------------------------------
 Cartesian Forces:  Max     0.001796278 RMS     0.000729271

 GradGradGradGradGradGradGradGradGradGradGradGradGradGradGradGradGradGrad
 Berny optimization.
 Using GDIIS optimizer.
 Internal  Forces:  Max     0.002223992 RMS     0.000503407
 Search for a local minimum.
 Step number   4 out of a maximum of   54
 All quantities printed in internal units (Hartrees-Bohrs-Radians)
 Swaping is turned off.
 Update second derivatives using D2CorX and points    1    2    3    4
 DE= -4.56D-03 DEPred=-4.66D-03 R= 9.77D-01
 SS=  1.41D+00  RLast= 4.19D-01 DXNew= 4.2426D-01 1.2584D+00
 Trust test= 9.77D-01 RLast= 4.19D-01 DXMaxT set to 4.24D-01
 ITU=  1 -1  1  0
     Eigenvalues ---    0.00382   0.00778   0.01675   0.04139   0.04921
     Eigenvalues ---    0.05475   0.05532   0.06151   0.09199   0.11437
     Eigenvalues ---    0.12852   0.13537   0.14876   0.16185   0.21751
     Eigenvalues ---    0.22051   0.22711   0.29924   0.32143   0.32250
     Eigenvalues ---    0.32424   0.32484   0.32991   0.34615   0.46766
     Eigenvalues ---    0.50206   0.89726
 DIIS coeff's:      1.00947      0.00665     -0.04391      0.02780
 Cosine:  1.000 >  0.710
 Length:  1.038
 GDIIS step was calculated using  4 of the last  4 vectors.
 Iteration  1 RMS(Cart)=  0.00952854 RMS(Int)=  0.00005682
 Iteration  2 RMS(Cart)=  0.00005496 RMS(Int)=  0.00002089
 Iteration  3 RMS(Cart)=  0.00000000 RMS(Int)=  0.00002089
 Variable       Old X    -DE/DX   Delta X   Delta X   Delta X     New X
                                  (DIIS)     (GDIIS)  (Total)
    R1        2.87409  -0.00014   0.00034  -0.00081  -0.00047   2.87362
    R2        2.83884   0.00022  -0.00005   0.00100   0.00095   2.83979
    R3        2.05401   0.00083   0.00123   0.00111   0.00234   2.05635
    R4        2.06469   0.00070   0.00077   0.00114   0.00192   2.06661
    R5        2.66706   0.00071  -0.00069   0.00246   0.00177   2.66883
    R6        2.06895   0.00082   0.00076   0.00156   0.00231   2.07126
    R7        2.06655   0.00056   0.00084   0.00062   0.00146   2.06801
    R8        2.26507   0.00019   0.00061  -0.00092  -0.00031   2.26476
    R9        2.09642  -0.00027  -0.00064   0.00053  -0.00011   2.09631
   R10        1.80760   0.00222   0.00154   0.00266   0.00420   1.81180
    A1        1.93598   0.00007  -0.00033   0.00097   0.00064   1.93663
    A2        1.93543  -0.00013  -0.00053   0.00075   0.00022   1.93565
    A3        1.88539  -0.00021   0.00054  -0.00427  -0.00373   1.88165
    A4        1.90907   0.00022   0.00066   0.00326   0.00393   1.91300
    A5        1.89487  -0.00007  -0.00024  -0.00234  -0.00259   1.89228
    A6        1.90224   0.00011  -0.00011   0.00147   0.00136   1.90360
    A7        1.86992   0.00074   0.00062   0.00259   0.00321   1.87312
    A8        1.91948  -0.00042   0.00015  -0.00280  -0.00266   1.91683
    A9        1.91600  -0.00029   0.00063  -0.00220  -0.00158   1.91442
   A10        1.93535  -0.00008  -0.00095   0.00160   0.00065   1.93600
   A11        1.94008  -0.00021  -0.00105   0.00034  -0.00071   1.93936
   A12        1.88332   0.00024   0.00063   0.00036   0.00099   1.88431
   A13        2.17423  -0.00033  -0.00158   0.00092  -0.00058   2.17365
   A14        2.02021  -0.00074   0.00109  -0.00716  -0.00599   2.01421
   A15        2.08864   0.00108   0.00032   0.00625   0.00664   2.09528
   A16        1.91416  -0.00027  -0.00154   0.00036  -0.00117   1.91299
    D1       -3.02889   0.00016  -0.00047   0.01887   0.01840  -3.01049
    D2       -0.92396   0.00027  -0.00116   0.02076   0.01960  -0.90437
    D3        1.14565   0.00013   0.00007   0.01817   0.01824   1.16389
    D4        1.12933  -0.00008  -0.00073   0.01353   0.01280   1.14214
    D5       -3.04893   0.00003  -0.00143   0.01543   0.01400  -3.03493
    D6       -0.97931  -0.00011  -0.00020   0.01283   0.01264  -0.96667
    D7       -0.95411  -0.00001  -0.00062   0.01395   0.01333  -0.94079
    D8        1.15081   0.00010  -0.00131   0.01584   0.01453   1.16534
    D9       -3.06276  -0.00003  -0.00009   0.01325   0.01317  -3.04959
   D10       -2.08066  -0.00026  -0.00274  -0.00455  -0.00729  -2.08795
   D11        1.04477   0.00006   0.00302  -0.00399  -0.00097   1.04380
   D12        0.05965  -0.00023  -0.00317  -0.00073  -0.00390   0.05575
   D13       -3.09810   0.00010   0.00259  -0.00018   0.00242  -3.09568
   D14        2.13347  -0.00001  -0.00306   0.00155  -0.00152   2.13196
   D15       -1.02428   0.00031   0.00271   0.00210   0.00481  -1.01948
   D16       -3.12512   0.00008  -0.00023   0.00724   0.00701  -3.11811
   D17        1.06325   0.00018  -0.00022   0.00811   0.00788   1.07113
   D18       -1.03181   0.00007   0.00030   0.00637   0.00668  -1.02514
         Item               Value     Threshold  Converged?
 Maximum Force            0.002224     0.000002     NO 
 RMS     Force            0.000503     0.000001     NO 
 Maximum Displacement     0.023646     0.000006     NO 
 RMS     Displacement     0.009523     0.000004     NO 
 Predicted change in Energy=-2.496963D-05
 GradGradGradGradGradGradGradGradGradGradGradGradGradGradGradGradGradGrad

                          Input orientation:                          
 ---------------------------------------------------------------------
 Center     Atomic      Atomic             Coordinates (Angstroms)
 Number     Number       Type             X           Y           Z
 ---------------------------------------------------------------------
      1          6           0       -0.420075   -0.207183    0.538635
      2          6           0        0.827468    0.170621   -0.244490
      3          6           0       -1.659385    0.029151   -0.277771
      4          8           0        1.943008   -0.241514    0.517260
      5          1           0       -0.481360    0.356979    1.467119
      6          1           0       -0.358259   -1.273791    0.772082
      7          1           0        0.816707   -0.324448   -1.222319
      8          1           0        0.843260    1.251690   -0.413696
      9          8           0       -2.543992    0.776584    0.030641
     10          1           0       -1.718273   -0.538827   -1.228836
     11          1           0        2.751000    0.000639    0.061473
 ---------------------------------------------------------------------
                    Distance matrix (angstroms):
                    1          2          3          4          5
     1  C    0.000000
     2  C    1.520653   0.000000
     3  C    1.502751   2.491096   0.000000
     4  O    2.363429   1.412284   3.698996   0.000000
     5  H    1.088172   2.162722   2.130694   2.671701   0.000000
     6  H    1.093604   2.127368   2.119617   2.535027   1.776975
     7  H    2.155073   1.096065   2.673618   2.074022   3.063070
     8  H    2.152037   1.094345   2.788604   2.075038   2.468318
     9  O    2.395178   3.436514   1.198458   4.626714   2.548330
    10  H    2.217940   2.820115   1.109320   4.067213   3.098483
    11  H    3.213502   1.955117   4.423505   0.958765   3.542735
                    6          7          8          9         10
     6  H    0.000000
     7  H    2.501886   0.000000
     8  H    3.037725   1.771662   0.000000
     9  O    3.087263   3.751863   3.449150   0.000000
    10  H    2.528533   2.544037   3.229839   1.999600   0.000000
    11  H    3.434622   2.344204   2.330319   5.351633   4.682982
                   11
    11  H    0.000000
 Stoichiometry    C3H6O2
 Framework group  C1[X(C3H6O2)]
 Deg. of freedom    27
 Full point group                 C1      NOp   1
 Largest Abelian subgroup         C1      NOp   1
 Largest concise Abelian subgroup C1      NOp   1
                         Standard orientation:                         
 ---------------------------------------------------------------------
 Center     Atomic      Atomic             Coordinates (Angstroms)
 Number     Number       Type             X           Y           Z
 ---------------------------------------------------------------------
      1          6           0        0.076432   -0.517102    0.189764
      2          6           0       -1.034367    0.476287   -0.113037
      3          6           0        1.400135    0.181338    0.324872
      4          8           0       -2.256887   -0.228071   -0.050814
      5          1           0        0.141498   -1.275688   -0.587688
      6          1           0       -0.157844   -1.000808    1.142189
      7          1           0       -1.014332    1.291121    0.619767
      8          1           0       -0.879844    0.910962   -1.105393
      9          8           0        2.354810   -0.032000   -0.367505
     10          1           0        1.454883    0.946583    1.126117
     11          1           0       -2.980936    0.365261   -0.258040
 ---------------------------------------------------------------------
 Rotational constants (GHZ):     22.9922649      2.2160840      2.1708251
 Standard basis: 6-311+G(2df,2p) (5D, 7F)
 There are   224 symmetry adapted basis functions of A   symmetry.
 Integral buffers will be    131072 words long.
 Raffenetti 2 integral format.
 Two-electron integral symmetry is turned on.
   224 basis functions,   326 primitive gaussians,   249 cartesian basis functions
    20 alpha electrons       20 beta electrons
       nuclear repulsion energy       170.6334104074 Hartrees.
 NAtoms=   11 NActive=   11 NUniq=   11 SFac= 1.00D+00 NAtFMM=   50 NAOKFM=F Big=F
 One-electron integrals computed using PRISM.
 NBasis=   224 RedAO= T  NBF=   224
 NBsUse=   224 1.00D-06 NBFU=   224
 Initial guess read from the read-write file.
 B after Tr=     0.000000    0.000000    0.000000
         Rot=    1.000000    0.000000    0.000000    0.000000 Ang=   0.00 deg.
 Initial guess orbital symmetries:
       Occupied  (A) (A) (A) (A) (A) (A) (A) (A) (A) (A) (A) (A)
                 (A) (A) (A) (A) (A) (A) (A) (A)
       Virtual   (A) (A) (A) (A) (A) (A) (A) (A) (A) (A) (A) (A)
                 (A) (A) (A) (A) (A) (A) (A) (A) (A) (A) (A) (A)
                 (A) (A) (A) (A) (A) (A) (A) (A) (A) (A) (A) (A)
                 (A) (A) (A) (A) (A) (A) (A) (A) (A) (A) (A) (A)
                 (A) (A) (A) (A) (A) (A) (A) (A) (A) (A) (A) (A)
                 (A) (A) (A) (A) (A) (A) (A) (A) (A) (A) (A) (A)
                 (A) (A) (A) (A) (A) (A) (A) (A) (A) (A) (A) (A)
                 (A) (A) (A) (A) (A) (A) (A) (A) (A) (A) (A) (A)
                 (A) (A) (A) (A) (A) (A) (A) (A) (A) (A) (A) (A)
                 (A) (A) (A) (A) (A) (A) (A) (A) (A) (A) (A) (A)
                 (A) (A) (A) (A) (A) (A) (A) (A) (A) (A) (A) (A)
                 (A) (A) (A) (A) (A) (A) (A) (A) (A) (A) (A) (A)
                 (A) (A) (A) (A) (A) (A) (A) (A) (A) (A) (A) (A)
                 (A) (A) (A) (A) (A) (A) (A) (A) (A) (A) (A) (A)
                 (A) (A) (A) (A) (A) (A) (A) (A) (A) (A) (A) (A)
                 (A) (A) (A) (A) (A) (A) (A) (A) (A) (A) (A) (A)
                 (A) (A) (A) (A) (A) (A) (A) (A) (A) (A) (A) (A)
 Harris functional with IExCor= 1009 diagonalized for initial guess.
 ExpMin= 4.38D-02 ExpMax= 8.59D+03 ExpMxC= 1.30D+03 IAcc=2 IRadAn=         0 AccDes= 0.00D+00
 HarFok:  IExCor= 1009 AccDes= 0.00D+00 IRadAn=         0 IDoV= 1
 ScaDFX=  1.000000  1.000000  1.000000  1.000000
 FoFCou: FMM=F IPFlag=           0 FMFlag=      100000 FMFlg1=           0
         NFxFlg=           0 DoJE=T BraDBF=F KetDBF=T FulRan=T
         Omega=  0.000000  0.000000  1.000000  0.000000  0.000000 ICntrl=     500 IOpCl=  0
         NMat0=    1 NMatS0=    1 NMatT0=    0 NMatD0=    1 NMtDS0=    0 NMtDT0=    0
         I1Cent=           4 NGrid=           0.
 Petite list used in FoFCou.
 Requested convergence on RMS density matrix=1.00D-08 within 128 cycles.
 Requested convergence on MAX density matrix=1.00D-06.
 Requested convergence on             energy=1.00D-06.
 No special actions if energy rises.
 Keep R1 ints in memory in canonical form, NReq=492516497.
 SCF Done:  E(RM062X) =  -268.335447159     A.U. after   10 cycles
             Convg  =    0.5305D-08             -V/T =  2.0034
 Calling FoFJK, ICntrl=      2127 FMM=F ISym2X=0 I1Cent= 0 IOpClX= 0 NMat=1 NMatS=1 NMatT=0.
 ***** Axes restored to original set *****
 -------------------------------------------------------------------
 Center     Atomic                   Forces (Hartrees/Bohr)
 Number     Number              X              Y              Z
 -------------------------------------------------------------------
      1        6           0.000079447    0.000349557    0.000078759
      2        6           0.000097979    0.000065791    0.000039038
      3        6          -0.000021607   -0.000033339   -0.000292225
      4        8           0.000032899   -0.000287817   -0.000102503
      5        1          -0.000045116   -0.000078986   -0.000007983
      6        1          -0.000023383   -0.000164293    0.000049202
      7        1          -0.000021913   -0.000071530   -0.000045125
      8        1           0.000088365    0.000003031   -0.000010756
      9        8          -0.000053797   -0.000023165    0.000050039
     10        1           0.000057621    0.000067024    0.000230932
     11        1          -0.000190495    0.000173727    0.000010620
 -------------------------------------------------------------------
 Cartesian Forces:  Max     0.000349557 RMS     0.000125418

[...]

 -------------------
 - Thermochemistry -
 -------------------
 Temperature   298.150 Kelvin.  Pressure   1.00000 Atm.
 Atom     1 has atomic number  6 and mass  12.00000
 Atom     2 has atomic number  6 and mass  12.00000
 Atom     3 has atomic number  6 and mass  12.00000
 Atom     4 has atomic number  8 and mass  15.99491
 Atom     5 has atomic number  1 and mass   1.00783
 Atom     6 has atomic number  1 and mass   1.00783
 Atom     7 has atomic number  1 and mass   1.00783
 Atom     8 has atomic number  1 and mass   1.00783
 Atom     9 has atomic number  8 and mass  15.99491
 Atom    10 has atomic number  1 and mass   1.00783
 Atom    11 has atomic number  1 and mass   1.00783
 Molecular mass:    74.03678 amu.
 Principal axes and moments of inertia in atomic units:
                           1         2         3
     Eigenvalues --    77.56837 816.65964 834.49578
           X            0.99989  -0.00972   0.01130
           Y            0.00888   0.99734   0.07229
           Z           -0.01198  -0.07218   0.99732
 This molecule is an asymmetric top.
 Rotational symmetry number  1.
 Rotational temperatures (Kelvin)      1.11661     0.10606     0.10379
 Rotational constants (GHZ):          23.26646     2.20991     2.16267
 Zero-point vibrational energy     237274.2 (Joules/Mol)
                                   56.70989 (Kcal/Mol)
 Warning -- explicit consideration of   6 degrees of freedom as
           vibrations may cause significant error
 Vibrational temperatures:     77.48   138.26   351.13   386.35   593.78
          (Kelvin)            760.59  1146.16  1259.36  1460.03  1538.60
                             1623.87  1654.56  1765.47  1791.09  1875.97
                             1906.26  2050.69  2100.99  2124.41  2209.66
                             2686.60  4271.35  4344.47  4383.80  4417.54
                             4515.67  5640.86
 
 Zero-point correction=                           0.090373 (Hartree/Particle)
 Thermal correction to Energy=                    0.096549
 Thermal correction to Enthalpy=                  0.097493
 Thermal correction to Gibbs Free Energy=         0.060342
 Sum of electronic and zero-point Energies=           -268.245087
 Sum of electronic and thermal Energies=              -268.238910
 Sum of electronic and thermal Enthalpies=            -268.237966
 Sum of electronic and thermal Free Energies=         -268.275117
 
                     E (Thermal)             CV                S
                      KCal/Mol        Cal/Mol-Kelvin    Cal/Mol-Kelvin
 Total                   60.585             19.377             78.191
 Electronic               0.000              0.000              0.000
 Translational            0.889              2.981             38.822
 Rotational               0.889              2.981             25.472
 Vibrational             58.808             13.415             13.897
 Vibration     1          0.596              1.976              4.671
 Vibration     2          0.603              1.952              3.532
 Vibration     3          0.659              1.773              1.773
 Vibration     4          0.673              1.731              1.606
 Vibration     5          0.776              1.443              0.917
 Vibration     6          0.884              1.187              0.590
                       Q            Log10(Q)             Ln(Q)
 Total Bot       0.175632D-27        -27.755397        -63.909162
 Total V=0       0.650420D+14         13.813194         31.806055
 Vib (Bot)       0.852228D-40        -40.069444        -92.263305
 Vib (Bot)    1  0.383722D+01          0.584016          1.344747
 Vib (Bot)    2  0.213731D+01          0.329868          0.759550
 Vib (Bot)    3  0.801964D+00         -0.095845         -0.220691
 Vib (Bot)    4  0.720239D+00         -0.142523         -0.328172
 Vib (Bot)    5  0.427832D+00         -0.368727         -0.849025
 Vib (Bot)    6  0.302913D+00         -0.518683         -1.194311
 Vib (V=0)       0.315607D+02          1.499146          3.451912
 Vib (V=0)    1  0.436965D+01          0.640447          1.474684
 Vib (V=0)    2  0.269502D+01          0.430562          0.991406
 Vib (V=0)    3  0.144506D+01          0.159887          0.368154
 Vib (V=0)    4  0.137678D+01          0.138865          0.319748
 Vib (V=0)    5  0.115806D+01          0.063730          0.146744
 Vib (V=0)    6  0.108460D+01          0.035269          0.081210
 Electronic      0.100000D+01          0.000000          0.000000
 Translational   0.250395D+08          7.398626         17.035967
 Rotational      0.823041D+05          4.915421         11.318176
 ***** Axes restored to original set *****
 -------------------------------------------------------------------
 Center     Atomic                   Forces (Hartrees/Bohr)
 Number     Number              X              Y              Z
 -------------------------------------------------------------------
      1        6           0.000000997   -0.000001679    0.000000275
      2        6          -0.000000238   -0.000001332   -0.000001723
      3        6          -0.000000753    0.000007014    0.000005396
      4        8           0.000000738   -0.000009119   -0.000007610
      5        1           0.000005848   -0.000006489    0.000003548
      6        1          -0.000001632   -0.000003114   -0.000005807
      7        1          -0.000004948    0.000004123   -0.000004338
      8        1           0.000002760   -0.000000530    0.000004132
      9        8           0.000002540    0.000008035    0.000012337
     10        1          -0.000005588    0.000012423    0.000002435
     11        1           0.000000276   -0.000009333   -0.000008645
 -------------------------------------------------------------------
 Cartesian Forces:  Max     0.000012423 RMS     0.000005576

 GradGradGradGradGradGradGradGradGradGradGradGradGradGradGradGradGradGrad
 Berny optimization.
 Internal  Forces:  Max     0.000000112 RMS     0.000000035
 Search for a local minimum.
 Step number   1 out of a maximum of    2
 All quantities printed in internal units (Hartrees-Bohrs-Radians)
 Swaping is turned off.
 Second derivative matrix not updated -- analytic derivatives used.
 ITU=  0
     Eigenvalues ---    0.00051   0.00172   0.00230   0.03180   0.04143
     Eigenvalues ---    0.04765   0.05022   0.06323   0.06936   0.09930
     Eigenvalues ---    0.10385   0.13200   0.14727   0.15438   0.16198
     Eigenvalues ---    0.21196   0.24302   0.28708   0.31316   0.31491
     Eigenvalues ---    0.32308   0.33094   0.33477   0.34771   0.40981
     Eigenvalues ---    0.55294   0.92429
 Angle between quadratic step and forces=  52.06 degrees.
 Linear search not attempted -- option 19 set.
 Iteration  1 RMS(Cart)=  0.00004307 RMS(Int)=  0.00000000
 Iteration  2 RMS(Cart)=  0.00000000 RMS(Int)=  0.00000000
 Variable       Old X    -DE/DX   Delta X   Delta X   Delta X     New X
                                 (Linear)    (Quad)   (Total)
    R1        2.87321   0.00000   0.00000   0.00000   0.00000   2.87321
    R2        2.83987   0.00000   0.00000   0.00000   0.00000   2.83987
    R3        2.05609   0.00000   0.00000   0.00000   0.00000   2.05609
    R4        2.06764   0.00000   0.00000   0.00000   0.00000   2.06764
    R5        2.66885   0.00000   0.00000   0.00000   0.00000   2.66885
    R6        2.07162   0.00000   0.00000   0.00000   0.00000   2.07162
    R7        2.06777   0.00000   0.00000   0.00000   0.00000   2.06777
    R8        2.26484   0.00000   0.00000   0.00000   0.00000   2.26484
    R9        2.09564   0.00000   0.00000   0.00000   0.00000   2.09564
   R10        1.81158   0.00000   0.00000   0.00000   0.00000   1.81158
    A1        1.93896   0.00000   0.00000   0.00001   0.00001   1.93897
    A2        1.93917   0.00000   0.00000   0.00001   0.00001   1.93918
    A3        1.88004   0.00000   0.00000   0.00000   0.00000   1.88004
    A4        1.91389   0.00000   0.00000   0.00000   0.00000   1.91389
    A5        1.88853   0.00000   0.00000  -0.00001  -0.00001   1.88853
    A6        1.90191   0.00000   0.00000  -0.00001  -0.00001   1.90191
    A7        1.87391   0.00000   0.00000   0.00000   0.00000   1.87391
    A8        1.91629   0.00000   0.00000   0.00000   0.00000   1.91629
    A9        1.91536   0.00000   0.00000   0.00000   0.00000   1.91536
   A10        1.93476   0.00000   0.00000   0.00000   0.00000   1.93476
   A11        1.93964   0.00000   0.00000   0.00000   0.00000   1.93964
   A12        1.88409   0.00000   0.00000   0.00000   0.00000   1.88409
   A13        2.17443   0.00000   0.00000   0.00000   0.00000   2.17443
   A14        2.01290   0.00000   0.00000   0.00000   0.00000   2.01290
   A15        2.09584   0.00000   0.00000   0.00000   0.00000   2.09584
   A16        1.91124   0.00000   0.00000   0.00000   0.00000   1.91124
    D1       -2.98890   0.00000   0.00000   0.00000   0.00000  -2.98890
    D2       -0.88411   0.00000   0.00000   0.00000   0.00000  -0.88411
    D3        1.18413   0.00000   0.00000   0.00000   0.00000   1.18413
    D4        1.15852   0.00000   0.00000  -0.00001  -0.00001   1.15851
    D5       -3.01987   0.00000   0.00000  -0.00001  -0.00001  -3.01988
    D6       -0.95163   0.00000   0.00000  -0.00001  -0.00001  -0.95164
    D7       -0.92339   0.00000   0.00000   0.00000   0.00000  -0.92340
    D8        1.18140   0.00000   0.00000  -0.00001  -0.00001   1.18139
    D9       -3.03355   0.00000   0.00000  -0.00001  -0.00001  -3.03355
   D10       -2.11448   0.00000   0.00000  -0.00012  -0.00012  -2.11460
   D11        1.02121   0.00000   0.00000  -0.00011  -0.00011   1.02110
   D12        0.03587   0.00000   0.00000  -0.00011  -0.00011   0.03576
   D13       -3.11163   0.00000   0.00000  -0.00010  -0.00010  -3.11173
   D14        2.10833   0.00000   0.00000  -0.00012  -0.00012   2.10821
   D15       -1.03916   0.00000   0.00000  -0.00011  -0.00011  -1.03927
   D16       -3.06000   0.00000   0.00000  -0.00001  -0.00001  -3.06000
   D17        1.13012   0.00000   0.00000   0.00000   0.00000   1.13012
   D18       -0.96523   0.00000   0.00000   0.00000   0.00000  -0.96523
         Item               Value     Threshold  Converged?
 Maximum Force            0.000000     0.000002     YES
 RMS     Force            0.000000     0.000001     YES
 Maximum Displacement     0.000145     0.000006     NO 
 RMS     Displacement     0.000043     0.000004     NO 
 Predicted change in Energy=-1.950273D-11
 GradGradGradGradGradGradGradGradGradGradGradGradGradGradGradGradGradGrad


 Test job not archived.
 1\1\GINC-COMPUTE-3-046\Freq\RM062X\6-311+G(2df,2p)\C3H6O2\ROOT\07-Aug-
 2017\0\\#N Geom=AllCheck Guess=TCheck SCRF=Check Test GenChk RM062X/6-
 311+G(2df,2p) Freq\\InChI=1S/C3H6O2/c4-2-1-3-5/h2,5H,1,3H2\\0,1\C,-0.4
 197891475,-0.2006143795,0.5390066533\C,0.8287446216,0.1665574874,-0.24
 71753416\C,-1.6602021301,0.028647872,-0.2778237347\O,1.9430261314,-0.2
 654441867,0.5053737546\H,-0.481019764,0.3675965595,1.4648644025\H,-0.3
 607113922,-1.2664759687,0.7790322741\H,0.8070058111,-0.322455989,-1.22
 80761343\H,0.8581370271,1.2481674523,-0.4101539229\O,-2.5558609158,0.7
 605360799,0.0360807099\H,-1.7097353807,-0.5325442689,-1.2330282251\H,2
 .7505051393,0.0159293416,0.0719995642\\Version=EM64L-G09RevB.01\State=
 1-A\HF=-268.3354595\RMSD=2.698e-09\RMSF=5.576e-06\ZeroPoint=0.090373\T
 hermal=0.096549\Dipole=1.0165696,-0.2822887,-0.6687451\DipoleDeriv=-0.
 3714515,0.1065948,-0.0926805,0.0588312,0.0518278,0.008615,-0.1169246,0
 .0332738,-0.0638412,0.8392376,-0.1042093,0.2006607,-0.1041319,0.373944
 ,-0.0209448,0.123285,-0.0040736,0.3831353,1.1301292,-0.4473578,0.10729
 06,-0.4776702,0.5391258,0.2781182,0.2584404,0.2442394,0.6417518,-0.942
 7524,0.1423661,-0.2399652,0.141894,-0.5022281,-0.0272834,-0.2482781,-0
 .0275954,-0.4833882,0.0225886,0.0039814,0.0083027,-0.0095006,0.038645,
 -0.0602553,0.0085926,-0.0303871,-0.0216581,0.0527395,-0.005044,-0.0000
 072,-0.0361958,-0.0425529,0.020598,-0.0176805,0.0072925,0.0660036,-0.0
 201534,-0.0026134,-0.0214838,0.0040932,0.0013843,-0.0905982,-0.0428496
 ,-0.0417837,-0.1456146,-0.0337025,-0.0044932,-0.0051897,0.0102286,-0.1
 458233,0.0687303,-0.0249445,0.0221519,0.0232631,-0.9417109,0.3131653,0
 .0342837,0.4026458,-0.5910632,-0.1145212,0.0502389,-0.1332519,-0.47201
 66,0.0080467,0.0194311,-0.0240292,0.0323911,-0.0269657,-0.1276083,-0.0
 339765,-0.1356226,-0.1629108,0.2570291,-0.021821,0.0328181,-0.0225854,
 0.3037063,0.0651497,0.0440968,0.0657566,0.2352757\Polar=52.8451787,-4.
 4650361,38.922544,0.5952031,1.6141454,40.47047\PG=C01 [X(C3H6O2)]\NIma
 g=0\\0.46299356,-0.02570298,0.56686743,0.00826001,0.05641687,0.5667243
 7,-0.13765879,-0.03343881,0.06761747,0.48589845,-0.02470768,-0.0847606
 0,0.01620107,0.00906641,0.59497470,0.04150910,0.01277997,-0.12314972,0
 .00015562,0.01402125,0.55828760,-0.14444030,-0.00122011,-0.06133183,-0
 .03547879,0.00549541,-0.00725096,0.73034149,-0.00354832,-0.08567179,0.
 00055830,-0.00083297,-0.00002601,-0.00985890,-0.32638483,0.54513459,-0
 .05729154,0.00145760,-0.14839508,0.00663303,-0.00658037,0.02049552,-0.
 03631114,0.21967811,0.53179733,-0.04798020,0.00914347,-0.02386149,-0.1
 8796935,0.05165108,-0.09139244,0.00043043,-0.00375247,0.00927141,0.641
 57104,-0.00645039,0.00544489,-0.00440161,0.02821207,-0.08960225,0.0437
 8009,-0.00172482,-0.00049983,0.00156335,0.06568754,0.13849822,0.014093
 04,-0.00354362,0.01221586,-0.05376700,0.04483042,-0.13849168,0.0019405
 6,0.00088880,-0.00393751,-0.08426585,-0.15169199,0.29239251,-0.0482807
 6,0.00936928,0.01326500,-0.00196015,0.01547895,0.02578455,0.00127245,-
 0.01815459,-0.02763601,0.00208218,-0.00051766,-0.00136362,0.05173329,0
 .00769738,-0.12796494,-0.12416740,-0.00110001,0.00540194,0.01017007,0.
 00021519,0.00194048,0.00501355,0.00096366,-0.00031219,-0.00048641,-0.0
 0704581,0.13198756,0.01161223,-0.12099919,-0.24221166,0.00057871,-0.00
 792026,-0.01513582,0.00116431,-0.01137268,-0.01803861,-0.00039859,0.00
 020257,0.00151997,-0.01419817,0.13223445,0.26299745,-0.03905906,0.0208
 4949,-0.00892727,-0.00176588,-0.03118403,0.00936220,-0.00015269,0.0315
 3535,-0.00331218,0.00323103,0.00108326,-0.00088142,-0.00085712,0.00061
 031,-0.00029335,0.04877544,0.01436085,-0.29143384,0.05098770,-0.001037
 97,-0.01081247,0.00334238,0.00230005,-0.00524297,-0.00045934,0.0008313
 7,0.00099228,-0.00086640,0.00073233,-0.01388697,0.00464059,-0.01682009
 ,0.31704282,-0.00581046,0.05316045,-0.06174617,0.00150129,0.01969189,-
 0.00588028,0.00278566,0.01859486,-0.00281625,-0.00191694,-0.00160512,0
 .00071797,0.00194669,-0.02597781,0.00812987,0.00253336,-0.06134276,0.0
 6163135,-0.00078937,0.01457526,0.02510076,-0.04932589,-0.00014668,0.00
 734215,0.00098456,0.00149371,0.00252095,-0.01174337,-0.00759197,-0.036
 17829,-0.00455683,-0.00233040,0.00233196,0.00102509,-0.00026852,-0.000
 64069,0.06130374,-0.00021078,0.00446184,0.00847379,0.00083497,-0.11224
 105,-0.10425516,-0.00020477,0.00022297,-0.00088890,0.00219815,0.009855
 99,0.01472698,-0.00157562,0.00064906,0.00105737,0.00066519,0.00073335,
 0.00017942,-0.00207785,0.11080166,0.00412792,-0.00874329,-0.01573624,0
 .00375111,-0.10116484,-0.23883945,-0.00179206,-0.00048619,-0.00160406,
 -0.01426815,-0.00194492,-0.01910452,0.00222716,0.00139136,-0.00053056,
 -0.00064953,0.00008778,0.00043002,0.00400637,0.10942883,0.26913680,-0.
 00291708,-0.02843876,0.00376681,-0.05176416,-0.01779489,0.00394167,0.0
 0268468,-0.00197554,0.00073952,-0.01029550,0.03479802,-0.01348214,0.00
 122209,0.00087064,-0.00050763,-0.00490658,-0.00120738,0.00284729,0.002
 33613,0.00109080,0.00106179,0.06257674,-0.00237761,-0.00606454,-0.0000
 9427,-0.01520109,-0.30171133,0.02812263,0.00066160,-0.00116620,0.00078
 637,0.01015430,-0.00597669,0.00700736,0.00000125,0.00077644,0.00020031
 ,-0.00069843,0.00113603,0.00036549,-0.00236311,-0.01457827,0.00067249,
 0.01066534,0.32664334,0.00394741,0.01728818,-0.00174133,0.00146356,0.0
 2376947,-0.05796263,-0.00079328,0.00049400,-0.00057848,-0.00799373,0.0
 2379628,-0.00518422,-0.00094149,0.00033812,0.00043067,0.00283467,0.001
 34829,-0.00079120,-0.00186595,-0.02863673,0.00470760,0.00195278,-0.037
 78431,0.06081334,-0.04124529,0.04067140,0.00478558,0.00515660,0.003783
 88,-0.00598239,-0.49199247,0.33839285,0.13084903,-0.00474378,-0.000811
 31,0.00082167,0.00287467,-0.00138241,0.00230249,-0.00643271,-0.0000467
 7,-0.00269600,-0.00013527,0.00004397,0.00047545,-0.00064992,-0.0010520
 4,0.00019178,0.53525814,0.03150441,0.00593248,-0.00367184,-0.00303833,
 -0.00289890,0.00600124,0.34079747,-0.35031309,-0.13259116,0.00359021,0
 .00106037,-0.00062102,0.00009322,0.00004440,0.00163875,-0.00274756,0.0
 0080535,-0.00089655,-0.00056699,0.00005042,0.00032195,0.00125719,0.000
 87481,-0.00033996,-0.40148364,0.35758752,-0.01478173,0.00744964,0.0250
 0121,-0.00251754,0.00287319,-0.00395048,0.13401041,-0.13446936,-0.1501
 5403,-0.00172845,-0.00041702,0.00128392,0.00401109,0.00096484,0.003556
 04,-0.00172550,0.00204292,-0.00006323,-0.00087253,0.00017978,0.0007542
 6,0.00002206,-0.00013022,0.00003869,-0.14726526,0.15412841,0.12619973,
 0.00420278,-0.00773778,-0.02354860,0.00225186,-0.00040161,-0.00088740,
 -0.06324767,-0.01637744,-0.02738264,0.00017576,0.00032726,0.00045532,-
 0.00383193,0.00139691,-0.00254518,-0.00041927,0.00085356,-0.00025204,-
 0.00043602,0.00011243,0.00070677,-0.00018272,-0.00012764,0.00013960,0.
 00235666,0.03024212,0.03125266,0.05911352,0.00700677,0.01381401,-0.001
 44428,0.00093720,-0.00004914,0.00087795,-0.02005349,-0.10554596,-0.087
 66339,0.00046635,-0.00011274,0.00005677,0.00169669,0.00135942,0.000266
 98,-0.00314318,0.00035777,-0.00216989,-0.00029247,-0.00004594,-0.00002
 510,-0.00012696,-0.00013513,0.00015275,0.02173512,-0.01267225,-0.03260
 046,-0.00824597,0.10318646,-0.00308408,-0.01573406,-0.00932322,0.00035
 239,0.00027421,-0.00277308,-0.03168473,-0.08406189,-0.22807976,-0.0009
 9650,0.00002930,0.00111582,-0.00297823,0.00033692,-0.00080109,0.001036
 16,0.00032922,0.00055186,-0.00077698,0.00025275,0.00093896,-0.00004696
 ,0.00010822,0.00001069,0.01658368,-0.02413509,-0.00224665,0.02190112,0
 .12255549,0.24069333,-0.00482549,0.00192955,-0.00512643,-0.02738391,-0
 .01124084,0.01741791,-0.00040167,-0.00039574,0.00191957,-0.38475824,-0
 .11301198,0.17262772,0.00030212,0.00010453,-0.00004678,0.00056175,0.00
 030259,-0.00029816,0.00133723,-0.00087649,0.00035318,0.00189631,0.0003
 3743,0.00106465,-0.00044663,0.00035189,-0.00040522,0.00001702,0.000019
 94,-0.00030587,0.41370152,0.00242835,-0.00062495,0.00114167,0.01559853
 ,0.00172511,-0.00498152,0.00011829,0.00116779,-0.00031583,-0.14093366,
 -0.05934806,0.08969911,-0.00007804,0.00000480,0.00005111,-0.00015028,0
 .00030864,0.00000002,-0.00043098,0.00008998,0.00046194,0.00086155,0.00
 020153,-0.00042608,0.00014895,-0.00047110,-0.00002173,-0.00004185,-0.0
 0015651,0.00004493,0.12247913,0.05710277,-0.00258190,0.00046746,-0.001
 63802,-0.02576863,-0.00599603,0.00740001,-0.00073695,0.00003495,0.0013
 1093,0.21755072,0.09068906,-0.14252811,-0.00011696,0.00018232,0.000083
 74,0.00002287,-0.00011038,-0.00016394,-0.00096775,-0.00051812,-0.00015
 281,-0.00029519,0.00074592,0.00025687,-0.00006603,0.00016526,-0.000419
 46,0.00016040,-0.00000682,-0.00008687,-0.18720057,-0.08565362,0.135937
 66\\-0.00000100,0.00000168,-0.00000027,0.00000024,0.00000133,0.0000017
 2,0.00000075,-0.00000701,-0.00000540,-0.00000074,0.00000912,0.00000761
 ,-0.00000585,0.00000649,-0.00000355,0.00000163,0.00000311,0.00000581,0
 .00000495,-0.00000412,0.00000434,-0.00000276,0.00000053,-0.00000413,-0
 .00000254,-0.00000803,-0.00001234,0.00000559,-0.00001242,-0.00000244,-
 0.00000028,0.00000933,0.00000864\\\@


 NOT WHAT WE DID SHALL BE THE TEST
 WHEN ACT AND WILL ARE DONE,
 BUT WHAT OUR LORD INFERS WE WOULD-
 HAD WE DIVINER BEEN.
           EMILY DICKINSON  POEMS NO. CLXXV
 Job cpu time:  0 days  0 hours 46 minutes 18.3 seconds.
 File lengths (MBytes):  RWF=   1312 Int=      0 D2E=      0 Chk=     32 Scr=     32
 Normal termination of Gaussian 09 at Mon Aug  7 08:32:36 2017.
