 Entering Gaussian System, Link 0=/shared/apps/gaussian/G09_LINUX_LINDA/g09/g09
 Input=/gss_gpfs_scratch/harms.n/QMscratch/ALJSGNFERGMBFT-UHFFFAOYSA.gjf
 Output=/gss_gpfs_scratch/harms.n/QMscratch/ALJSGNFERGMBFT-UHFFFAOYSA.log
 Initial command:
 /shared/apps/gaussian/G09_LINUX_LINDA/g09/l1.exe /gss_gpfs_scratch/harms.n/comparerTST/Gau-20075.inp -scrdir=/gss_gpfs_scratch/harms.n/comparerTST/
 Entering Link 1 = /shared/apps/gaussian/G09_LINUX_LINDA/g09/l1.exe PID=     20076.
  
 Copyright (c) 1988,1990,1992,1993,1995,1998,2003,2009,2010,
            Gaussian, Inc.  All Rights Reserved.
  
 This is part of the Gaussian(R) 09 program.  It is based on
 the Gaussian(R) 03 system (copyright 2003, Gaussian, Inc.),
 the Gaussian(R) 98 system (copyright 1998, Gaussian, Inc.),
 the Gaussian(R) 94 system (copyright 1995, Gaussian, Inc.),
 the Gaussian 92(TM) system (copyright 1992, Gaussian, Inc.),
 the Gaussian 90(TM) system (copyright 1990, Gaussian, Inc.),
 the Gaussian 88(TM) system (copyright 1988, Gaussian, Inc.),
 the Gaussian 86(TM) system (copyright 1986, Carnegie Mellon
 University), and the Gaussian 82(TM) system (copyright 1983,
 Carnegie Mellon University). Gaussian is a federally registered
 trademark of Gaussian, Inc.
  
 This software contains proprietary and confidential information,
 including trade secrets, belonging to Gaussian, Inc.
  
 This software is provided under written license and may be
 used, copied, transmitted, or stored only in accord with that
 written license.
  
 The following legend is applicable only to US Government
 contracts under FAR:
  
                    RESTRICTED RIGHTS LEGEND
  
 Use, reproduction and disclosure by the US Government is
 subject to restrictions as set forth in subparagraphs (a)
 and (c) of the Commercial Computer Software - Restricted
 Rights clause in FAR 52.227-19.
  
 Gaussian, Inc.
 340 Quinnipiac St., Bldg. 40, Wallingford CT 06492
  
  
 ---------------------------------------------------------------
 Warning -- This program may not be used in any manner that
 competes with the business of Gaussian, Inc. or will provide
 assistance to any competitor of Gaussian, Inc.  The licensee
 of this program is prohibited from giving any competitor of
 Gaussian, Inc. access to this program.  By using this program,
 the user acknowledges that Gaussian, Inc. is engaged in the
 business of creating and licensing software in the field of
 computational chemistry and represents and warrants to the
 licensee that it is not a competitor of Gaussian, Inc. and that
 it will not use this program in any manner prohibited above.
 ---------------------------------------------------------------
  

 Cite this work as:
 Gaussian 09, Revision B.01,
 M. J. Frisch, G. W. Trucks, H. B. Schlegel, G. E. Scuseria, 
 M. A. Robb, J. R. Cheeseman, G. Scalmani, V. Barone, B. Mennucci, 
 G. A. Petersson, H. Nakatsuji, M. Caricato, X. Li, H. P. Hratchian, 
 A. F. Izmaylov, J. Bloino, G. Zheng, J. L. Sonnenberg, M. Hada, 
 M. Ehara, K. Toyota, R. Fukuda, J. Hasegawa, M. Ishida, T. Nakajima, 
 Y. Honda, O. Kitao, H. Nakai, T. Vreven, J. A. Montgomery, Jr., 
 J. E. Peralta, F. Ogliaro, M. Bearpark, J. J. Heyd, E. Brothers, 
 K. N. Kudin, V. N. Staroverov, T. Keith, R. Kobayashi, J. Normand, 
 K. Raghavachari, A. Rendell, J. C. Burant, S. S. Iyengar, J. Tomasi, 
 M. Cossi, N. Rega, J. M. Millam, M. Klene, J. E. Knox, J. B. Cross, 
 V. Bakken, C. Adamo, J. Jaramillo, R. Gomperts, R. E. Stratmann, 
 O. Yazyev, A. J. Austin, R. Cammi, C. Pomelli, J. W. Ochterski, 
 R. L. Martin, K. Morokuma, V. G. Zakrzewski, G. A. Voth, 
 P. Salvador, J. J. Dannenberg, S. Dapprich, A. D. Daniels, 
 O. Farkas, J. B. Foresman, J. V. Ortiz, J. Cioslowski, 
 and D. J. Fox, Gaussian, Inc., Wallingford CT, 2010.
 
 ******************************************
 Gaussian 09:  EM64L-G09RevB.01 12-Aug-2010
                14-Oct-2017 
 ******************************************
 %nprocshared=20
 Will use up to   20 processors via shared memory.
 %mem=5GB
 --------------------------------------------------------------
 # m062x/6-311+g(2df,2p) opt=(verytight,gdiis) freq IOP(2/16=3)
 --------------------------------------------------------------

 Warning!  Use of Opt=GDIIS is deprecated since it is seldom a good choice.

 1/7=1,14=-1,18=20,19=11,26=3,38=1/1,3;
 2/9=110,12=2,16=3,17=6,18=5,40=1/2;
 3/5=4,6=6,7=214,11=2,16=1,25=1,30=1,71=1,74=-55/1,2,3;
 4//1;
 5/5=2,38=5/2;
 6/7=2,8=2,9=2,10=2,28=1/1;
 7//1,2,3,16;
 1/7=1,14=-1,18=20,19=11/3(2);
 2/9=110,16=3/2;
 99//99;
 2/9=110,16=3/2;
 3/5=4,6=6,7=214,11=2,16=1,25=1,30=1,71=1,74=-55/1,2,3;
 4/5=5,16=3/1;
 5/5=2,38=5/2;
 7//1,2,3,16;
 1/7=1,14=-1,18=20,19=11/3(-5);
 2/9=110,16=3/2;
 6/7=2,8=2,9=2,10=2,19=2,28=1/1;
 99/9=1/99;
 ---------------------------------------------------
 InChI=1S/C7H16O2/c1-6(9-8)5-7(2,3)4/h6,8H,5H2,1-4H3
 ---------------------------------------------------
 Symbolic Z-matrix:
 Charge =  0 Multiplicity = 1
 C                    -1.0636   -0.2092   -0.607 
 C                     1.405     0.4053    0.1083 
 C                    -0.1       0.7637    0.1442 
 C                    -0.9716   -1.6452   -0.0506 
 C                    -2.5074    0.2985   -0.4008 
 C                    -0.7684   -0.2256   -2.1227 
 C                     2.2355    1.6007    0.5934 
 O                     1.6472   -0.6985    0.952 
 O                     2.7835   -1.2436    0.5543 
 H                     1.705     0.1894   -0.9415 
 H                    -0.4127    0.8387    1.2102 
 H                    -0.2328    1.7793   -0.2926 
 H                     3.3175    1.3524    0.5638 
 H                     2.0674    2.481    -0.0632 
 H                     1.9598    1.867     1.6363 
 H                    -1.7726   -2.2841   -0.4818 
 H                    -1.0832   -1.6452    1.055 
 H                    -0.0024   -2.1164   -0.3145 
 H                    -2.7688    0.3112    0.6796 
 H                    -3.2382   -0.3559   -0.9239 
 H                    -2.6222    1.3299   -0.7994 
 H                     0.2042   -0.7118   -2.3431 
 H                    -0.7497    0.8081   -2.5304 
 H                    -1.5504   -0.799    -2.6663 
 H                     2.5187   -2.0908    0.1124 
 

 GradGradGradGradGradGradGradGradGradGradGradGradGradGradGradGradGradGrad
 Berny optimization.
 Initialization pass.
                           ----------------------------
                           !    Initial Parameters    !
                           ! (Angstroms and Degrees)  !
 --------------------------                            --------------------------
 ! Name  Definition              Value          Derivative Info.                !
 --------------------------------------------------------------------------------
 ! R1    R(1,3)                  1.5618         estimate D2E/DX2                !
 ! R2    R(1,4)                  1.5428         estimate D2E/DX2                !
 ! R3    R(1,5)                  1.5443         estimate D2E/DX2                !
 ! R4    R(1,6)                  1.5443         estimate D2E/DX2                !
 ! R5    R(2,3)                  1.5475         estimate D2E/DX2                !
 ! R6    R(2,7)                  1.5343         estimate D2E/DX2                !
 ! R7    R(2,8)                  1.4103         estimate D2E/DX2                !
 ! R8    R(2,10)                 1.113          estimate D2E/DX2                !
 ! R9    R(3,11)                 1.1134         estimate D2E/DX2                !
 ! R10   R(3,12)                 1.1135         estimate D2E/DX2                !
 ! R11   R(4,16)                 1.1116         estimate D2E/DX2                !
 ! R12   R(4,17)                 1.1112         estimate D2E/DX2                !
 ! R13   R(4,18)                 1.1095         estimate D2E/DX2                !
 ! R14   R(5,19)                 1.1116         estimate D2E/DX2                !
 ! R15   R(5,20)                 1.1117         estimate D2E/DX2                !
 ! R16   R(5,21)                 1.1117         estimate D2E/DX2                !
 ! R17   R(6,22)                 1.1095         estimate D2E/DX2                !
 ! R18   R(6,23)                 1.1114         estimate D2E/DX2                !
 ! R19   R(6,24)                 1.1117         estimate D2E/DX2                !
 ! R20   R(7,13)                 1.1105         estimate D2E/DX2                !
 ! R21   R(7,14)                 1.111          estimate D2E/DX2                !
 ! R22   R(7,15)                 1.1111         estimate D2E/DX2                !
 ! R23   R(8,9)                  1.3215         estimate D2E/DX2                !
 ! R24   R(9,25)                 0.9915         estimate D2E/DX2                !
 ! A1    A(3,1,4)              111.6881         estimate D2E/DX2                !
 ! A2    A(3,1,5)              107.927          estimate D2E/DX2                !
 ! A3    A(3,1,6)              111.1463         estimate D2E/DX2                !
 ! A4    A(4,1,5)              108.2765         estimate D2E/DX2                !
 ! A5    A(4,1,6)              109.4324         estimate D2E/DX2                !
 ! A6    A(5,1,6)              108.2561         estimate D2E/DX2                !
 ! A7    A(3,2,7)              109.7945         estimate D2E/DX2                !
 ! A8    A(3,2,8)              109.5369         estimate D2E/DX2                !
 ! A9    A(3,2,10)             109.2054         estimate D2E/DX2                !
 ! A10   A(7,2,8)              109.129          estimate D2E/DX2                !
 ! A11   A(7,2,10)             107.6657         estimate D2E/DX2                !
 ! A12   A(8,2,10)             111.4801         estimate D2E/DX2                !
 ! A13   A(1,3,2)              116.3973         estimate D2E/DX2                !
 ! A14   A(1,3,11)             109.2181         estimate D2E/DX2                !
 ! A15   A(1,3,12)             107.8121         estimate D2E/DX2                !
 ! A16   A(2,3,11)             108.1157         estimate D2E/DX2                !
 ! A17   A(2,3,12)             108.5496         estimate D2E/DX2                !
 ! A18   A(11,3,12)            106.2979         estimate D2E/DX2                !
 ! A19   A(1,4,16)             110.6158         estimate D2E/DX2                !
 ! A20   A(1,4,17)             110.661          estimate D2E/DX2                !
 ! A21   A(1,4,18)             111.1991         estimate D2E/DX2                !
 ! A22   A(16,4,17)            108.2745         estimate D2E/DX2                !
 ! A23   A(16,4,18)            107.0429         estimate D2E/DX2                !
 ! A24   A(17,4,18)            108.9279         estimate D2E/DX2                !
 ! A25   A(1,5,19)             110.6937         estimate D2E/DX2                !
 ! A26   A(1,5,20)             110.9917         estimate D2E/DX2                !
 ! A27   A(1,5,21)             110.713          estimate D2E/DX2                !
 ! A28   A(19,5,20)            108.0263         estimate D2E/DX2                !
 ! A29   A(19,5,21)            108.276          estimate D2E/DX2                !
 ! A30   A(20,5,21)            108.0308         estimate D2E/DX2                !
 ! A31   A(1,6,22)             111.5436         estimate D2E/DX2                !
 ! A32   A(1,6,23)             110.6956         estimate D2E/DX2                !
 ! A33   A(1,6,24)             110.5458         estimate D2E/DX2                !
 ! A34   A(22,6,23)            108.6618         estimate D2E/DX2                !
 ! A35   A(22,6,24)            107.0669         estimate D2E/DX2                !
 ! A36   A(23,6,24)            108.1924         estimate D2E/DX2                !
 ! A37   A(2,7,13)             110.1673         estimate D2E/DX2                !
 ! A38   A(2,7,14)             110.4006         estimate D2E/DX2                !
 ! A39   A(2,7,15)             110.4375         estimate D2E/DX2                !
 ! A40   A(13,7,14)            107.9887         estimate D2E/DX2                !
 ! A41   A(13,7,15)            108.6849         estimate D2E/DX2                !
 ! A42   A(14,7,15)            109.1034         estimate D2E/DX2                !
 ! A43   A(2,8,9)              106.8859         estimate D2E/DX2                !
 ! A44   A(8,9,25)             104.8875         estimate D2E/DX2                !
 ! D1    D(4,1,3,2)             58.934          estimate D2E/DX2                !
 ! D2    D(4,1,3,11)           -63.7932         estimate D2E/DX2                !
 ! D3    D(4,1,3,12)          -178.8906         estimate D2E/DX2                !
 ! D4    D(5,1,3,2)            177.8403         estimate D2E/DX2                !
 ! D5    D(5,1,3,11)            55.1132         estimate D2E/DX2                !
 ! D6    D(5,1,3,12)           -59.9843         estimate D2E/DX2                !
 ! D7    D(6,1,3,2)            -63.5947         estimate D2E/DX2                !
 ! D8    D(6,1,3,11)           173.6781         estimate D2E/DX2                !
 ! D9    D(6,1,3,12)            58.5807         estimate D2E/DX2                !
 ! D10   D(3,1,4,16)           171.0104         estimate D2E/DX2                !
 ! D11   D(3,1,4,17)            51.0163         estimate D2E/DX2                !
 ! D12   D(3,1,4,18)           -70.1882         estimate D2E/DX2                !
 ! D13   D(5,1,4,16)            52.3118         estimate D2E/DX2                !
 ! D14   D(5,1,4,17)           -67.6822         estimate D2E/DX2                !
 ! D15   D(5,1,4,18)           171.1133         estimate D2E/DX2                !
 ! D16   D(6,1,4,16)           -65.4858         estimate D2E/DX2                !
 ! D17   D(6,1,4,17)           174.5201         estimate D2E/DX2                !
 ! D18   D(6,1,4,18)            53.3156         estimate D2E/DX2                !
 ! D19   D(3,1,5,19)           -60.5021         estimate D2E/DX2                !
 ! D20   D(3,1,5,20)           179.5475         estimate D2E/DX2                !
 ! D21   D(3,1,5,21)            59.5787         estimate D2E/DX2                !
 ! D22   D(4,1,5,19)            60.5548         estimate D2E/DX2                !
 ! D23   D(4,1,5,20)           -59.3955         estimate D2E/DX2                !
 ! D24   D(4,1,5,21)          -179.3643         estimate D2E/DX2                !
 ! D25   D(6,1,5,19)           179.1021         estimate D2E/DX2                !
 ! D26   D(6,1,5,20)            59.1517         estimate D2E/DX2                !
 ! D27   D(6,1,5,21)           -60.8171         estimate D2E/DX2                !
 ! D28   D(3,1,6,22)            69.4302         estimate D2E/DX2                !
 ! D29   D(3,1,6,23)           -51.6937         estimate D2E/DX2                !
 ! D30   D(3,1,6,24)          -171.5619         estimate D2E/DX2                !
 ! D31   D(4,1,6,22)           -54.3928         estimate D2E/DX2                !
 ! D32   D(4,1,6,23)          -175.5166         estimate D2E/DX2                !
 ! D33   D(4,1,6,24)            64.6152         estimate D2E/DX2                !
 ! D34   D(5,1,6,22)          -172.2032         estimate D2E/DX2                !
 ! D35   D(5,1,6,23)            66.6729         estimate D2E/DX2                !
 ! D36   D(5,1,6,24)           -53.1953         estimate D2E/DX2                !
 ! D37   D(7,2,3,1)            166.8772         estimate D2E/DX2                !
 ! D38   D(7,2,3,11)           -69.8224         estimate D2E/DX2                !
 ! D39   D(7,2,3,12)            45.0897         estimate D2E/DX2                !
 ! D40   D(8,2,3,1)            -73.3036         estimate D2E/DX2                !
 ! D41   D(8,2,3,11)            49.9968         estimate D2E/DX2                !
 ! D42   D(8,2,3,12)           164.9089         estimate D2E/DX2                !
 ! D43   D(10,2,3,1)            49.0439         estimate D2E/DX2                !
 ! D44   D(10,2,3,11)          172.3443         estimate D2E/DX2                !
 ! D45   D(10,2,3,12)          -72.7436         estimate D2E/DX2                !
 ! D46   D(3,2,7,13)          -179.6294         estimate D2E/DX2                !
 ! D47   D(3,2,7,14)           -60.4457         estimate D2E/DX2                !
 ! D48   D(3,2,7,15)            60.2993         estimate D2E/DX2                !
 ! D49   D(8,2,7,13)            60.303          estimate D2E/DX2                !
 ! D50   D(8,2,7,14)           179.4867         estimate D2E/DX2                !
 ! D51   D(8,2,7,15)           -59.7683         estimate D2E/DX2                !
 ! D52   D(10,2,7,13)          -60.8432         estimate D2E/DX2                !
 ! D53   D(10,2,7,14)           58.3405         estimate D2E/DX2                !
 ! D54   D(10,2,7,15)          179.0855         estimate D2E/DX2                !
 ! D55   D(3,2,8,9)            158.9449         estimate D2E/DX2                !
 ! D56   D(7,2,8,9)            -80.8289         estimate D2E/DX2                !
 ! D57   D(10,2,8,9)            37.9649         estimate D2E/DX2                !
 ! D58   D(2,8,9,25)          -107.731          estimate D2E/DX2                !
 --------------------------------------------------------------------------------
 Trust Radius=3.00D-01 FncErr=1.00D-07 GrdErr=1.00D-06
 Number of steps in this run=    136 maximum allowed number of steps=    150.
 GradGradGradGradGradGradGradGradGradGradGradGradGradGradGradGradGradGrad

                          Input orientation:                          
 ---------------------------------------------------------------------
 Center     Atomic      Atomic             Coordinates (Angstroms)
 Number     Number       Type             X           Y           Z
 ---------------------------------------------------------------------
      1          6           0       -1.063600   -0.209200   -0.607000
      2          6           0        1.405000    0.405300    0.108300
      3          6           0       -0.100000    0.763700    0.144200
      4          6           0       -0.971600   -1.645200   -0.050600
      5          6           0       -2.507400    0.298500   -0.400800
      6          6           0       -0.768400   -0.225600   -2.122700
      7          6           0        2.235500    1.600700    0.593400
      8          8           0        1.647200   -0.698500    0.952000
      9          8           0        2.783500   -1.243600    0.554300
     10          1           0        1.705000    0.189400   -0.941500
     11          1           0       -0.412700    0.838700    1.210200
     12          1           0       -0.232800    1.779300   -0.292600
     13          1           0        3.317500    1.352400    0.563800
     14          1           0        2.067400    2.481000   -0.063200
     15          1           0        1.959800    1.867000    1.636300
     16          1           0       -1.772600   -2.284100   -0.481800
     17          1           0       -1.083200   -1.645200    1.055000
     18          1           0       -0.002400   -2.116400   -0.314500
     19          1           0       -2.768800    0.311200    0.679600
     20          1           0       -3.238200   -0.355900   -0.923900
     21          1           0       -2.622200    1.329900   -0.799400
     22          1           0        0.204200   -0.711800   -2.343100
     23          1           0       -0.749700    0.808100   -2.530400
     24          1           0       -1.550400   -0.799000   -2.666300
     25          1           0        2.518700   -2.090800    0.112400
 ---------------------------------------------------------------------
                    Distance matrix (angstroms):
                    1          2          3          4          5
     1  C    0.000000
     2  C    2.642584   0.000000
     3  C    1.561845   1.547503   0.000000
     4  C    1.542771   3.142933   2.569131   0.000000
     5  C    1.544291   3.946829   2.511774   2.501858   0.000000
     6  C    1.544266   3.177902   2.562091   2.519951   2.502747
     7  C    3.949780   1.534286   2.521291   4.608264   5.017894
     8  O    3.165175   1.410271   2.417287   2.959656   4.481604
     9  O    4.149552   2.195006   3.537232   3.824652   5.593202
    10  H    2.817076   1.112966   2.183252   3.365063   4.248361
    11  H    2.196356   2.169344   1.113446   2.841082   2.697203
    12  H    2.177891   2.175083   1.113496   3.511636   2.716299
    13  H    4.796186   2.182232   3.493127   5.268726   5.997551
    14  H    4.163659   2.185570   2.773041   5.124569   5.079968
    15  H    4.299296   2.186128   2.772437   4.875888   5.154206
    16  H    2.196262   4.204549   3.532499   1.111633   2.686320
    17  H    2.196525   3.360347   2.756635   1.111218   2.815256
    18  H    2.202070   2.918648   2.918031   1.109514   3.480548
    19  H    2.198605   4.213768   2.759330   2.755108   1.111645
    20  H    2.202460   4.817071   3.498949   2.749986   1.111729
    21  H    2.198882   4.230502   2.751810   3.483734   1.111687
    22  H    2.207706   2.949440   2.907972   2.740310   3.485113
    23  H    2.198386   3.430411   2.752738   3.495330   2.807917
    24  H    2.196715   4.228845   3.527691   2.809440   2.693111
    25  H    4.109845   2.733287   3.873857   3.522403   5.588722
                    6          7          8          9         10
     6  C    0.000000
     7  C    4.442520   0.000000
     8  O    3.938596   2.400211   0.000000
     9  O    4.562746   2.896873   1.321543   0.000000
    10  H    2.772213   2.151538   2.092140   2.335395   0.000000
    11  H    3.516743   2.823836   2.583184   3.870642   3.088051
    12  H    2.766904   2.628574   3.350063   4.353531   2.589193
    13  H    5.138282   1.110519   2.673348   2.650370   2.493723
    14  H    4.428203   1.110995   3.363989   3.842753   2.480761
    15  H    5.094323   1.111111   2.673532   3.394855   3.086149
    16  H    2.817515   5.684417   4.032982   4.786877   4.292229
    17  H    3.494587   4.665052   2.891701   3.919611   3.889194
    18  H    2.726072   4.432754   2.517070   3.045953   2.936845
    19  H    3.484629   5.168487   4.538144   5.767247   4.760009
    20  H    2.748456   6.007651   5.244379   6.263702   4.973217
    21  H    2.758129   5.060679   5.040792   6.138159   4.477230
    22  H    1.109467   4.254041   3.597236   3.915422   2.242553
    23  H    1.111353   4.392922   4.487993   5.119409   2.988803
    24  H    1.111671   5.542314   4.829787   5.417806   3.814381
    25  H    4.390862   3.733462   1.844706   0.991535   2.640478
                   11         12         13         14         15
    11  H    0.000000
    12  H    1.781993   0.000000
    13  H    3.820486   3.676995   0.000000
    14  H    3.235675   2.415766   1.797114   0.000000
    15  H    2.620633   2.921616   1.805109   1.810214   0.000000
    16  H    3.803166   4.349483   6.342439   6.134085   5.970661
    17  H    2.577483   3.777090   5.347246   5.310572   4.683301
    18  H    3.350473   3.902569   4.881160   5.048100   4.850085
    19  H    2.472044   3.087359   6.175804   5.352440   5.069068
    20  H    3.736964   3.740327   6.936047   6.077680   6.206054
    21  H    3.026823   2.483554   6.094166   4.884605   5.216880
    22  H    3.925628   3.255933   4.733247   4.343205   5.056478
    23  H    3.755875   2.493625   5.139305   4.101429   5.081737
    24  H    4.359320   3.744082   6.225634   5.533806   6.159661
    25  H    4.287218   4.765758   3.563351   4.597376   4.277712
                   16         17         18         19         20
    16  H    0.000000
    17  H    1.801449   0.000000
    18  H    1.785979   1.807122   0.000000
    19  H    3.012781   2.609535   3.812407   0.000000
    20  H    2.461989   3.197243   3.733782   1.799047   0.000000
    21  H    3.726082   3.828647   4.356084   1.801855   1.799133
    22  H    3.137563   3.751762   2.476046   4.361419   3.740443
    23  H    3.847699   4.357178   3.744512   3.824627   3.182510
    24  H    2.650837   3.844789   3.108506   3.729891   2.465961
    25  H    4.336553   3.749765   2.557116   5.835150   6.101286
                   21         22         23         24         25
    21  H    0.000000
    22  H    3.813146   0.000000
    23  H    2.602862   1.804190   0.000000
    24  H    3.027587   1.786248   1.800655   0.000000
    25  H    6.241908   3.645275   5.105923   5.093868   0.000000
 Stoichiometry    C7H16O2
 Framework group  C1[X(C7H16O2)]
 Deg. of freedom    69
 Full point group                 C1      NOp   1
 Largest Abelian subgroup         C1      NOp   1
 Largest concise Abelian subgroup C1      NOp   1
                         Standard orientation:                         
 ---------------------------------------------------------------------
 Center     Atomic      Atomic             Coordinates (Angstroms)
 Number     Number       Type             X           Y           Z
 ---------------------------------------------------------------------
      1          6           0        1.454056   -0.016196    0.008078
      2          6           0       -1.139701    0.462132    0.172026
      3          6           0        0.243950    0.896971   -0.367595
      4          6           0        1.255020   -1.461481   -0.493597
      5          6           0        2.714901    0.562583   -0.670244
      6          6           0        1.688927   -0.029894    1.534317
      7          6           0       -2.146563    1.607466    0.003287
      8          8           0       -1.594250   -0.662519   -0.547286
      9          8           0       -2.499501   -1.260584    0.207245
     10          1           0       -1.056112    0.243478    1.260095
     11          1           0        0.174208    0.975384   -1.476085
     12          1           0        0.462987    1.923129    0.005092
     13          1           0       -3.140532    1.304243    0.394867
     14          1           0       -1.813094    2.502916    0.570100
     15          1           0       -2.253303    1.875283   -1.069768
     16          1           0        2.186829   -2.053240   -0.362142
     17          1           0        0.986831   -1.468767   -1.571942
     18          1           0        0.457805   -1.978735    0.079043
     19          1           0        2.595346    0.575976   -1.775360
     20          1           0        3.612553   -0.047180   -0.428684
     21          1           0        2.903302    1.603144   -0.327337
     22          1           0        0.874623   -0.562815    2.067066
     23          1           0        1.754803    1.006209    1.930873
     24          1           0        2.637378   -0.555897    1.778396
     25          1           0       -2.057142   -2.087789    0.528482
 ---------------------------------------------------------------------
 Rotational constants (GHZ):      2.4355184      0.9808642      0.8585239
 Standard basis: 6-311+G(2df,2p) (5D, 7F)
 There are   450 symmetry adapted basis functions of A   symmetry.
 Integral buffers will be    131072 words long.
 Raffenetti 2 integral format.
 Two-electron integral symmetry is turned on.
   450 basis functions,   644 primitive gaussians,   495 cartesian basis functions
    37 alpha electrons       37 beta electrons
       nuclear repulsion energy       512.9601965692 Hartrees.
 NAtoms=   25 NActive=   25 NUniq=   25 SFac= 1.00D+00 NAtFMM=   50 NAOKFM=F Big=F
 One-electron integrals computed using PRISM.
 NBasis=   450 RedAO= T  NBF=   450
 NBsUse=   450 1.00D-06 NBFU=   450
 Harris functional with IExCor= 1009 diagonalized for initial guess.
 ExpMin= 4.38D-02 ExpMax= 8.59D+03 ExpMxC= 1.30D+03 IAcc=2 IRadAn=         0 AccDes= 0.00D+00
 HarFok:  IExCor= 1009 AccDes= 0.00D+00 IRadAn=         0 IDoV= 1
 ScaDFX=  1.000000  1.000000  1.000000  1.000000
 FoFCou: FMM=F IPFlag=           0 FMFlag=      100000 FMFlg1=           0
         NFxFlg=           0 DoJE=T BraDBF=F KetDBF=T FulRan=T
         Omega=  0.000000  0.000000  1.000000  0.000000  0.000000 ICntrl=     500 IOpCl=  0
         NMat0=    1 NMatS0=    1 NMatT0=    0 NMatD0=    1 NMtDS0=    0 NMtDT0=    0
         I1Cent=           4 NGrid=           0.
 Petite list used in FoFCou.
 Initial guess orbital symmetries:
       Occupied  (A) (A) (A) (A) (A) (A) (A) (A) (A) (A) (A) (A)
                 (A) (A) (A) (A) (A) (A) (A) (A) (A) (A) (A) (A)
                 (A) (A) (A) (A) (A) (A) (A) (A) (A) (A) (A) (A)
                 (A)
       Virtual   (A) (A) (A) (A) (A) (A) (A) (A) (A) (A) (A) (A)
                 (A) (A) (A) (A) (A) (A) (A) (A) (A) (A) (A) (A)
                 (A) (A) (A) (A) (A) (A) (A) (A) (A) (A) (A) (A)
                 (A) (A) (A) (A) (A) (A) (A) (A) (A) (A) (A) (A)
                 (A) (A) (A) (A) (A) (A) (A) (A) (A) (A) (A) (A)
                 (A) (A) (A) (A) (A) (A) (A) (A) (A) (A) (A) (A)
                 (A) (A) (A) (A) (A) (A) (A) (A) (A) (A) (A) (A)
                 (A) (A) (A) (A) (A) (A) (A) (A) (A) (A) (A) (A)
                 (A) (A) (A) (A) (A) (A) (A) (A) (A) (A) (A) (A)
                 (A) (A) (A) (A) (A) (A) (A) (A) (A) (A) (A) (A)
                 (A) (A) (A) (A) (A) (A) (A) (A) (A) (A) (A) (A)
                 (A) (A) (A) (A) (A) (A) (A) (A) (A) (A) (A) (A)
                 (A) (A) (A) (A) (A) (A) (A) (A) (A) (A) (A) (A)
                 (A) (A) (A) (A) (A) (A) (A) (A) (A) (A) (A) (A)
                 (A) (A) (A) (A) (A) (A) (A) (A) (A) (A) (A) (A)
                 (A) (A) (A) (A) (A) (A) (A) (A) (A) (A) (A) (A)
                 (A) (A) (A) (A) (A) (A) (A) (A) (A) (A) (A) (A)
                 (A) (A) (A) (A) (A) (A) (A) (A) (A) (A) (A) (A)
                 (A) (A) (A) (A) (A) (A) (A) (A) (A) (A) (A) (A)
                 (A) (A) (A) (A) (A) (A) (A) (A) (A) (A) (A) (A)
                 (A) (A) (A) (A) (A) (A) (A) (A) (A) (A) (A) (A)
                 (A) (A) (A) (A) (A) (A) (A) (A) (A) (A) (A) (A)
                 (A) (A) (A) (A) (A) (A) (A) (A) (A) (A) (A) (A)
                 (A) (A) (A) (A) (A) (A) (A) (A) (A) (A) (A) (A)
                 (A) (A) (A) (A) (A) (A) (A) (A) (A) (A) (A) (A)
                 (A) (A) (A) (A) (A) (A) (A) (A) (A) (A) (A) (A)
                 (A) (A) (A) (A) (A) (A) (A) (A) (A) (A) (A) (A)
                 (A) (A) (A) (A) (A) (A) (A) (A) (A) (A) (A) (A)
                 (A) (A) (A) (A) (A) (A) (A) (A) (A) (A) (A) (A)
                 (A) (A) (A) (A) (A) (A) (A) (A) (A) (A) (A) (A)
                 (A) (A) (A) (A) (A) (A) (A) (A) (A) (A) (A) (A)
                 (A) (A) (A) (A) (A) (A) (A) (A) (A) (A) (A) (A)
                 (A) (A) (A) (A) (A) (A) (A) (A) (A) (A) (A) (A)
                 (A) (A) (A) (A) (A) (A) (A) (A) (A) (A) (A) (A)
                 (A) (A) (A) (A) (A)
 The electronic state of the initial guess is 1-A.
 Requested convergence on RMS density matrix=1.00D-08 within 128 cycles.
 Requested convergence on MAX density matrix=1.00D-06.
 Requested convergence on             energy=1.00D-06.
 No special actions if energy rises.
 SCF Done:  E(RM062X) =  -426.674236248     A.U. after   13 cycles
             Convg  =    0.2584D-08             -V/T =  2.0048

 **********************************************************************

            Population analysis using the SCF density.

 **********************************************************************

 Orbital symmetries:
       Occupied  (A) (A) (A) (A) (A) (A) (A) (A) (A) (A) (A) (A)
                 (A) (A) (A) (A) (A) (A) (A) (A) (A) (A) (A) (A)
                 (A) (A) (A) (A) (A) (A) (A) (A) (A) (A) (A) (A)
                 (A)
       Virtual   (A) (A) (A) (A) (A) (A) (A) (A) (A) (A) (A) (A)
                 (A) (A) (A) (A) (A) (A) (A) (A) (A) (A) (A) (A)
                 (A) (A) (A) (A) (A) (A) (A) (A) (A) (A) (A) (A)
                 (A) (A) (A) (A) (A) (A) (A) (A) (A) (A) (A) (A)
                 (A) (A) (A) (A) (A) (A) (A) (A) (A) (A) (A) (A)
                 (A) (A) (A) (A) (A) (A) (A) (A) (A) (A) (A) (A)
                 (A) (A) (A) (A) (A) (A) (A) (A) (A) (A) (A) (A)
                 (A) (A) (A) (A) (A) (A) (A) (A) (A) (A) (A) (A)
                 (A) (A) (A) (A) (A) (A) (A) (A) (A) (A) (A) (A)
                 (A) (A) (A) (A) (A) (A) (A) (A) (A) (A) (A) (A)
                 (A) (A) (A) (A) (A) (A) (A) (A) (A) (A) (A) (A)
                 (A) (A) (A) (A) (A) (A) (A) (A) (A) (A) (A) (A)
                 (A) (A) (A) (A) (A) (A) (A) (A) (A) (A) (A) (A)
                 (A) (A) (A) (A) (A) (A) (A) (A) (A) (A) (A) (A)
                 (A) (A) (A) (A) (A) (A) (A) (A) (A) (A) (A) (A)
                 (A) (A) (A) (A) (A) (A) (A) (A) (A) (A) (A) (A)
                 (A) (A) (A) (A) (A) (A) (A) (A) (A) (A) (A) (A)
                 (A) (A) (A) (A) (A) (A) (A) (A) (A) (A) (A) (A)
                 (A) (A) (A) (A) (A) (A) (A) (A) (A) (A) (A) (A)
                 (A) (A) (A) (A) (A) (A) (A) (A) (A) (A) (A) (A)
                 (A) (A) (A) (A) (A) (A) (A) (A) (A) (A) (A) (A)
                 (A) (A) (A) (A) (A) (A) (A) (A) (A) (A) (A) (A)
                 (A) (A) (A) (A) (A) (A) (A) (A) (A) (A) (A) (A)
                 (A) (A) (A) (A) (A) (A) (A) (A) (A) (A) (A) (A)
                 (A) (A) (A) (A) (A) (A) (A) (A) (A) (A) (A) (A)
                 (A) (A) (A) (A) (A) (A) (A) (A) (A) (A) (A) (A)
                 (A) (A) (A) (A) (A) (A) (A) (A) (A) (A) (A) (A)
                 (A) (A) (A) (A) (A) (A) (A) (A) (A) (A) (A) (A)
                 (A) (A) (A) (A) (A) (A) (A) (A) (A) (A) (A) (A)
                 (A) (A) (A) (A) (A) (A) (A) (A) (A) (A) (A) (A)
                 (A) (A) (A) (A) (A) (A) (A) (A) (A) (A) (A) (A)
                 (A) (A) (A) (A) (A) (A) (A) (A) (A) (A) (A) (A)
                 (A) (A) (A) (A) (A) (A) (A) (A) (A) (A) (A) (A)
                 (A) (A) (A) (A) (A) (A) (A) (A) (A) (A) (A) (A)
                 (A) (A) (A) (A) (A)
 The electronic state is 1-A.
 Alpha  occ. eigenvalues --  -19.67867 -19.67597 -10.59132 -10.55357 -10.54070
 Alpha  occ. eigenvalues --  -10.53129 -10.52914 -10.52710 -10.52635  -1.31194
 Alpha  occ. eigenvalues --   -1.01649  -0.92180  -0.84868  -0.77410  -0.77077
 Alpha  occ. eigenvalues --   -0.76905  -0.68873  -0.62940  -0.61182  -0.58729
 Alpha  occ. eigenvalues --   -0.54539  -0.51964  -0.51634  -0.50098  -0.46990
 Alpha  occ. eigenvalues --   -0.46899  -0.46195  -0.45082  -0.43304  -0.42684
 Alpha  occ. eigenvalues --   -0.42461  -0.40484  -0.38165  -0.37955  -0.37142
 Alpha  occ. eigenvalues --   -0.36239  -0.32900
 Alpha virt. eigenvalues --    0.00782   0.02084   0.02697   0.03144   0.04486
 Alpha virt. eigenvalues --    0.04935   0.04999   0.05365   0.06252   0.07110
 Alpha virt. eigenvalues --    0.07947   0.08344   0.08444   0.09101   0.09457
 Alpha virt. eigenvalues --    0.09933   0.11505   0.11692   0.12052   0.12708
 Alpha virt. eigenvalues --    0.14012   0.14435   0.15025   0.16532   0.16713
 Alpha virt. eigenvalues --    0.17947   0.18608   0.19783   0.20210   0.20946
 Alpha virt. eigenvalues --    0.21513   0.21723   0.22334   0.22748   0.23528
 Alpha virt. eigenvalues --    0.23772   0.24305   0.25021   0.25743   0.26018
 Alpha virt. eigenvalues --    0.26230   0.26568   0.26868   0.27666   0.27860
 Alpha virt. eigenvalues --    0.28397   0.29409   0.30203   0.30434   0.31344
 Alpha virt. eigenvalues --    0.31916   0.32700   0.33025   0.33586   0.35353
 Alpha virt. eigenvalues --    0.36680   0.38695   0.39386   0.39946   0.42306
 Alpha virt. eigenvalues --    0.42815   0.44864   0.45793   0.46737   0.47510
 Alpha virt. eigenvalues --    0.48463   0.49244   0.50361   0.52009   0.52506
 Alpha virt. eigenvalues --    0.53337   0.54035   0.56096   0.56916   0.57439
 Alpha virt. eigenvalues --    0.57863   0.58068   0.59456   0.59856   0.60364
 Alpha virt. eigenvalues --    0.60704   0.61416   0.62233   0.62401   0.62758
 Alpha virt. eigenvalues --    0.63569   0.63910   0.64206   0.65744   0.66756
 Alpha virt. eigenvalues --    0.67953   0.69420   0.70235   0.70460   0.71916
 Alpha virt. eigenvalues --    0.72321   0.72624   0.73506   0.74139   0.76366
 Alpha virt. eigenvalues --    0.79188   0.80637   0.81382   0.82028   0.86366
 Alpha virt. eigenvalues --    0.87359   0.88542   0.89483   0.90479   0.91484
 Alpha virt. eigenvalues --    0.95648   0.95874   0.96608   0.97267   0.98830
 Alpha virt. eigenvalues --    0.99537   1.01643   1.02241   1.03618   1.04770
 Alpha virt. eigenvalues --    1.05161   1.06155   1.07529   1.07813   1.08804
 Alpha virt. eigenvalues --    1.09212   1.11562   1.12969   1.13641   1.14572
 Alpha virt. eigenvalues --    1.15305   1.15886   1.17500   1.18074   1.19488
 Alpha virt. eigenvalues --    1.19604   1.22767   1.23635   1.24569   1.25190
 Alpha virt. eigenvalues --    1.26372   1.27551   1.28124   1.28347   1.29487
 Alpha virt. eigenvalues --    1.30191   1.30892   1.31844   1.33064   1.33573
 Alpha virt. eigenvalues --    1.35077   1.35838   1.36658   1.37606   1.38587
 Alpha virt. eigenvalues --    1.39243   1.39861   1.40124   1.41691   1.42669
 Alpha virt. eigenvalues --    1.43466   1.45026   1.45884   1.46483   1.47541
 Alpha virt. eigenvalues --    1.48141   1.48745   1.49565   1.50583   1.51539
 Alpha virt. eigenvalues --    1.51794   1.52827   1.53925   1.57043   1.58630
 Alpha virt. eigenvalues --    1.59192   1.59676   1.61156   1.61374   1.62538
 Alpha virt. eigenvalues --    1.63924   1.64924   1.65356   1.67381   1.68111
 Alpha virt. eigenvalues --    1.69918   1.72139   1.72603   1.73451   1.74800
 Alpha virt. eigenvalues --    1.77453   1.80146   1.81780   1.84169   1.85439
 Alpha virt. eigenvalues --    1.86338   1.93725   2.00748   2.13822   2.17186
 Alpha virt. eigenvalues --    2.31097   2.32649   2.37433   2.38942   2.43380
 Alpha virt. eigenvalues --    2.45542   2.49911   2.54537   2.56300   2.57523
 Alpha virt. eigenvalues --    2.58896   2.59727   2.61709   2.66930   2.68586
 Alpha virt. eigenvalues --    2.70360   2.71284   2.72740   2.74287   2.76697
 Alpha virt. eigenvalues --    2.78873   2.80710   2.82949   2.84189   2.84511
 Alpha virt. eigenvalues --    2.87114   2.89458   2.90729   2.93077   2.95800
 Alpha virt. eigenvalues --    2.96663   2.97054   2.97976   2.99583   3.00552
 Alpha virt. eigenvalues --    3.01008   3.03238   3.04024   3.06004   3.08006
 Alpha virt. eigenvalues --    3.10474   3.11790   3.12931   3.13616   3.17536
 Alpha virt. eigenvalues --    3.19067   3.21045   3.23661   3.24308   3.27855
 Alpha virt. eigenvalues --    3.28539   3.28984   3.31142   3.32330   3.33216
 Alpha virt. eigenvalues --    3.34826   3.35479   3.35762   3.36567   3.38300
 Alpha virt. eigenvalues --    3.39140   3.40353   3.41126   3.44017   3.45480
 Alpha virt. eigenvalues --    3.46312   3.48479   3.52338   3.56073   3.57543
 Alpha virt. eigenvalues --    3.58133   3.58607   3.60612   3.61993   3.62382
 Alpha virt. eigenvalues --    3.63620   3.65279   3.67389   3.67517   3.70335
 Alpha virt. eigenvalues --    3.70651   3.71786   3.72119   3.72771   3.74178
 Alpha virt. eigenvalues --    3.75216   3.75375   3.77219   3.79079   3.79449
 Alpha virt. eigenvalues --    3.82589   3.83329   3.83552   3.86541   3.87327
 Alpha virt. eigenvalues --    3.87689   3.88844   3.91699   3.92871   3.93741
 Alpha virt. eigenvalues --    3.97727   3.98903   4.00801   4.02725   4.04383
 Alpha virt. eigenvalues --    4.04874   4.06006   4.06541   4.07214   4.09537
 Alpha virt. eigenvalues --    4.10580   4.11850   4.12257   4.13342   4.16940
 Alpha virt. eigenvalues --    4.17334   4.18345   4.20721   4.21124   4.22524
 Alpha virt. eigenvalues --    4.22935   4.23304   4.25203   4.26696   4.28051
 Alpha virt. eigenvalues --    4.28456   4.29667   4.31332   4.34183   4.35313
 Alpha virt. eigenvalues --    4.36360   4.38440   4.39979   4.42043   4.42776
 Alpha virt. eigenvalues --    4.45324   4.46610   4.47632   4.49013   4.52141
 Alpha virt. eigenvalues --    4.53961   4.54388   4.56610   4.57677   4.58487
 Alpha virt. eigenvalues --    4.60076   4.61215   4.64264   4.65393   4.65921
 Alpha virt. eigenvalues --    4.68322   4.69066   4.69970   4.70580   4.73510
 Alpha virt. eigenvalues --    4.77715   4.83165   4.90054   4.91533   5.00193
 Alpha virt. eigenvalues --    5.01249   5.04058   5.06183   5.15648   5.18311
 Alpha virt. eigenvalues --    5.20250   5.24042   5.33738   5.34420   5.35066
 Alpha virt. eigenvalues --    5.37731   5.39365   5.40638   5.44852   5.46875
 Alpha virt. eigenvalues --    5.49535   5.52691   5.53906   5.57800   5.58028
 Alpha virt. eigenvalues --    5.58765   5.59619   5.60341   5.60972   5.63003
 Alpha virt. eigenvalues --    5.67366   5.69268   5.83183   5.89210   6.34777
 Alpha virt. eigenvalues --    6.45273   6.57147   6.92464   6.93795   7.03026
 Alpha virt. eigenvalues --    7.04568   7.21212   7.25139   7.37064   7.41563
 Alpha virt. eigenvalues --    7.58402   7.72981   8.02746   8.05855  24.16197
 Alpha virt. eigenvalues --   24.27550  24.33691  24.35045  24.36647  24.42440
 Alpha virt. eigenvalues --   24.45606  50.06011  50.18469
          Condensed to atoms (all electrons):
              1          2          3          4          5          6
     1  C    6.216151   0.366372  -0.834765   0.006543   0.018251   0.104907
     2  C    0.366372   7.510344  -1.694703  -0.025284  -0.301475   0.326311
     3  C   -0.834765  -1.694703   8.262031   0.030748   0.307957  -0.457998
     4  C    0.006543  -0.025284   0.030748   5.661184  -0.145758  -0.165383
     5  C    0.018251  -0.301475   0.307957  -0.145758   5.656119  -0.196652
     6  C    0.104907   0.326311  -0.457998  -0.165383  -0.196652   5.839105
     7  C   -0.097736  -0.435772   0.140934   0.018968  -0.003908  -0.026702
     8  O   -0.049781  -0.021740   0.238155  -0.016858   0.016977  -0.061669
     9  O    0.030400  -0.112971  -0.060131  -0.003767  -0.004942   0.003893
    10  H    0.021697   0.475162  -0.074787  -0.000055  -0.001643  -0.012188
    11  H    0.037787   0.024991   0.339446  -0.017827  -0.004528   0.004556
    12  H   -0.003459  -0.092275   0.469358   0.003109  -0.009488  -0.009243
    13  H    0.001608  -0.075825   0.047681  -0.000765   0.000643  -0.000194
    14  H   -0.010405  -0.011488  -0.033322  -0.000622  -0.001037   0.007066
    15  H    0.005534  -0.024233  -0.013802   0.002248   0.000442  -0.004782
    16  H   -0.044537   0.006932   0.030578   0.442795  -0.034196  -0.017547
    17  H   -0.022397  -0.025483   0.019553   0.397413   0.002833   0.012651
    18  H   -0.021007   0.040434  -0.047318   0.383359   0.015602   0.006979
    19  H    0.001639  -0.000768  -0.026938  -0.027131   0.399436   0.033292
    20  H   -0.057608  -0.000677   0.048036  -0.027228   0.446724  -0.030903
    21  H    0.028958   0.004969  -0.040974   0.037013   0.368410  -0.021527
    22  H   -0.032935   0.020070  -0.038736   0.001419   0.005413   0.411453
    23  H   -0.013311  -0.002815  -0.005910   0.024328  -0.008556   0.389750
    24  H   -0.048188   0.000319   0.040255  -0.021809  -0.018890   0.430032
    25  H   -0.004614   0.072836  -0.049598   0.009190  -0.002960   0.003315
              7          8          9         10         11         12
     1  C   -0.097736  -0.049781   0.030400   0.021697   0.037787  -0.003459
     2  C   -0.435772  -0.021740  -0.112971   0.475162   0.024991  -0.092275
     3  C    0.140934   0.238155  -0.060131  -0.074787   0.339446   0.469358
     4  C    0.018968  -0.016858  -0.003767  -0.000055  -0.017827   0.003109
     5  C   -0.003908   0.016977  -0.004942  -0.001643  -0.004528  -0.009488
     6  C   -0.026702  -0.061669   0.003893  -0.012188   0.004556  -0.009243
     7  C    5.841761  -0.134293   0.092312  -0.030717  -0.017857   0.004169
     8  O   -0.134293   8.140441   0.066449  -0.019780  -0.009933   0.003669
     9  O    0.092312   0.066449   8.040931  -0.011760  -0.000417   0.000263
    10  H   -0.030717  -0.019780  -0.011760   0.479007   0.003918  -0.001891
    11  H   -0.017857  -0.009933  -0.000417   0.003918   0.445932  -0.021823
    12  H    0.004169   0.003669   0.000263  -0.001891  -0.021823   0.460953
    13  H    0.409445  -0.009397   0.003315  -0.004883  -0.000199   0.000252
    14  H    0.416100   0.010385  -0.001825  -0.003639   0.001019   0.000812
    15  H    0.411077  -0.006170   0.000114   0.005216   0.000160  -0.001324
    16  H    0.001084   0.002349  -0.000392  -0.000106  -0.000006  -0.000240
    17  H   -0.001667  -0.003385   0.000885   0.000233  -0.000912   0.000178
    18  H   -0.000422  -0.004700  -0.004605  -0.002744  -0.000492  -0.000168
    19  H   -0.000189   0.000016   0.000032   0.000001   0.000508  -0.000250
    20  H    0.000691  -0.000002  -0.000014  -0.000020  -0.000046  -0.000016
    21  H    0.000203  -0.000027   0.000038   0.000010  -0.000694   0.001027
    22  H    0.008972   0.002336  -0.001813  -0.004988  -0.000274   0.000405
    23  H   -0.003701   0.000212   0.000101  -0.000415   0.000336  -0.001306
    24  H    0.000378  -0.000174  -0.000031   0.000282  -0.000244  -0.000037
    25  H    0.000922  -0.072761   0.210605   0.002249   0.000145   0.000038
             13         14         15         16         17         18
     1  C    0.001608  -0.010405   0.005534  -0.044537  -0.022397  -0.021007
     2  C   -0.075825  -0.011488  -0.024233   0.006932  -0.025483   0.040434
     3  C    0.047681  -0.033322  -0.013802   0.030578   0.019553  -0.047318
     4  C   -0.000765  -0.000622   0.002248   0.442795   0.397413   0.383359
     5  C    0.000643  -0.001037   0.000442  -0.034196   0.002833   0.015602
     6  C   -0.000194   0.007066  -0.004782  -0.017547   0.012651   0.006979
     7  C    0.409445   0.416100   0.411077   0.001084  -0.001667  -0.000422
     8  O   -0.009397   0.010385  -0.006170   0.002349  -0.003385  -0.004700
     9  O    0.003315  -0.001825   0.000114  -0.000392   0.000885  -0.004605
    10  H   -0.004883  -0.003639   0.005216  -0.000106   0.000233  -0.002744
    11  H   -0.000199   0.001019   0.000160  -0.000006  -0.000912  -0.000492
    12  H    0.000252   0.000812  -0.001324  -0.000240   0.000178  -0.000168
    13  H    0.506745  -0.022788  -0.021507  -0.000001   0.000006   0.000027
    14  H   -0.022788   0.542264  -0.031607   0.000000   0.000012  -0.000016
    15  H   -0.021507  -0.031607   0.523573  -0.000001   0.000006  -0.000026
    16  H   -0.000001   0.000000  -0.000001   0.495225  -0.019511  -0.030870
    17  H    0.000006   0.000012   0.000006  -0.019511   0.479303  -0.022412
    18  H    0.000027  -0.000016  -0.000026  -0.030870  -0.022412   0.549447
    19  H   -0.000001  -0.000001  -0.000003   0.000161   0.001151   0.000128
    20  H    0.000000   0.000000   0.000000   0.000859   0.000351   0.000199
    21  H    0.000000   0.000015  -0.000014   0.000274  -0.000155  -0.000471
    22  H    0.000034   0.000001  -0.000022   0.000333   0.000166   0.001957
    23  H    0.000004  -0.000043   0.000006   0.000088  -0.000441   0.000129
    24  H   -0.000002  -0.000003   0.000002   0.000865   0.000105   0.000330
    25  H    0.000119   0.000093  -0.000008  -0.000143  -0.000084   0.001303
             19         20         21         22         23         24
     1  C    0.001639  -0.057608   0.028958  -0.032935  -0.013311  -0.048188
     2  C   -0.000768  -0.000677   0.004969   0.020070  -0.002815   0.000319
     3  C   -0.026938   0.048036  -0.040974  -0.038736  -0.005910   0.040255
     4  C   -0.027131  -0.027228   0.037013   0.001419   0.024328  -0.021809
     5  C    0.399436   0.446724   0.368410   0.005413  -0.008556  -0.018890
     6  C    0.033292  -0.030903  -0.021527   0.411453   0.389750   0.430032
     7  C   -0.000189   0.000691   0.000203   0.008972  -0.003701   0.000378
     8  O    0.000016  -0.000002  -0.000027   0.002336   0.000212  -0.000174
     9  O    0.000032  -0.000014   0.000038  -0.001813   0.000101  -0.000031
    10  H    0.000001  -0.000020   0.000010  -0.004988  -0.000415   0.000282
    11  H    0.000508  -0.000046  -0.000694  -0.000274   0.000336  -0.000244
    12  H   -0.000250  -0.000016   0.001027   0.000405  -0.001306  -0.000037
    13  H   -0.000001   0.000000   0.000000   0.000034   0.000004  -0.000002
    14  H   -0.000001   0.000000   0.000015   0.000001  -0.000043  -0.000003
    15  H   -0.000003   0.000000  -0.000014  -0.000022   0.000006   0.000002
    16  H    0.000161   0.000859   0.000274   0.000333   0.000088   0.000865
    17  H    0.001151   0.000351  -0.000155   0.000166  -0.000441   0.000105
    18  H    0.000128   0.000199  -0.000471   0.001957   0.000129   0.000330
    19  H    0.510048  -0.025106  -0.025012  -0.000420  -0.000029   0.000168
    20  H   -0.025106   0.506627  -0.025378   0.000215   0.000442   0.000749
    21  H   -0.025012  -0.025378   0.517376   0.000143   0.001130   0.000157
    22  H   -0.000420   0.000215   0.000143   0.522312  -0.025465  -0.025891
    23  H   -0.000029   0.000442   0.001130  -0.025465   0.502786  -0.021558
    24  H    0.000168   0.000749   0.000157  -0.025891  -0.021558   0.500633
    25  H    0.000002   0.000001  -0.000001  -0.000415  -0.000002   0.000025
             25
     1  C   -0.004614
     2  C    0.072836
     3  C   -0.049598
     4  C    0.009190
     5  C   -0.002960
     6  C    0.003315
     7  C    0.000922
     8  O   -0.072761
     9  O    0.210605
    10  H    0.002249
    11  H    0.000145
    12  H    0.000038
    13  H    0.000119
    14  H    0.000093
    15  H   -0.000008
    16  H   -0.000143
    17  H   -0.000084
    18  H    0.001303
    19  H    0.000002
    20  H    0.000001
    21  H   -0.000001
    22  H   -0.000415
    23  H   -0.000002
    24  H    0.000025
    25  H    0.558279
 Mulliken atomic charges:
              1
     1  C    0.400900
     2  C   -0.023229
     3  C   -0.595748
     4  C   -0.565831
     5  C   -0.504772
     6  C   -0.568524
     7  C   -0.594052
     8  O   -0.070319
     9  O   -0.246671
    10  H    0.181842
    11  H    0.216454
    12  H    0.197287
    13  H    0.165683
    14  H    0.139028
    15  H    0.155119
    16  H    0.166009
    17  H    0.181602
    18  H    0.135358
    19  H    0.159267
    20  H    0.162104
    21  H    0.154532
    22  H    0.155730
    23  H    0.164240
    24  H    0.162527
    25  H    0.271463
 Sum of Mulliken atomic charges =   0.00000
 Mulliken charges with hydrogens summed into heavy atoms:
              1
     1  C    0.400900
     2  C    0.158614
     3  C   -0.182007
     4  C   -0.082862
     5  C   -0.028869
     6  C   -0.086027
     7  C   -0.134222
     8  O   -0.070319
     9  O    0.024792
 Sum of Mulliken charges with hydrogens summed into heavy atoms =   0.00000
 Electronic spatial extent (au):  <R**2>=           1530.7427
 Charge=              0.0000 electrons
 Dipole moment (field-independent basis, Debye):
    X=              1.3402    Y=              0.0103    Z=              1.1258  Tot=              1.7503
 Quadrupole moment (field-independent basis, Debye-Ang):
   XX=            -64.6250   YY=            -55.4403   ZZ=            -59.7184
   XY=             -0.3858   XZ=             -1.9444   YZ=             -1.9393
 Traceless Quadrupole moment (field-independent basis, Debye-Ang):
   XX=             -4.6971   YY=              4.4876   ZZ=              0.2095
   XY=             -0.3858   XZ=             -1.9444   YZ=             -1.9393
 Octapole moment (field-independent basis, Debye-Ang**2):
  XXX=             -2.5021  YYY=            -18.4832  ZZZ=             -4.1388  XYY=            -12.6981
  XXY=             -1.9931  XXZ=              4.0068  XZZ=             -6.9768  YZZ=             -2.5721
  YYZ=              5.7253  XYZ=              4.2095
 Hexadecapole moment (field-independent basis, Debye-Ang**3):
 XXXX=          -1349.8908 YYYY=           -456.4462 ZZZZ=           -286.2725 XXXY=             -7.0067
 XXXZ=              1.8041 YYYX=             49.1401 YYYZ=             -5.5700 ZZZX=             -3.9473
 ZZZY=             -2.6527 XXYY=           -288.5882 XXZZ=           -269.8181 YYZZ=           -126.5605
 XXYZ=             -7.7859 YYXZ=             -5.7199 ZZXY=              6.5907
 N-N= 5.129601965692D+02 E-N=-2.020661235079D+03  KE= 4.246461839953D+02
 Calling FoFJK, ICntrl=      2127 FMM=F ISym2X=0 I1Cent= 0 IOpClX= 0 NMat=1 NMatS=1 NMatT=0.
 ***** Axes restored to original set *****
 -------------------------------------------------------------------
 Center     Atomic                   Forces (Hartrees/Bohr)
 Number     Number              X              Y              Z
 -------------------------------------------------------------------
      1        6          -0.002667275    0.000021065    0.000726863
      2        6          -0.013748944    0.032426224   -0.009935018
      3        6          -0.002880737   -0.004897911    0.001499945
      4        6           0.000446446   -0.005590277    0.001174325
      5        6          -0.004236619    0.003295936    0.001787240
      6        6           0.001907559   -0.000222864   -0.003848959
      7        6           0.008013492    0.005322078   -0.000460129
      8        8          -0.064277849    0.027164069    0.014456536
      9        8           0.063753147   -0.058414285   -0.026459994
     10        1          -0.003043918   -0.005305805    0.013005751
     11        1           0.003401093   -0.001653245   -0.010841431
     12        1           0.003750986   -0.011778170    0.004882826
     13        1          -0.012806798    0.002695315    0.001440106
     14        1           0.002108270   -0.010125897    0.008293822
     15        1           0.002519358   -0.003292589   -0.012549674
     16        1           0.007961216    0.008336007    0.004225030
     17        1           0.002666163   -0.001180806   -0.013020672
     18        1          -0.010137771    0.005250125    0.005078457
     19        1           0.002620334    0.000236865   -0.012249641
     20        1           0.008979427    0.007487775    0.005952525
     21        1           0.000749136   -0.011232046    0.004814134
     22        1          -0.009879369    0.006332638    0.001906770
     23        1          -0.000194851   -0.011687502    0.003492390
     24        1           0.008561837    0.006807128    0.006666187
     25        1           0.006435666    0.020006173    0.009962609
 -------------------------------------------------------------------
 Cartesian Forces:  Max     0.064277849 RMS     0.015410265

 GradGradGradGradGradGradGradGradGradGradGradGradGradGradGradGradGradGrad
 Berny optimization.
 Internal  Forces:  Max     0.081155028 RMS     0.009262725
 Search for a local minimum.
 Step number   1 out of a maximum of  136
 All quantities printed in internal units (Hartrees-Bohrs-Radians)
 Swaping is turned off.
 Second derivative matrix not updated -- first step.
 ITU=  0
     Eigenvalues ---    0.00230   0.00230   0.00230   0.00230   0.00230
     Eigenvalues ---    0.00312   0.01556   0.02333   0.03090   0.04262
     Eigenvalues ---    0.04655   0.04663   0.04894   0.04955   0.05078
     Eigenvalues ---    0.05382   0.05413   0.05459   0.05479   0.05507
     Eigenvalues ---    0.05514   0.05572   0.05646   0.06906   0.08892
     Eigenvalues ---    0.12613   0.14233   0.14511   0.16000   0.16000
     Eigenvalues ---    0.16000   0.16000   0.16000   0.16000   0.16000
     Eigenvalues ---    0.16000   0.16000   0.16000   0.16000   0.16000
     Eigenvalues ---    0.16000   0.16134   0.19758   0.21982   0.25000
     Eigenvalues ---    0.26668   0.27865   0.28142   0.28144   0.28275
     Eigenvalues ---    0.29031   0.32233   0.32238   0.32288   0.32418
     Eigenvalues ---    0.32422   0.32424   0.32426   0.32428   0.32457
     Eigenvalues ---    0.32471   0.32483   0.32495   0.32545   0.32652
     Eigenvalues ---    0.32657   0.43960   0.49208   0.61548
 Quadratic step=8.506D-01 exceeds max=3.000D-01 adjusted using Lamda=-1.896D-02.
 Angle between NR and scaled steps=  48.18 degrees.
 Angle between quadratic step and forces=  38.44 degrees.
 Linear search not attempted -- option 19 set.
 Iteration  1 RMS(Cart)=  0.04355446 RMS(Int)=  0.00130530
 Iteration  2 RMS(Cart)=  0.00247566 RMS(Int)=  0.00018320
 Iteration  3 RMS(Cart)=  0.00001084 RMS(Int)=  0.00018310
 Iteration  4 RMS(Cart)=  0.00000000 RMS(Int)=  0.00018310
 Variable       Old X    -DE/DX   Delta X   Delta X   Delta X     New X
                                 (Linear)    (Quad)   (Total)
    R1        2.95146  -0.01229   0.00000  -0.04302  -0.04302   2.90844
    R2        2.91541  -0.00720   0.00000  -0.02385  -0.02385   2.89156
    R3        2.91829  -0.00762   0.00000  -0.02535  -0.02535   2.89294
    R4        2.91824  -0.00801   0.00000  -0.02665  -0.02665   2.89159
    R5        2.92436  -0.01313   0.00000  -0.04410  -0.04410   2.88025
    R6        2.89938  -0.00533   0.00000  -0.01723  -0.01723   2.88215
    R7        2.66503   0.00859   0.00000   0.01873   0.01873   2.68376
    R8        2.10320  -0.01206   0.00000  -0.03527  -0.03527   2.06793
    R9        2.10411  -0.01145   0.00000  -0.03354  -0.03354   2.07057
   R10        2.10420  -0.01310   0.00000  -0.03839  -0.03839   2.06581
   R11        2.10068  -0.01217   0.00000  -0.03545  -0.03545   2.06523
   R12        2.09990  -0.01322   0.00000  -0.03846  -0.03846   2.06144
   R13        2.09668  -0.01229   0.00000  -0.03558  -0.03558   2.06109
   R14        2.10071  -0.01252   0.00000  -0.03647  -0.03647   2.06423
   R15        2.10086  -0.01311   0.00000  -0.03821  -0.03821   2.06266
   R16        2.10078  -0.01223   0.00000  -0.03563  -0.03563   2.06516
   R17        2.09659  -0.01181   0.00000  -0.03419  -0.03419   2.06240
   R18        2.10015  -0.01216   0.00000  -0.03540  -0.03540   2.06475
   R19        2.10075  -0.01279   0.00000  -0.03727  -0.03727   2.06349
   R20        2.09858  -0.01312   0.00000  -0.03810  -0.03810   2.06048
   R21        2.09948  -0.01324   0.00000  -0.03849  -0.03849   2.06099
   R22        2.09969  -0.01320   0.00000  -0.03839  -0.03839   2.06131
   R23        2.49736   0.08116   0.00000   0.12791   0.12791   2.62527
   R24        1.87373  -0.02326   0.00000  -0.04551  -0.04551   1.82822
    A1        1.94933   0.00093   0.00000   0.00515   0.00516   1.95449
    A2        1.88368  -0.00112   0.00000  -0.00945  -0.00945   1.87423
    A3        1.93987  -0.00080   0.00000  -0.01006  -0.01004   1.92982
    A4        1.88978   0.00043   0.00000   0.00787   0.00786   1.89764
    A5        1.90996  -0.00045   0.00000  -0.00009  -0.00013   1.90983
    A6        1.88943   0.00104   0.00000   0.00708   0.00701   1.89643
    A7        1.91628   0.00454   0.00000   0.03189   0.03154   1.94782
    A8        1.91178  -0.00514   0.00000  -0.03178  -0.03203   1.87975
    A9        1.90599   0.00134   0.00000   0.01680   0.01543   1.92142
   A10        1.90466   0.00198   0.00000   0.01158   0.01207   1.91673
   A11        1.87912  -0.00030   0.00000   0.01885   0.01820   1.89732
   A12        1.94569  -0.00219   0.00000  -0.04534  -0.04536   1.90033
   A13        2.03152   0.00383   0.00000   0.01573   0.01574   2.04726
   A14        1.90622  -0.00098   0.00000   0.00057   0.00055   1.90676
   A15        1.88168  -0.00024   0.00000   0.00053   0.00061   1.88229
   A16        1.88697  -0.00118   0.00000  -0.00374  -0.00382   1.88316
   A17        1.89455  -0.00265   0.00000  -0.01930  -0.01930   1.87524
   A18        1.85525   0.00104   0.00000   0.00550   0.00543   1.86068
   A19        1.93061  -0.00250   0.00000  -0.01233  -0.01230   1.91831
   A20        1.93140   0.00181   0.00000   0.00856   0.00857   1.93997
   A21        1.94079   0.00123   0.00000   0.00674   0.00675   1.94754
   A22        1.88975   0.00039   0.00000   0.00240   0.00243   1.89217
   A23        1.86825   0.00114   0.00000   0.00938   0.00940   1.87765
   A24        1.90115  -0.00212   0.00000  -0.01497  -0.01498   1.88617
   A25        1.93197   0.00061   0.00000   0.00348   0.00348   1.93545
   A26        1.93717  -0.00094   0.00000  -0.00542  -0.00542   1.93176
   A27        1.93231   0.00090   0.00000   0.00520   0.00520   1.93750
   A28        1.88541   0.00012   0.00000   0.00041   0.00041   1.88582
   A29        1.88977  -0.00073   0.00000  -0.00373  -0.00374   1.88603
   A30        1.88549   0.00000   0.00000  -0.00011  -0.00010   1.88539
   A31        1.94680   0.00077   0.00000   0.00514   0.00514   1.95194
   A32        1.93200   0.00132   0.00000   0.00645   0.00644   1.93845
   A33        1.92939  -0.00107   0.00000  -0.00589  -0.00588   1.92350
   A34        1.89651  -0.00115   0.00000  -0.00659  -0.00660   1.88990
   A35        1.86867   0.00046   0.00000   0.00437   0.00438   1.87305
   A36        1.88831  -0.00040   0.00000  -0.00387  -0.00386   1.88446
   A37        1.92278   0.00038   0.00000   0.00317   0.00315   1.92593
   A38        1.92685   0.00100   0.00000   0.00679   0.00677   1.93363
   A39        1.92750  -0.00130   0.00000  -0.00947  -0.00947   1.91803
   A40        1.88476   0.00001   0.00000   0.00444   0.00439   1.88915
   A41        1.89691   0.00009   0.00000  -0.00183  -0.00183   1.89508
   A42        1.90421  -0.00017   0.00000  -0.00297  -0.00295   1.90126
   A43        1.86551   0.02230   0.00000   0.08290   0.08290   1.94841
   A44        1.83063   0.00050   0.00000   0.00280   0.00280   1.83343
    D1        1.02859   0.00008   0.00000  -0.00249  -0.00249   1.02610
    D2       -1.11340  -0.00036   0.00000  -0.00949  -0.00951  -1.12291
    D3       -3.12223  -0.00095   0.00000  -0.01655  -0.01654  -3.13877
    D4        3.10390   0.00044   0.00000   0.00421   0.00418   3.10808
    D5        0.96191   0.00000   0.00000  -0.00279  -0.00284   0.95907
    D6       -1.04692  -0.00058   0.00000  -0.00984  -0.00987  -1.05679
    D7       -1.10994   0.00056   0.00000   0.00119   0.00123  -1.10871
    D8        3.03125   0.00012   0.00000  -0.00581  -0.00579   3.02547
    D9        1.02243  -0.00047   0.00000  -0.01287  -0.01282   1.00961
   D10        2.98469  -0.00005   0.00000   0.00340   0.00341   2.98810
   D11        0.89040  -0.00009   0.00000   0.00286   0.00288   0.89328
   D12       -1.22502   0.00054   0.00000   0.01144   0.01145  -1.21357
   D13        0.91301   0.00050   0.00000   0.00697   0.00695   0.91996
   D14       -1.18128   0.00046   0.00000   0.00642   0.00641  -1.17487
   D15        2.98649   0.00109   0.00000   0.01501   0.01498   3.00147
   D16       -1.14294  -0.00075   0.00000  -0.00597  -0.00597  -1.14891
   D17        3.04595  -0.00078   0.00000  -0.00652  -0.00650   3.03945
   D18        0.93053  -0.00015   0.00000   0.00207   0.00207   0.93260
   D19       -1.05596  -0.00064   0.00000  -0.00804  -0.00804  -1.06400
   D20        3.13370  -0.00059   0.00000  -0.00729  -0.00729   3.12641
   D21        1.03984  -0.00057   0.00000  -0.00702  -0.00701   1.03283
   D22        1.05688   0.00008   0.00000  -0.00281  -0.00284   1.05404
   D23       -1.03665   0.00013   0.00000  -0.00206  -0.00209  -1.03873
   D24       -3.13050   0.00015   0.00000  -0.00179  -0.00181  -3.13231
   D25        3.12592   0.00036   0.00000   0.00538   0.00540   3.13133
   D26        1.03239   0.00041   0.00000   0.00613   0.00616   1.03855
   D27       -1.06146   0.00043   0.00000   0.00640   0.00644  -1.05502
   D28        1.21179   0.00015   0.00000  -0.00821  -0.00818   1.20361
   D29       -0.90222   0.00018   0.00000  -0.00777  -0.00775  -0.90998
   D30       -2.99432   0.00051   0.00000  -0.00328  -0.00326  -2.99758
   D31       -0.94933  -0.00018   0.00000  -0.00781  -0.00781  -0.95714
   D32       -3.06334  -0.00015   0.00000  -0.00737  -0.00738  -3.07073
   D33        1.12775   0.00018   0.00000  -0.00288  -0.00289   1.12486
   D34       -3.00551  -0.00104   0.00000  -0.02124  -0.02125  -3.02676
   D35        1.16366  -0.00101   0.00000  -0.02080  -0.02082   1.14284
   D36       -0.92843  -0.00067   0.00000  -0.01631  -0.01633  -0.94476
   D37        2.91256  -0.00020   0.00000  -0.01381  -0.01354   2.89901
   D38       -1.21863   0.00030   0.00000  -0.00480  -0.00453  -1.22316
   D39        0.78696  -0.00047   0.00000  -0.01027  -0.00993   0.77704
   D40       -1.27939   0.00185   0.00000   0.00038   0.00027  -1.27912
   D41        0.87261   0.00234   0.00000   0.00939   0.00928   0.88189
   D42        2.87820   0.00158   0.00000   0.00393   0.00388   2.88209
   D43        0.85598  -0.00328   0.00000  -0.06521  -0.06544   0.79053
   D44        3.00798  -0.00278   0.00000  -0.05620  -0.05643   2.95154
   D45       -1.26962  -0.00355   0.00000  -0.06167  -0.06183  -1.33144
   D46       -3.13512  -0.00284   0.00000  -0.03951  -0.03955   3.10851
   D47       -1.05498  -0.00195   0.00000  -0.02774  -0.02776  -1.08274
   D48        1.05242  -0.00236   0.00000  -0.03321  -0.03325   1.01917
   D49        1.05249  -0.00053   0.00000  -0.02714  -0.02725   1.02523
   D50        3.13263   0.00036   0.00000  -0.01538  -0.01546   3.11717
   D51       -1.04315  -0.00005   0.00000  -0.02085  -0.02095  -1.06410
   D52       -1.06191   0.00114   0.00000   0.00961   0.00973  -1.05219
   D53        1.01823   0.00203   0.00000   0.02137   0.02152   1.03975
   D54        3.12563   0.00162   0.00000   0.01591   0.01603  -3.14152
   D55        2.77411  -0.00026   0.00000   0.03978   0.04044   2.81456
   D56       -1.41073   0.00339   0.00000   0.06655   0.06659  -1.34414
   D57        0.66261   0.00294   0.00000   0.06951   0.06881   0.73142
   D58       -1.88026   0.00072   0.00000   0.01699   0.01699  -1.86327
         Item               Value     Threshold  Converged?
 Maximum Force            0.081155     0.000002     NO 
 RMS     Force            0.009263     0.000001     NO 
 Maximum Displacement     0.196281     0.000006     NO 
 RMS     Displacement     0.044971     0.000004     NO 
 Predicted change in Energy=-1.307540D-02
 GradGradGradGradGradGradGradGradGradGradGradGradGradGradGradGradGradGrad

                          Input orientation:                          
 ---------------------------------------------------------------------
 Center     Atomic      Atomic             Coordinates (Angstroms)
 Number     Number       Type             X           Y           Z
 ---------------------------------------------------------------------
      1          6           0       -1.062957   -0.207775   -0.608325
      2          6           0        1.376718    0.427989    0.089795
      3          6           0       -0.112369    0.750445    0.131240
      4          6           0       -0.958507   -1.639751   -0.079276
      5          6           0       -2.490007    0.297458   -0.380622
      6          6           0       -0.774155   -0.198085   -2.110955
      7          6           0        2.220422    1.610328    0.554957
      8          8           0        1.600815   -0.687494    0.939737
      9          8           0        2.809765   -1.311295    0.658167
     10          1           0        1.675644    0.162692   -0.928907
     11          1           0       -0.413212    0.817579    1.182687
     12          1           0       -0.243599    1.748237   -0.295644
     13          1           0        3.278420    1.346718    0.549113
     14          1           0        2.078964    2.469147   -0.102224
     15          1           0        1.937849    1.891307    1.570358
     16          1           0       -1.750102   -2.255594   -0.513422
     17          1           0       -1.057698   -1.666373    1.006745
     18          1           0       -0.003768   -2.096338   -0.343080
     19          1           0       -2.738826    0.295672    0.683006
     20          1           0       -3.211098   -0.338192   -0.897706
     21          1           0       -2.608946    1.317359   -0.754707
     22          1           0        0.188679   -0.656935   -2.342271
     23          1           0       -0.771157    0.821498   -2.503712
     24          1           0       -1.540327   -0.762972   -2.645967
     25          1           0        2.569250   -2.135725    0.212711
 ---------------------------------------------------------------------
                    Distance matrix (angstroms):
                    1          2          3          4          5
     1  C    0.000000
     2  C    2.616024   0.000000
     3  C    1.539078   1.524164   0.000000
     4  C    1.530149   3.123686   2.544269   0.000000
     5  C    1.530876   3.897421   2.473937   2.487786   0.000000
     6  C    1.530162   3.140307   2.522917   2.498020   2.486717
     7  C    3.929287   1.525168   2.522072   4.590300   4.978662
     8  O    3.118061   1.420184   2.378305   2.914672   4.410023
     9  O    4.221342   2.324172   3.614871   3.853775   5.635135
    10  H    2.782077   1.094301   2.160175   3.302942   4.203740
    11  H    2.163618   2.133084   1.095699   2.815736   2.650950
    12  H    2.143619   2.125334   1.093179   3.469348   2.675506
    13  H    4.754331   2.161366   3.468084   5.221630   5.936337
    14  H    4.158572   2.167106   2.794706   5.109775   5.066481
    15  H    4.261178   2.155977   2.752457   4.855775   5.094368
    16  H    2.162114   4.164432   3.483394   1.092871   2.661422
    17  H    2.176232   3.339690   2.738826   1.090866   2.798736
    18  H    2.181492   2.909527   2.888070   1.090684   3.451529
    19  H    2.174749   4.160182   2.722048   2.737969   1.092345
    20  H    2.171465   4.755023   3.441799   2.727278   1.091512
    21  H    2.176590   4.170094   2.709094   3.453209   1.092833
    22  H    2.185156   2.916067   2.861749   2.720866   3.454605
    23  H    2.176475   3.390353   2.716987   3.459875   2.781470
    24  H    2.165205   4.172761   3.470212   2.774015   2.675480
    25  H    4.193330   2.830171   3.940520   3.574397   5.645219
                    6          7          8          9         10
     6  C    0.000000
     7  C    4.398288   0.000000
     8  O    3.897015   2.410799   0.000000
     9  O    4.663878   2.982257   1.389233   0.000000
    10  H    2.743887   2.143428   2.054324   2.444928   0.000000
    11  H    3.465535   2.821086   2.525980   3.898052   3.041551
    12  H    2.713856   2.610352   3.295575   4.426457   2.568749
    13  H    5.087804   1.090360   2.665513   2.701215   2.480998
    14  H    4.391972   1.090627   3.358376   3.924794   2.483104
    15  H    5.027186   1.090796   2.676096   3.442236   3.050113
    16  H    2.781713   5.643744   3.974828   4.801739   4.213843
    17  H    3.457791   4.656925   2.833794   3.899340   3.816201
    18  H    2.705964   4.415072   2.491014   3.087839   2.875210
    19  H    3.451079   5.132139   4.457018   5.776662   4.701436
    20  H    2.725856   5.950492   5.162627   6.294319   4.912444
    21  H    2.739057   5.012369   4.961115   6.186150   4.440869
    22  H    1.091376   4.202665   3.573044   4.037438   2.209175
    23  H    1.092620   4.350546   4.445295   5.231566   2.983433
    24  H    1.091949   5.479206   4.767573   5.490105   3.761332
    25  H    4.509127   3.777794   1.887805   0.967452   2.717452
                   11         12         13         14         15
    11  H    0.000000
    12  H    1.755094   0.000000
    13  H    3.782797   3.644097   0.000000
    14  H    3.254169   2.439553   1.767139   0.000000
    15  H    2.613555   2.874221   1.771059   1.775202   0.000000
    16  H    3.756122   4.283415   6.276278   6.095409   5.927893
    17  H    2.572224   3.744134   5.300006   5.307635   4.684875
    18  H    3.314593   3.852340   4.839772   5.023887   4.830366
    19  H    2.435272   3.048583   6.109818   5.343377   5.020432
    20  H    3.673146   3.677188   6.859012   6.041415   6.129735
    21  H    2.970609   2.447705   6.030081   4.871227   5.138938
    22  H    3.868048   3.187539   4.682011   4.285252   4.986161
    23  H    3.703738   2.452086   5.098496   4.074933   5.008118
    24  H    4.292683   3.675826   6.154644   5.478730   6.076208
    25  H    4.307893   4.822417   3.569804   4.641596   4.296378
                   16         17         18         19         20
    16  H    0.000000
    17  H    1.771302   0.000000
    18  H    1.761835   1.765692   0.000000
    19  H    2.986298   2.603962   3.775594   0.000000
    20  H    2.441027   3.166722   3.699413   1.767335   0.000000
    21  H    3.682638   3.796279   4.313898   1.768539   1.767451
    22  H    3.107937   3.713264   2.470968   4.316254   3.707674
    23  H    3.793163   4.312182   3.710927   3.781981   3.142840
    24  H    2.611451   3.793596   3.072811   3.693128   2.455266
    25  H    4.381602   3.742397   2.632655   5.857349   6.154394
                   21         22         23         24         25
    21  H    0.000000
    22  H    3.774242   0.000000
    23  H    2.585027   1.770060   0.000000
    24  H    3.007755   1.758674   1.767032   0.000000
    25  H    6.298682   3.792344   5.223259   5.190868   0.000000
 Stoichiometry    C7H16O2
 Framework group  C1[X(C7H16O2)]
 Deg. of freedom    69
 Full point group                 C1      NOp   1
 Largest Abelian subgroup         C1      NOp   1
 Largest concise Abelian subgroup C1      NOp   1
                         Standard orientation:                         
 ---------------------------------------------------------------------
 Center     Atomic      Atomic             Coordinates (Angstroms)
 Number     Number       Type             X           Y           Z
 ---------------------------------------------------------------------
      1          6           0        1.451077   -0.034889    0.008269
      2          6           0       -1.101992    0.510657    0.175005
      3          6           0        0.269760    0.870553   -0.383426
      4          6           0        1.225069   -1.487322   -0.416840
      5          6           0        2.694003    0.499227   -0.708274
      6          6           0        1.694224    0.021532    1.517936
      7          6           0       -2.097320    1.652738   -0.001374
      8          8           0       -1.561992   -0.640362   -0.518160
      9          8           0       -2.577311   -1.285229    0.176996
     10          1           0       -1.023865    0.274595    1.240681
     11          1           0        0.189586    0.907517   -1.475562
     12          1           0        0.502062    1.886247   -0.052607
     13          1           0       -3.078752    1.361707    0.374093
     14          1           0       -1.771376    2.538199    0.545605
     15          1           0       -2.190252    1.904155   -1.058724
     16          1           0        2.139793   -2.065971   -0.265803
     17          1           0        0.947231   -1.550587   -1.469833
     18          1           0        0.436097   -1.959082    0.170150
     19          1           0        2.563380    0.465528   -1.792257
     20          1           0        3.571681   -0.098067   -0.454662
     21          1           0        2.895861    1.534774   -0.423353
     22          1           0        0.886610   -0.453877    2.077262
     23          1           0        1.788015    1.054223    1.862278
     24          1           0        2.617732   -0.503232    1.771131
     25          1           0       -2.168305   -2.086377    0.533140
 ---------------------------------------------------------------------
 Rotational constants (GHZ):      2.4289513      0.9882177      0.8577964
 Standard basis: 6-311+G(2df,2p) (5D, 7F)
 There are   450 symmetry adapted basis functions of A   symmetry.
 Integral buffers will be    131072 words long.
 Raffenetti 2 integral format.
 Two-electron integral symmetry is turned on.
   450 basis functions,   644 primitive gaussians,   495 cartesian basis functions
    37 alpha electrons       37 beta electrons
       nuclear repulsion energy       514.1623404429 Hartrees.
 NAtoms=   25 NActive=   25 NUniq=   25 SFac= 1.00D+00 NAtFMM=   50 NAOKFM=F Big=F
 One-electron integrals computed using PRISM.
 NBasis=   450 RedAO= T  NBF=   450
 NBsUse=   450 1.00D-06 NBFU=   450
 Initial guess read from the read-write file.
 B after Tr=     0.000000    0.000000    0.000000
         Rot=    1.000000    0.000000    0.000000    0.000000 Ang=   0.00 deg.
 Initial guess orbital symmetries:
       Occupied  (A) (A) (A) (A) (A) (A) (A) (A) (A) (A) (A) (A)
                 (A) (A) (A) (A) (A) (A) (A) (A) (A) (A) (A) (A)
                 (A) (A) (A) (A) (A) (A) (A) (A) (A) (A) (A) (A)
                 (A)
       Virtual   (A) (A) (A) (A) (A) (A) (A) (A) (A) (A) (A) (A)
                 (A) (A) (A) (A) (A) (A) (A) (A) (A) (A) (A) (A)
                 (A) (A) (A) (A) (A) (A) (A) (A) (A) (A) (A) (A)
                 (A) (A) (A) (A) (A) (A) (A) (A) (A) (A) (A) (A)
                 (A) (A) (A) (A) (A) (A) (A) (A) (A) (A) (A) (A)
                 (A) (A) (A) (A) (A) (A) (A) (A) (A) (A) (A) (A)
                 (A) (A) (A) (A) (A) (A) (A) (A) (A) (A) (A) (A)
                 (A) (A) (A) (A) (A) (A) (A) (A) (A) (A) (A) (A)
                 (A) (A) (A) (A) (A) (A) (A) (A) (A) (A) (A) (A)
                 (A) (A) (A) (A) (A) (A) (A) (A) (A) (A) (A) (A)
                 (A) (A) (A) (A) (A) (A) (A) (A) (A) (A) (A) (A)
                 (A) (A) (A) (A) (A) (A) (A) (A) (A) (A) (A) (A)
                 (A) (A) (A) (A) (A) (A) (A) (A) (A) (A) (A) (A)
                 (A) (A) (A) (A) (A) (A) (A) (A) (A) (A) (A) (A)
                 (A) (A) (A) (A) (A) (A) (A) (A) (A) (A) (A) (A)
                 (A) (A) (A) (A) (A) (A) (A) (A) (A) (A) (A) (A)
                 (A) (A) (A) (A) (A) (A) (A) (A) (A) (A) (A) (A)
                 (A) (A) (A) (A) (A) (A) (A) (A) (A) (A) (A) (A)
                 (A) (A) (A) (A) (A) (A) (A) (A) (A) (A) (A) (A)
                 (A) (A) (A) (A) (A) (A) (A) (A) (A) (A) (A) (A)
                 (A) (A) (A) (A) (A) (A) (A) (A) (A) (A) (A) (A)
                 (A) (A) (A) (A) (A) (A) (A) (A) (A) (A) (A) (A)
                 (A) (A) (A) (A) (A) (A) (A) (A) (A) (A) (A) (A)
                 (A) (A) (A) (A) (A) (A) (A) (A) (A) (A) (A) (A)
                 (A) (A) (A) (A) (A) (A) (A) (A) (A) (A) (A) (A)
                 (A) (A) (A) (A) (A) (A) (A) (A) (A) (A) (A) (A)
                 (A) (A) (A) (A) (A) (A) (A) (A) (A) (A) (A) (A)
                 (A) (A) (A) (A) (A) (A) (A) (A) (A) (A) (A) (A)
                 (A) (A) (A) (A) (A) (A) (A) (A) (A) (A) (A) (A)
                 (A) (A) (A) (A) (A) (A) (A) (A) (A) (A) (A) (A)
                 (A) (A) (A) (A) (A) (A) (A) (A) (A) (A) (A) (A)
                 (A) (A) (A) (A) (A) (A) (A) (A) (A) (A) (A) (A)
                 (A) (A) (A) (A) (A) (A) (A) (A) (A) (A) (A) (A)
                 (A) (A) (A) (A) (A) (A) (A) (A) (A) (A) (A) (A)
                 (A) (A) (A) (A) (A)
 Harris functional with IExCor= 1009 diagonalized for initial guess.
 ExpMin= 4.38D-02 ExpMax= 8.59D+03 ExpMxC= 1.30D+03 IAcc=2 IRadAn=         0 AccDes= 0.00D+00
 HarFok:  IExCor= 1009 AccDes= 0.00D+00 IRadAn=         0 IDoV= 1
 ScaDFX=  1.000000  1.000000  1.000000  1.000000
 FoFCou: FMM=F IPFlag=           0 FMFlag=      100000 FMFlg1=           0
         NFxFlg=           0 DoJE=T BraDBF=F KetDBF=T FulRan=T
         Omega=  0.000000  0.000000  1.000000  0.000000  0.000000 ICntrl=     500 IOpCl=  0
         NMat0=    1 NMatS0=    1 NMatT0=    0 NMatD0=    1 NMtDS0=    0 NMtDT0=    0
         I1Cent=           4 NGrid=           0.
 Petite list used in FoFCou.
 Requested convergence on RMS density matrix=1.00D-08 within 128 cycles.
 Requested convergence on MAX density matrix=1.00D-06.
 Requested convergence on             energy=1.00D-06.
 No special actions if energy rises.
 SCF Done:  E(RM062X) =  -426.686830681     A.U. after   12 cycles
             Convg  =    0.4722D-08             -V/T =  2.0039
 Calling FoFJK, ICntrl=      2127 FMM=F ISym2X=0 I1Cent= 0 IOpClX= 0 NMat=1 NMatS=1 NMatT=0.
 ***** Axes restored to original set *****
 -------------------------------------------------------------------
 Center     Atomic                   Forces (Hartrees/Bohr)
 Number     Number              X              Y              Z
 -------------------------------------------------------------------
[...]
 0671,0.00001713,-0.00000350,-0.00001529,-0.00000609,-0.00000699,0.0031
 0985,0.00208613,-0.01778322,0.00245023,0.05583785,0.00094882,0.0002491
 6,-0.00816884,0.00010497,0.00038709,-0.00058501,-0.00009243,-0.0004951
 9,0.00073480,0.02477619,0.03118219,-0.30913128,0.00018671,-0.00063881,
 0.00021473,-0.00059950,0.00230133,0.00104782,0.00001077,-0.00007036,0.
 00011663,-0.00096366,-0.00048191,0.00012167,-0.00024486,-0.00021219,0.
 00009908,-0.00010893,0.00005461,0.00012187,0.00034739,0.00048252,0.000
 24504,-0.00010465,0.00001469,0.00013360,0.00002421,0.00002441,-0.00000
 879,-0.00001880,-0.00005000,0.00001078,0.00001457,0.00002877,0.0000055
 9,0.00193455,0.00178181,-0.01248153,-0.02597010,-0.03566748,0.33473069
 ,-0.00385015,0.00084372,0.00110041,-0.00003006,0.00015005,-0.00028225,
 -0.00013951,0.00020411,-0.00041762,-0.26250441,0.07695238,0.06719690,0
 .00110409,0.00161678,-0.00077058,0.00031260,-0.00056092,0.00028135,0.0
 0014468,-0.00011302,-0.00006140,-0.00044447,-0.00123969,-0.00072842,0.
 00038663,-0.00034874,0.00013476,-0.00035409,-0.00043473,0.00004307,-0.
 00001353,0.00000754,-0.00007254,0.00007153,0.00015577,0.00004725,0.000
 04073,0.00003568,0.00000076,-0.00001488,0.00000015,0.00001513,-0.00006
 584,-0.00004204,-0.00000517,-0.01901491,0.00719819,0.00663621,-0.00219
 002,0.00018591,-0.00006623,0.28571928,0.02972951,-0.00884083,-0.009203
 42,-0.00012900,-0.00108085,-0.00094117,0.00086423,0.00119846,-0.000095
 54,0.07511107,-0.07275702,-0.02262521,-0.00054776,-0.00645617,0.001997
 38,0.00054787,0.00129390,-0.00146786,-0.00025736,0.00014080,0.00033823
 ,0.00058909,0.00065121,0.00069546,-0.00026934,0.00003474,0.00007858,-0
 .00083790,-0.00025545,0.00041077,-0.00007645,-0.00004231,0.00009202,-0
 .00005730,0.00013519,0.00018794,-0.00001911,-0.00002731,-0.00000021,0.
 00000433,0.00002901,-0.00003991,0.00011669,0.00012890,0.00006439,-0.01
 619967,0.00584727,0.00616407,-0.00402684,0.00054078,0.00067268,-0.0851
 8960,0.07962987,-0.00776986,0.00215046,0.00042413,0.00003297,-0.000952
 79,0.00088337,0.00064694,-0.00020209,-0.00007234,0.06635752,-0.0232942
 6,-0.06638977,-0.00033758,0.00159156,-0.00029518,-0.00108996,0.0001178
 2,0.00080785,-0.00004431,0.00009774,-0.00013277,0.00075745,0.00084660,
 -0.00019583,-0.00015656,0.00026540,-0.00001714,0.00022590,0.00026912,-
 0.00011119,0.00003937,0.00000706,0.00001943,-0.00012377,-0.00001341,-0
 .00001718,-0.00003328,-0.00003674,0.00001144,0.00003391,0.00008645,-0.
 00001960,0.00001335,0.00000785,0.00001720,-0.01386078,0.00586918,0.003
 99297,0.02890554,-0.01048677,-0.00781274,-0.07281383,0.02336851,0.0679
 4286,-0.00595085,-0.00510570,0.02992705,0.00005830,0.00017349,-0.00021
 269,0.00144975,0.00037916,0.00179421,0.00107252,-0.00128513,0.00064951
 ,-0.05463039,-0.00677051,0.04380781,-0.00589919,0.00177006,0.00036784,
 0.00005702,-0.00005383,-0.00001613,-0.00003153,0.00005018,-0.00009013,
 0.00005528,-0.00001627,-0.00003954,0.00019126,-0.00007196,0.00002520,-
 0.00043509,-0.00030558,-0.00076799,-0.00004644,0.00004287,-0.00005779,
 0.00002117,0.00002118,0.00001284,0.00000595,0.00001727,-0.00000477,-0.
 00002441,-0.00001446,-0.00001008,-0.00003518,0.00011388,-0.00014365,0.
 00003996,0.00044858,-0.00058434,0.00009849,-0.00026568,-0.00026148,0.0
 6042949,0.00150888,-0.00031353,-0.00942939,-0.00002922,-0.00006690,-0.
 00019914,-0.00039458,-0.00022420,0.00057847,-0.00000639,0.00070703,-0.
 00109066,-0.00725728,-0.05340504,0.03831839,0.00177631,-0.00056684,-0.
 00040149,-0.00002978,0.00001522,0.00001928,-0.00003783,-0.00004601,0.0
 0001842,0.00000630,-0.00003245,0.00000339,0.00006065,-0.00002010,-0.00
 000459,-0.00039373,0.00021131,-0.00007354,-0.00001275,0.00004101,0.000
 13415,0.00000132,-0.00000546,-0.00001020,0.00000357,-0.00000446,-0.000
 00325,-0.00001131,-0.00000762,-0.00000917,-0.00013525,-0.00007725,-0.0
 0011685,0.00026316,0.00009883,0.00029457,-0.00022553,0.00003435,0.0001
 1085,0.00593098,0.05327783,0.00052950,0.00104666,-0.00840860,0.0001299
 8,-0.00001694,0.00026202,-0.00093415,-0.00014747,0.00042278,-0.0007339
 9,0.00039281,0.00043080,0.04521410,0.03780726,-0.29606735,0.00256155,-
 0.00100198,0.00089247,0.00000741,-0.00000646,0.00001176,0.00003626,-0.
 00002225,0.00008138,0.00000309,-0.00003857,0.00004216,-0.00016865,0.00
 005538,0.00004963,0.00015273,0.00034706,0.00054232,-0.00003953,-0.0001
 2262,-0.00001859,0.00001247,0.00000287,-0.00000659,-0.00000942,-0.0000
 1376,0.00000202,0.00000687,0.00001038,0.00001165,0.00014377,-0.0000433
 3,-0.00017422,0.00022554,-0.00061679,0.00043339,-0.00001111,-0.0000429
 3,0.00033592,-0.05104485,-0.04119239,0.32144209,-0.02079599,-0.0170117
 1,-0.01662830,-0.00019925,-0.00197996,-0.00095092,-0.00560997,0.003472
 41,0.00212633,0.00098512,-0.00169994,-0.00036960,-0.15788931,-0.091681
 35,-0.09156920,0.00099832,-0.00067780,-0.00154842,-0.00063780,0.000424
 94,-0.00001594,0.00005064,0.00001582,0.00012803,-0.00019082,0.00025148
 ,-0.00007733,-0.00001265,0.00006642,0.00008290,0.00017082,0.00027180,0
 .00008488,0.00015936,-0.00004255,0.00019184,-0.00017971,-0.00019498,-0
 .00002857,0.00002078,-0.00000772,0.00001594,0.00003777,0.00000532,-0.0
 0000354,0.00030105,0.00100837,0.00013781,-0.00002103,0.00006496,0.0000
 8511,0.00038345,0.00003777,0.00031472,0.00416403,0.00426842,0.00339310
 ,0.17464201,0.00613458,0.00337555,0.00519450,0.00061335,0.00059486,-0.
 00000620,0.00103824,-0.00002712,-0.00009048,0.00056180,0.00119980,0.00
 058564,-0.09251402,-0.12318870,-0.07568644,0.00000738,0.00012205,0.000
 30354,0.00011535,-0.00006655,0.00003988,-0.00012364,0.00004082,-0.0000
 0030,-0.00007900,0.00006294,-0.00004472,-0.00009509,0.00005552,0.00002
 189,0.00021219,-0.00018667,0.00001512,0.00032344,0.00033653,-0.0000648
 2,0.00002720,0.00004029,0.00000906,0.00000265,-0.00000838,-0.00001270,
 0.00001353,0.00000038,0.00001818,0.00010313,-0.00005291,-0.00023780,0.
 00000806,-0.00008307,0.00007110,-0.00017818,0.00013094,0.00004002,0.00
 453956,0.00267559,0.00310298,0.10014619,0.13027288,0.00541484,0.004186
 48,0.00250686,0.00043922,0.00000335,0.00074870,0.00101075,-0.00016964,
 -0.00027342,-0.00015300,0.00012284,-0.00017770,-0.09240485,-0.07565880
 ,-0.12288763,0.00084649,0.00052947,0.00096466,0.00001212,0.00000227,0.
 00000655,0.00007945,0.00004804,-0.00004124,-0.00001795,0.00001135,0.00
 001394,-0.00014708,0.00004833,0.00001434,0.00014715,0.00012047,0.00051
 803,-0.00003051,-0.00021210,-0.00005234,0.00000615,0.00000460,-0.00000
 919,0.00000466,0.00000972,-0.00000139,0.00001697,0.00000454,0.00000687
 ,-0.00024596,0.00025088,0.00019670,-0.00008337,-0.00011577,-0.00004113
 ,0.00011248,0.00022066,0.00003008,-0.02080637,-0.01741642,-0.01500175,
 0.10013794,0.08394289,0.12952804,-0.00416983,0.02969555,-0.00709790,-0
 .00000587,0.00009460,0.00016206,0.00146288,0.00147996,0.00002097,-0.00
 599486,0.00076454,0.00184361,-0.05159956,0.03215218,-0.00730284,0.0009
 7269,0.00042867,-0.00143165,0.00004829,-0.00006760,-0.00002300,0.00003
 884,-0.00012700,-0.00003522,0.00011444,-0.00016308,0.00003888,0.000097
 48,-0.00000944,-0.00003735,0.00005304,-0.00013022,-0.00014772,-0.00054
 505,-0.00063830,0.00007941,0.00002823,0.00001662,0.00000811,-0.0000240
 7,-0.00001472,0.00001656,-0.00002797,-0.00000606,-0.00001287,0.0001159
 0,0.00004281,0.00023239,-0.00001973,-0.00021297,-0.00005519,-0.0002586
 3,0.00208586,-0.00035186,-0.00038282,-0.00576407,0.00066221,0.00311900
 ,-0.02063695,0.00581060,0.05684062,0.00042398,-0.00976321,0.00218604,0
 .00022449,0.00016172,-0.00012822,-0.00124509,0.00052226,-0.00013517,0.
 00265619,0.00066333,-0.00129111,0.03309967,-0.29313250,0.05296779,-0.0
 0062719,0.00015034,0.00040125,0.00006128,-0.00002836,0.00002590,-0.000
 04136,0.00018241,0.00002599,-0.00003309,0.00007939,-0.00004015,-0.0000
 5634,0.00000848,0.00003238,0.00024106,-0.00011742,0.00002815,0.0002804
 6,0.00052387,0.00016928,0.00001369,0.00001396,0.00000215,0.00000951,0.
 00001134,-0.00001575,0.00000625,0.00000372,0.00001382,-0.00007991,0.00
 045669,0.00007339,-0.00016295,0.00013087,0.00004714,0.00025883,-0.0006
 5925,0.00027141,0.00023381,-0.00334537,0.00028513,0.00263316,-0.015368
 27,0.00410173,-0.03815983,0.31882964,0.00042975,-0.00710530,-0.0002187
 3,-0.00005417,-0.00009447,-0.00015166,-0.00025289,0.00020092,0.0001400
 6,0.00102891,-0.00055003,-0.00018494,-0.00755557,0.05322479,-0.0589242
 9,-0.00018733,-0.00111788,0.00077159,-0.00001380,-0.00000023,0.0000188
 4,0.00000201,-0.00000599,-0.00001926,0.00000067,-0.00002197,0.00001666
 ,0.00007247,-0.00004184,-0.00000471,0.00007208,0.00023788,-0.00020948,
 -0.00030144,0.00006466,0.00019513,0.00000359,-0.00000837,-0.00000478,-
 0.00000521,0.00000181,0.00000732,-0.00001139,-0.00000100,-0.00002054,0
 .00019005,0.00027419,-0.00002510,0.00015047,-0.00028806,0.00035369,0.0
 0019427,-0.00026135,0.00068163,-0.00443247,0.03097148,-0.00521779,0.00
 340766,-0.01747249,0.00370080,0.00708611,-0.05824845,0.05924822,-0.003
 84118,0.00116300,0.00075436,-0.00065449,0.00051608,-0.00009101,-0.0003
 5785,-0.00029482,0.00027058,0.00016961,0.00013340,-0.00041999,0.000946
 77,-0.00074630,0.00169394,-0.27508404,0.06386254,0.06425889,0.00019192
 ,-0.00010479,-0.00005530,0.00001917,0.00003356,-0.00064925,0.00007212,
 -0.00003295,0.00001968,-0.00043924,-0.00044835,-0.00207421,0.00006409,
 0.00007555,0.00011446,0.00001392,-0.00003843,0.00012753,0.00004591,0.0
 0004311,0.00000122,0.00001012,-0.00000771,0.00005177,-0.00004743,-0.00
 009212,-0.00002378,-0.00006856,0.00008732,0.00006951,0.00025184,-0.000
 12203,-0.00000556,0.00030900,-0.00065149,0.00038141,-0.00025231,0.0002
 8751,0.00020782,0.00045012,0.00009054,-0.00014725,0.00005358,0.0000327
 8,-0.00017503,0.30015557,-0.00360383,-0.00100179,0.00044397,0.00017769
 ,0.00000196,-0.00054851,0.00056104,0.00016935,-0.00010143,-0.00106278,
 0.00061887,0.00000409,-0.00039627,0.00012889,0.00042237,0.06384858,-0.
 06565931,-0.01804031,-0.00009337,0.00008389,-0.00005253,-0.00008120,-0
 .00010758,0.00041029,-0.00002536,-0.00007135,-0.00003504,-0.00034210,0
 .00058087,0.00015089,-0.00010174,-0.00008516,0.00003760,0.00017066,-0.
 00016127,0.00002825,-0.00000894,-0.00001042,0.00001187,-0.00002458,-0.
 00010155,0.00000549,0.00001650,0.00000919,0.00005648,-0.00010227,-0.00
 004555,-0.00000853,0.00006177,-0.00001661,-0.00016671,0.00022425,0.000
 02009,0.00021589,0.00000699,0.00066701,0.00009981,0.00030135,0.0000163
 4,0.00013827,-0.00029737,0.00037174,0.00013017,-0.07025798,0.06594179,
 0.03061773,-0.00861359,-0.00659675,0.00010062,-0.00044727,-0.00138243,
 0.00055043,0.00009812,0.00159322,0.00062313,-0.00144911,0.00144442,-0.
 00033678,0.00127274,-0.00675998,0.06358297,-0.01761305,-0.06490393,-0.
 00027309,0.00011635,0.00035293,0.00001645,-0.00005275,0.00063705,-0.00
 001834,-0.00007455,0.00004050,-0.00185493,0.00022873,-0.00079472,0.000
 01374,0.00016998,0.00016465,-0.00006615,-0.00012535,-0.00013310,-0.000
 00962,-0.00002074,-0.00000225,-0.00002056,-0.00003225,-0.00002637,0.00
 010850,0.00013169,0.00006956,-0.00011450,0.00008432,-0.00005091,-0.000
 32037,-0.00018012,0.00013610,-0.00054626,0.00073426,0.00005512,0.00207
 046,-0.00056583,-0.00060395,-0.00003092,0.00023164,0.00011377,-0.00017
 522,-0.00011176,0.00003009,-0.07019454,0.01923540,0.07110257,-0.001200
 10,-0.00430093,0.00080358,-0.00038349,0.00021795,0.00020080,0.00002335
 ,0.00074384,-0.00029256,-0.00008429,-0.00015401,0.00098432,0.00054148,
 -0.00101676,0.00011103,-0.05415621,0.03958786,-0.01050870,0.00006949,0
 .00002888,-0.00019775,-0.00000859,-0.00008877,-0.00009437,0.00002544,-
 0.00003180,-0.00002840,0.00016170,-0.00000358,-0.00007847,-0.00003849,
 -0.00012407,0.00003117,0.00007953,-0.00020015,-0.00031942,0.00000264,-
 0.00001592,0.00002967,-0.00005167,-0.00007072,0.00002550,-0.00002922,-
 0.00005680,-0.00000479,0.00013203,0.00037437,0.00002782,0.00064543,-0.
 00022083,0.00014173,0.00029358,-0.00031671,0.00002577,-0.00006070,0.00
 004827,-0.00021909,-0.00006776,-0.00015407,-0.00009419,0.00004691,0.00
 021328,0.00038585,-0.00336261,0.02913660,-0.00850755,0.05372400,0.0003
 0498,-0.00496600,0.00046020,0.00016312,-0.00024764,-0.00006323,-0.0001
 2692,0.00049860,-0.00079595,-0.00043722,0.00140369,0.00163286,0.000158
 53,0.00036606,-0.00071377,0.03924011,-0.28535124,0.06596888,0.00000180
 ,-0.00002807,0.00010010,0.00002355,0.00015961,0.00005227,-0.00000153,0
 .00003697,-0.00001133,-0.00007395,0.00000027,0.00015423,-0.00003218,0.
 00033825,-0.00000709,0.00025680,0.00054745,0.00014624,0.00000980,0.000
 01132,-0.00001019,0.00004731,0.00004364,0.00000925,0.00001304,0.000030
 58,-0.00000135,0.00010670,0.00029832,-0.00019905,0.00009318,-0.0002837
 1,0.00027440,-0.00005523,0.00014492,-0.00023930,-0.00009822,0.00031222
 ,-0.00002066,0.00003121,-0.00013476,0.00013140,-0.00044514,0.00037636,
 0.00019786,0.00043271,-0.00668502,0.00153289,-0.04333179,0.30960377,-0
 .00511224,0.03087030,-0.00876958,-0.00019695,0.00009518,-0.00015269,0.
 00037904,0.00184352,0.00141770,0.00101780,-0.00044769,-0.00670933,-0.0
 0126185,0.00088737,0.00138988,-0.01040384,0.06495014,-0.06462271,-0.00
 003507,-0.00001419,-0.00001751,0.00000585,-0.00016490,0.00004034,0.000
 05763,-0.00011962,0.00004197,0.00005145,0.00000985,-0.00001708,0.00020
 589,-0.00019367,0.00032960,-0.00029745,-0.00097180,-0.00027472,0.00000
 793,-0.00001166,0.00001104,-0.00004333,-0.00003002,0.00001714,-0.00002
 002,-0.00000261,-0.00000545,0.00021746,-0.00002092,0.00010072,-0.00007
 391,0.00215435,-0.00047544,-0.00010267,-0.00024123,0.00005296,-0.00023
 598,-0.00027883,0.00021718,0.00012678,-0.00011252,-0.00005506,0.000558
 35,-0.00068123,-0.00012260,0.00040147,-0.00845345,0.00148691,0.0108109
 4,-0.07352954,0.07203984,0.00172366,0.00285262,0.00257361,0.00001523,0
 .00006838,0.00058678,0.00022085,0.00055337,0.00127675,0.00003913,0.000
 08537,0.00013588,0.00096006,0.00057014,0.00070969,-0.15504694,-0.09817
 474,-0.08519654,0.00007624,-0.00005538,-0.00012147,0.00004070,0.000125
 48,-0.00050272,-0.00002256,0.00009887,0.00000052,0.00039262,-0.0002760
 9,-0.00018605,0.00033320,0.00006001,0.00013306,-0.00002419,-0.00003688
 ,0.00014564,-0.00000864,0.00000037,-0.00000576,0.00002024,0.00004390,0
 .00001060,-0.00005525,-0.00006742,-0.00003012,0.00022051,0.00022942,-0
 .00018432,0.00007677,0.00023231,0.00009172,-0.00017784,-0.00011356,-0.
 00013906,0.00012068,0.00010923,-0.00013478,0.00018017,-0.00016655,0.00
 009684,-0.00006081,0.00009914,-0.00003344,-0.01864680,-0.01814730,-0.0
 1520583,0.00368832,0.00378188,0.00386802,0.16595694,0.00256622,0.00060
 800,0.00207278,0.00014894,-0.00013752,-0.00002725,0.00043397,0.0002651
 8,0.00050769,0.00051167,0.00081236,0.00065428,-0.00011764,-0.00019707,
 0.00003609,-0.09785105,-0.13631727,-0.07645501,-0.00005652,0.00001378,
 0.00008097,-0.00001478,0.00001716,0.00012023,-0.00007517,0.00006812,-0
 .00001281,-0.00013126,0.00004486,0.00004702,-0.00006871,0.00045595,-0.
 00013050,0.00007917,0.00053099,0.00011207,-0.00001590,0.00000367,-0.00
 002338,0.00004352,0.00002835,-0.00001205,0.00002953,0.00002409,-0.0000
 0066,-0.00023115,0.00017388,0.00018178,0.00014250,0.00006858,-0.000136
 66,0.00012794,-0.00003592,-0.00011709,0.00024946,0.00006307,0.00012565
 ,0.00035525,0.00020519,-0.00028384,-0.00011283,-0.00006493,-0.00008809
 ,0.00604938,0.00530955,0.00537617,-0.02025567,-0.01647602,-0.01555672,
 0.10818708,0.14454536,-0.02132186,-0.01938919,-0.01700250,0.00094361,-
 0.00042569,-0.00028533,0.00223437,0.00166227,-0.00628062,-0.00060662,-
 0.00142523,0.00115307,-0.00169781,-0.00036578,0.00120262,-0.08392466,-
 0.07549449,-0.10970131,-0.00018979,0.00011131,-0.00001516,-0.00002059,
 0.00002152,0.00011905,-0.00014850,0.00017886,0.00000166,-0.00010951,0.
 00017904,0.00020497,-0.00141333,-0.00119762,-0.00112170,0.00022662,0.0
 0010680,0.00022041,-0.00007237,-0.00004856,0.00001649,-0.00001820,-0.0
 0002541,0.00000043,0.00004297,0.00004619,0.00004547,0.00038983,0.00097
 259,-0.00000034,0.00033053,-0.00000115,0.00032596,-0.00000260,0.000104
 89,-0.00004480,0.00003463,0.00033949,0.00034750,0.00101562,0.00014791,
 0.00018778,0.00010248,0.00005461,-0.00005401,0.00543122,0.00598640,0.0
 0409568,0.00672509,0.00496653,0.00408296,0.09210096,0.08353040,0.12251
 965,0.00020120,0.00058618,-0.00010582,-0.00318325,0.00075294,0.0049724
 0,-0.00016565,0.00085639,-0.00074515,-0.00038114,0.00021561,0.00046490
 ,-0.00006721,-0.00027432,0.00002917,-0.00001667,-0.00018013,-0.0000700
 6,-0.00070933,-0.00023795,-0.00005993,-0.01230395,0.05520695,0.0108135
 3,-0.07592743,-0.15163101,-0.04832764,0.00065173,-0.00045170,-0.000670
 78,0.00017550,-0.00005997,-0.00015899,-0.00040073,-0.00006167,-0.00017
 900,0.00043352,-0.00001545,-0.00012517,0.00033613,-0.00004620,-0.00001
 201,-0.00003901,-0.00008145,-0.00003792,0.00029905,-0.00018744,0.00003
 940,-0.00024901,0.00007242,0.00014751,0.00019428,-0.00012866,-0.000752
 52,-0.00001498,0.00003313,0.00000917,-0.00005834,0.00001031,-0.0000051
 3,0.00009731,-0.00008179,-0.00000114,0.00000077,0.00003969,-0.00000940
 ,0.00000923,-0.00006254,0.00007473,-0.00002229,0.00000604,-0.00005209,
 0.09114027,0.00020681,0.00018772,0.00011359,0.00051360,-0.00316810,-0.
 00000212,0.00023739,0.00019964,0.00015695,0.00004829,-0.00012990,0.000
 18329,-0.00002112,-0.00010124,-0.00004001,0.00001214,-0.00008449,-0.00
 004856,-0.00007216,0.00029531,-0.00025055,0.00108130,-0.01023661,-0.00
 219987,-0.09848203,-0.45185416,-0.13738705,0.00032824,-0.00043941,0.00
 023627,-0.00004523,-0.00001044,-0.00000372,-0.00011416,0.00011486,-0.0
 0005375,0.00017208,-0.00007267,-0.00003030,0.00017903,0.00015689,-0.00
 002989,0.00002367,0.00003855,0.00008744,-0.00006301,-0.00003975,-0.000
 04687,-0.00004904,0.00009410,0.00005282,0.00042639,0.00019468,0.000026
 54,0.00000987,0.00001173,0.00001013,-0.00005886,-0.00001323,-0.0000207
 1,0.00002480,-0.00000682,0.00000175,-0.00001051,0.00002608,0.00007409,
 -0.00000847,0.00000043,0.00001988,-0.00005964,-0.00000940,-0.00003568,
 0.09572062,0.46484623,0.00009056,0.00011173,-0.00005139,-0.00120478,0.
 00231498,0.00242902,-0.00014413,0.00040223,-0.00065021,-0.00053880,0.0
 0035923,0.00052024,-0.00004980,-0.00013244,0.00001683,-0.00012522,0.00
 002829,0.00003127,0.00009616,0.00022147,-0.00067391,0.00472951,-0.0016
 9149,-0.00194376,-0.03781312,-0.14024338,-0.04256303,-0.00012897,-0.00
 014300,-0.00094489,0.00018164,-0.00011987,-0.00003870,-0.00018361,0.00
 001194,-0.00003057,-0.00021724,-0.00003956,0.00002914,0.00003652,0.000
 20247,0.00002735,-0.00018020,-0.00007768,-0.00009181,0.00020126,-0.000
 08273,-0.00010821,0.00022424,-0.00006307,-0.00012668,0.00011810,-0.000
 21104,-0.00014642,0.00001872,0.00000325,-0.00002621,-0.00002593,0.0000
 0411,0.00000374,0.00004910,-0.00003434,-0.00000614,0.00005207,0.000029
 27,-0.00006816,0.00004199,-0.00003564,-0.00000608,0.00001001,-0.000001
 09,-0.00001792,0.03476194,0.13918635,0.04443650\\0.00000049,-0.0000030
 2,0.00000011,-0.00000058,0.00000351,-0.00000075,-0.00000105,0.00000234
 ,-0.00000432,0.00000143,-0.00000064,0.00000888,-0.00000020,-0.00000226
 ,-0.00000368,0.00000171,-0.00001163,-0.00000071,-0.00000192,0.00000567
 ,-0.00000687,-0.00000093,0.00000986,0.00000486,-0.00000019,0.00001040,
 0.00000945,0.00000062,-0.00000170,0.00000238,-0.00000200,0.00000824,-0
 .00000494,-0.00000154,-0.00000002,-0.00001039,-0.00000171,0.00000724,-
 0.00000399,-0.00000173,0.00000068,-0.00001093,-0.00000319,0.00001065,-
 0.00001029,0.00000241,-0.00000422,0.00001177,0.00000056,0.00000557,0.0
 0000960,0.00000199,-0.00000152,0.00001187,-0.00000103,0.00000375,-0.00
 000297,0.00000083,-0.00000625,-0.00000097,-0.00000092,-0.00000370,-0.0
 0001000,0.00000223,-0.00001251,0.00000186,0.00000109,-0.00001356,-0.00
 000688,0.00000276,-0.00001548,0.00000237,0.00000087,0.00000855,0.00001
 453\\\@


 Once you get people laughing, they're
 listening and you can tell them almost anything.
                                 -- Herb Gardner
 Job cpu time:  0 days 10 hours 17 minutes 29.9 seconds.
 File lengths (MBytes):  RWF=   2544 Int=      0 D2E=      0 Chk=     32 Scr=     32
 Normal termination of Gaussian 09 at Sat Oct 14 19:40:41 2017.
