 Entering Gaussian System, Link 0=/shared/apps/gaussian/G09_LINUX_LINDA/g09/g09
 Input=/gss_gpfs_scratch/harms.n/QMscratch/ALPNRGFNSBABCF-UHFFFAOYSA-u1,2.gjf
 Output=/gss_gpfs_scratch/harms.n/QMscratch/ALPNRGFNSBABCF-UHFFFAOYSA-u1,2.log
 Initial command:
 /shared/apps/gaussian/G09_LINUX_LINDA/g09/l1.exe /gss_gpfs_scratch/harms.n/comparerTST/Gau-28410.inp -scrdir=/gss_gpfs_scratch/harms.n/comparerTST/
 Entering Link 1 = /shared/apps/gaussian/G09_LINUX_LINDA/g09/l1.exe PID=     28411.
  
 Copyright (c) 1988,1990,1992,1993,1995,1998,2003,2009,2010,
            Gaussian, Inc.  All Rights Reserved.
  
 This is part of the Gaussian(R) 09 program.  It is based on
 the Gaussian(R) 03 system (copyright 2003, Gaussian, Inc.),
 the Gaussian(R) 98 system (copyright 1998, Gaussian, Inc.),
 the Gaussian(R) 94 system (copyright 1995, Gaussian, Inc.),
 the Gaussian 92(TM) system (copyright 1992, Gaussian, Inc.),
 the Gaussian 90(TM) system (copyright 1990, Gaussian, Inc.),
 the Gaussian 88(TM) system (copyright 1988, Gaussian, Inc.),
 the Gaussian 86(TM) system (copyright 1986, Carnegie Mellon
 University), and the Gaussian 82(TM) system (copyright 1983,
 Carnegie Mellon University). Gaussian is a federally registered
 trademark of Gaussian, Inc.
  
 This software contains proprietary and confidential information,
 including trade secrets, belonging to Gaussian, Inc.
  
 This software is provided under written license and may be
 used, copied, transmitted, or stored only in accord with that
 written license.
  
 The following legend is applicable only to US Government
 contracts under FAR:
  
                    RESTRICTED RIGHTS LEGEND
  
 Use, reproduction and disclosure by the US Government is
 subject to restrictions as set forth in subparagraphs (a)
 and (c) of the Commercial Computer Software - Restricted
 Rights clause in FAR 52.227-19.
  
 Gaussian, Inc.
 340 Quinnipiac St., Bldg. 40, Wallingford CT 06492
  
  
 ---------------------------------------------------------------
 Warning -- This program may not be used in any manner that
 competes with the business of Gaussian, Inc. or will provide
 assistance to any competitor of Gaussian, Inc.  The licensee
 of this program is prohibited from giving any competitor of
 Gaussian, Inc. access to this program.  By using this program,
 the user acknowledges that Gaussian, Inc. is engaged in the
 business of creating and licensing software in the field of
 computational chemistry and represents and warrants to the
 licensee that it is not a competitor of Gaussian, Inc. and that
 it will not use this program in any manner prohibited above.
 ---------------------------------------------------------------
  

 Cite this work as:
 Gaussian 09, Revision B.01,
 M. J. Frisch, G. W. Trucks, H. B. Schlegel, G. E. Scuseria, 
 M. A. Robb, J. R. Cheeseman, G. Scalmani, V. Barone, B. Mennucci, 
 G. A. Petersson, H. Nakatsuji, M. Caricato, X. Li, H. P. Hratchian, 
 A. F. Izmaylov, J. Bloino, G. Zheng, J. L. Sonnenberg, M. Hada, 
 M. Ehara, K. Toyota, R. Fukuda, J. Hasegawa, M. Ishida, T. Nakajima, 
 Y. Honda, O. Kitao, H. Nakai, T. Vreven, J. A. Montgomery, Jr., 
 J. E. Peralta, F. Ogliaro, M. Bearpark, J. J. Heyd, E. Brothers, 
 K. N. Kudin, V. N. Staroverov, T. Keith, R. Kobayashi, J. Normand, 
 K. Raghavachari, A. Rendell, J. C. Burant, S. S. Iyengar, J. Tomasi, 
 M. Cossi, N. Rega, J. M. Millam, M. Klene, J. E. Knox, J. B. Cross, 
 V. Bakken, C. Adamo, J. Jaramillo, R. Gomperts, R. E. Stratmann, 
 O. Yazyev, A. J. Austin, R. Cammi, C. Pomelli, J. W. Ochterski, 
 R. L. Martin, K. Morokuma, V. G. Zakrzewski, G. A. Voth, 
 P. Salvador, J. J. Dannenberg, S. Dapprich, A. D. Daniels, 
 O. Farkas, J. B. Foresman, J. V. Ortiz, J. Cioslowski, 
 and D. J. Fox, Gaussian, Inc., Wallingford CT, 2010.
 
 ******************************************
 Gaussian 09:  EM64L-G09RevB.01 12-Aug-2010
                 1-Aug-2017 
 ******************************************
 %nprocshared=20
 Will use up to   20 processors via shared memory.
 %mem=5GB
 --------------------------------------------------------------
 # m062x/6-311+g(2df,2p) opt=(verytight,gdiis) freq IOP(2/16=3)
 --------------------------------------------------------------

 Warning!  Use of Opt=GDIIS is deprecated since it is seldom a good choice.

 1/7=1,14=-1,18=20,19=11,26=3,38=1/1,3;
 2/9=110,12=2,16=3,17=6,18=5,40=1/2;
 3/5=4,6=6,7=214,11=2,16=1,25=1,30=1,71=1,74=-55/1,2,3;
 4//1;
 5/5=2,38=5/2;
 6/7=2,8=2,9=2,10=2,28=1/1;
 7//1,2,3,16;
 1/7=1,14=-1,18=20,19=11/3(2);
 2/9=110,16=3/2;
 99//99;
 2/9=110,16=3/2;
 3/5=4,6=6,7=214,11=2,16=1,25=1,30=1,71=1,74=-55/1,2,3;
 4/5=5,16=3/1;
 5/5=2,38=5/2;
 7//1,2,3,16;
 1/7=1,14=-1,18=20,19=11/3(-5);
 2/9=110,16=3/2;
 6/7=2,8=2,9=2,10=2,19=2,28=1/1;
 99/9=1/99;
 ---------------------------------
 InChI=1S/C2H4O/c1-3-2/h1-2H2/u1,2
 ---------------------------------
 Symbolic Z-matrix:
 Charge =  0 Multiplicity = 3
 C                    -1.1049   -0.0927   -0.6029 
 C                     1.1056   -0.1254   -0.5813 
 O                    -0.001     0.2949    0.1574 
 H                    -1.7029    0.8029   -0.8717 
 H                    -1.7349   -0.7906   -0.0128 
 H                     1.7031   -0.8414    0.0207 
 H                     1.735     0.7521   -0.8381 
 

 GradGradGradGradGradGradGradGradGradGradGradGradGradGradGradGradGradGrad
 Berny optimization.
 Initialization pass.
                           ----------------------------
                           !    Initial Parameters    !
                           ! (Angstroms and Degrees)  !
 --------------------------                            --------------------------
 ! Name  Definition              Value          Derivative Info.                !
 --------------------------------------------------------------------------------
 ! R1    R(1,3)                  1.3953         estimate D2E/DX2                !
 ! R2    R(1,4)                  1.1099         estimate D2E/DX2                !
 ! R3    R(1,5)                  1.11           estimate D2E/DX2                !
 ! R4    R(2,3)                  1.3953         estimate D2E/DX2                !
 ! R5    R(2,6)                  1.11           estimate D2E/DX2                !
 ! R6    R(2,7)                  1.11           estimate D2E/DX2                !
 ! A1    A(3,1,4)              109.5157         estimate D2E/DX2                !
 ! A2    A(3,1,5)              109.5116         estimate D2E/DX2                !
 ! A3    A(4,1,5)              109.2853         estimate D2E/DX2                !
 ! A4    A(3,2,6)              109.5172         estimate D2E/DX2                !
 ! A5    A(3,2,7)              109.515          estimate D2E/DX2                !
 ! A6    A(6,2,7)              109.2801         estimate D2E/DX2                !
 ! A7    A(1,3,2)              104.7912         estimate D2E/DX2                !
 ! D1    D(4,1,3,2)           -120.0864         estimate D2E/DX2                !
 ! D2    D(5,1,3,2)            120.0894         estimate D2E/DX2                !
 ! D3    D(3,1,4,5)           -119.9628         estimate D2E/DX2                !
 ! D4    D(6,2,3,1)           -120.0918         estimate D2E/DX2                !
 ! D5    D(7,2,3,1)            120.0873         estimate D2E/DX2                !
 ! D6    D(3,2,6,7)           -119.9647         estimate D2E/DX2                !
 --------------------------------------------------------------------------------
 Trust Radius=3.00D-01 FncErr=1.00D-07 GrdErr=1.00D-06
 Number of steps in this run=     29 maximum allowed number of steps=    100.
 GradGradGradGradGradGradGradGradGradGradGradGradGradGradGradGradGradGrad

                          Input orientation:                          
 ---------------------------------------------------------------------
 Center     Atomic      Atomic             Coordinates (Angstroms)
 Number     Number       Type             X           Y           Z
 ---------------------------------------------------------------------
      1          6           0       -1.104900   -0.092700   -0.602900
      2          6           0        1.105600   -0.125400   -0.581300
      3          8           0       -0.001000    0.294900    0.157400
      4          1           0       -1.702900    0.802900   -0.871700
      5          1           0       -1.734900   -0.790600   -0.012800
      6          1           0        1.703100   -0.841400    0.020700
      7          1           0        1.735000    0.752100   -0.838100
 ---------------------------------------------------------------------
                    Distance matrix (angstroms):
                    1          2          3          4          5
     1  C    0.000000
     2  C    2.210847   0.000000
     3  O    1.395308   1.395311   0.000000
     4  H    1.109935   2.972162   2.052699   0.000000
     5  H    1.110037   2.972225   2.052727   1.810518   0.000000
     6  H    2.972254   1.109985   2.052759   3.885992   3.438538
     7  H    2.972211   1.109999   2.052742   3.438439   3.886033
                    6          7
     6  H    0.000000
     7  H    1.810469   0.000000
 Stoichiometry    C2H4O(3)
 Framework group  C1[X(C2H4O)]
 Deg. of freedom    15
 Full point group                 C1      NOp   1
 Largest Abelian subgroup         C1      NOp   1
 Largest concise Abelian subgroup C1      NOp   1
                         Standard orientation:                         
 ---------------------------------------------------------------------
 Center     Atomic      Atomic             Coordinates (Angstroms)
 Number     Number       Type             X           Y           Z
 ---------------------------------------------------------------------
      1          6           0       -1.105426   -0.315359    0.000124
      2          6           0        1.105421   -0.315353    0.000145
      3          8           0       -0.000007    0.536071   -0.000231
      4          1           0       -1.719197   -0.126516   -0.905183
      5          1           0       -1.719249   -0.125628    0.905335
      6          1           0        1.719290   -0.125674    0.905271
      7          1           0        1.719242   -0.126474   -0.905197
 ---------------------------------------------------------------------
 Rotational constants (GHZ):     48.8512515     11.3450185     10.4666866
 Standard basis: 6-311+G(2df,2p) (5D, 7F)
 There are   138 symmetry adapted basis functions of A   symmetry.
 Integral buffers will be    131072 words long.
 Raffenetti 2 integral format.
 Two-electron integral symmetry is turned on.
   138 basis functions,   200 primitive gaussians,   153 cartesian basis functions
    13 alpha electrons       11 beta electrons
       nuclear repulsion energy        70.1540156507 Hartrees.
 NAtoms=    7 NActive=    7 NUniq=    7 SFac= 1.00D+00 NAtFMM=   50 NAOKFM=F Big=F
 One-electron integrals computed using PRISM.
 NBasis=   138 RedAO= T  NBF=   138
 NBsUse=   138 1.00D-06 NBFU=   138
 Harris functional with IExCor= 1009 diagonalized for initial guess.
 ExpMin= 4.38D-02 ExpMax= 8.59D+03 ExpMxC= 1.30D+03 IAcc=2 IRadAn=         0 AccDes= 0.00D+00
 HarFok:  IExCor= 1009 AccDes= 0.00D+00 IRadAn=         0 IDoV= 1
 ScaDFX=  1.000000  1.000000  1.000000  1.000000
 FoFCou: FMM=F IPFlag=           0 FMFlag=      100000 FMFlg1=           0
         NFxFlg=           0 DoJE=T BraDBF=F KetDBF=T FulRan=T
         Omega=  0.000000  0.000000  1.000000  0.000000  0.000000 ICntrl=     500 IOpCl=  0
         NMat0=    1 NMatS0=    1 NMatT0=    0 NMatD0=    1 NMtDS0=    0 NMtDT0=    0
         I1Cent=           4 NGrid=           0.
 Petite list used in FoFCou.
 Initial guess orbital symmetries:
 Alpha Orbitals:
       Occupied  (A) (A) (A) (A) (A) (A) (A) (A) (A) (A) (A) (A)
                 (A)
       Virtual   (A) (A) (A) (A) (A) (A) (A) (A) (A) (A) (A) (A)
                 (A) (A) (A) (A) (A) (A) (A) (A) (A) (A) (A) (A)
                 (A) (A) (A) (A) (A) (A) (A) (A) (A) (A) (A) (A)
                 (A) (A) (A) (A) (A) (A) (A) (A) (A) (A) (A) (A)
                 (A) (A) (A) (A) (A) (A) (A) (A) (A) (A) (A) (A)
                 (A) (A) (A) (A) (A) (A) (A) (A) (A) (A) (A) (A)
                 (A) (A) (A) (A) (A) (A) (A) (A) (A) (A) (A) (A)
                 (A) (A) (A) (A) (A) (A) (A) (A) (A) (A) (A) (A)
                 (A) (A) (A) (A) (A) (A) (A) (A) (A) (A) (A) (A)
                 (A) (A) (A) (A) (A) (A) (A) (A) (A) (A) (A) (A)
                 (A) (A) (A) (A) (A)
 Beta  Orbitals:
       Occupied  (A) (A) (A) (A) (A) (A) (A) (A) (A) (A) (A)
       Virtual   (A) (A) (A) (A) (A) (A) (A) (A) (A) (A) (A) (A)
                 (A) (A) (A) (A) (A) (A) (A) (A) (A) (A) (A) (A)
                 (A) (A) (A) (A) (A) (A) (A) (A) (A) (A) (A) (A)
                 (A) (A) (A) (A) (A) (A) (A) (A) (A) (A) (A) (A)
                 (A) (A) (A) (A) (A) (A) (A) (A) (A) (A) (A) (A)
                 (A) (A) (A) (A) (A) (A) (A) (A) (A) (A) (A) (A)
                 (A) (A) (A) (A) (A) (A) (A) (A) (A) (A) (A) (A)
                 (A) (A) (A) (A) (A) (A) (A) (A) (A) (A) (A) (A)
                 (A) (A) (A) (A) (A) (A) (A) (A) (A) (A) (A) (A)
                 (A) (A) (A) (A) (A) (A) (A) (A) (A) (A) (A) (A)
                 (A) (A) (A) (A) (A) (A) (A)
 The electronic state of the initial guess is 3-A.
 Initial guess <Sx>= 0.0000 <Sy>= 0.0000 <Sz>= 1.0000 <S**2>= 2.0000 S= 1.0000
 Requested convergence on RMS density matrix=1.00D-08 within 128 cycles.
 Requested convergence on MAX density matrix=1.00D-06.
 Requested convergence on             energy=1.00D-06.
 No special actions if energy rises.
 Keep R1 and R2 ints in memory in canonical form, NReq=140896423.
 SCF Done:  E(UM062X) =  -153.639858743     A.U. after   12 cycles
             Convg  =    0.4681D-08             -V/T =  2.0037
 <Sx>= 0.0000 <Sy>= 0.0000 <Sz>= 1.0000 <S**2>= 2.0077 S= 1.0026
 <L.S>= 0.000000000000E+00
 Annihilation of the first spin contaminant:
 S**2 before annihilation     2.0077,   after     2.0000

 **********************************************************************

            Population analysis using the SCF density.

 **********************************************************************

 Orbital symmetries:
 Alpha Orbitals:
       Occupied  (A) (A) (A) (A) (A) (A) (A) (A) (A) (A) (A) (A)
                 (A)
       Virtual   (A) (A) (A) (A) (A) (A) (A) (A) (A) (A) (A) (A)
                 (A) (A) (A) (A) (A) (A) (A) (A) (A) (A) (A) (A)
                 (A) (A) (A) (A) (A) (A) (A) (A) (A) (A) (A) (A)
                 (A) (A) (A) (A) (A) (A) (A) (A) (A) (A) (A) (A)
                 (A) (A) (A) (A) (A) (A) (A) (A) (A) (A) (A) (A)
                 (A) (A) (A) (A) (A) (A) (A) (A) (A) (A) (A) (A)
                 (A) (A) (A) (A) (A) (A) (A) (A) (A) (A) (A) (A)
                 (A) (A) (A) (A) (A) (A) (A) (A) (A) (A) (A) (A)
                 (A) (A) (A) (A) (A) (A) (A) (A) (A) (A) (A) (A)
                 (A) (A) (A) (A) (A) (A) (A) (A) (A) (A) (A) (A)
                 (A) (A) (A) (A) (A)
 Beta  Orbitals:
       Occupied  (A) (A) (A) (A) (A) (A) (A) (A) (A) (A) (A)
       Virtual   (A) (A) (A) (A) (A) (A) (A) (A) (A) (A) (A) (A)
                 (A) (A) (A) (A) (A) (A) (A) (A) (A) (A) (A) (A)
                 (A) (A) (A) (A) (A) (A) (A) (A) (A) (A) (A) (A)
                 (A) (A) (A) (A) (A) (A) (A) (A) (A) (A) (A) (A)
                 (A) (A) (A) (A) (A) (A) (A) (A) (A) (A) (A) (A)
                 (A) (A) (A) (A) (A) (A) (A) (A) (A) (A) (A) (A)
                 (A) (A) (A) (A) (A) (A) (A) (A) (A) (A) (A) (A)
                 (A) (A) (A) (A) (A) (A) (A) (A) (A) (A) (A) (A)
                 (A) (A) (A) (A) (A) (A) (A) (A) (A) (A) (A) (A)
                 (A) (A) (A) (A) (A) (A) (A) (A) (A) (A) (A) (A)
                 (A) (A) (A) (A) (A) (A) (A)
 The electronic state is 3-A.
 Alpha  occ. eigenvalues --  -19.65865 -10.60713 -10.60712  -1.19792  -0.81862
 Alpha  occ. eigenvalues --   -0.70728  -0.57236  -0.56301  -0.53509  -0.48202
 Alpha  occ. eigenvalues --   -0.34746  -0.32275  -0.29829
 Alpha virt. eigenvalues --    0.02730   0.04015   0.04983   0.05390   0.07670
 Alpha virt. eigenvalues --    0.08362   0.09215   0.14428   0.16879   0.17354
 Alpha virt. eigenvalues --    0.20848   0.22082   0.24039   0.24106   0.26757
 Alpha virt. eigenvalues --    0.28499   0.32369   0.35089   0.39880   0.47198
 Alpha virt. eigenvalues --    0.48151   0.53182   0.53635   0.54897   0.55826
 Alpha virt. eigenvalues --    0.57479   0.58086   0.62251   0.64576   0.65977
 Alpha virt. eigenvalues --    0.73032   0.74627   0.78696   0.85905   0.90148
 Alpha virt. eigenvalues --    0.92690   0.97246   0.99385   1.01986   1.05615
 Alpha virt. eigenvalues --    1.11635   1.12916   1.15545   1.19225   1.21593
 Alpha virt. eigenvalues --    1.21723   1.22987   1.26224   1.30449   1.37143
 Alpha virt. eigenvalues --    1.39638   1.46802   1.48642   1.49893   1.52243
 Alpha virt. eigenvalues --    1.57833   1.95048   1.95788   2.03187   2.11632
 Alpha virt. eigenvalues --    2.31048   2.33740   2.35800   2.54869   2.58345
 Alpha virt. eigenvalues --    2.85638   2.88112   2.89892   2.90132   2.91576
 Alpha virt. eigenvalues --    2.96079   2.98282   2.99470   3.04375   3.06957
 Alpha virt. eigenvalues --    3.11784   3.11874   3.11956   3.20163   3.25011
 Alpha virt. eigenvalues --    3.25611   3.27625   3.28129   3.41550   3.50601
 Alpha virt. eigenvalues --    3.52847   3.57743   3.67584   3.71388   3.74762
 Alpha virt. eigenvalues --    3.76429   3.77200   3.80304   3.88477   3.89451
 Alpha virt. eigenvalues --    4.03011   4.08177   4.13708   4.16646   4.23483
 Alpha virt. eigenvalues --    4.28155   4.30224   4.40856   4.92734   5.02513
 Alpha virt. eigenvalues --    5.13215   5.28771   5.33197   5.33891   5.36356
 Alpha virt. eigenvalues --    5.47115   5.55365   5.77394   5.87291   6.00618
 Alpha virt. eigenvalues --    6.35302   6.63993   7.09243   7.19096   7.28541
 Alpha virt. eigenvalues --    7.45371   7.68985  24.21175  24.23356  50.10548
  Beta  occ. eigenvalues --  -19.65644 -10.59677 -10.59676  -1.18176  -0.78366
  Beta  occ. eigenvalues --   -0.66193  -0.55846  -0.51358  -0.51004  -0.46619
  Beta  occ. eigenvalues --   -0.34200
  Beta virt. eigenvalues --   -0.07584  -0.01373   0.02329   0.03872   0.04878
  Beta virt. eigenvalues --    0.05250   0.07944   0.09057   0.10130   0.14033
  Beta virt. eigenvalues --    0.16788   0.17605   0.21206   0.23805   0.24114
  Beta virt. eigenvalues --    0.25065   0.26286   0.29982   0.31887   0.36015
  Beta virt. eigenvalues --    0.39541   0.47461   0.49574   0.53062   0.53973
  Beta virt. eigenvalues --    0.55298   0.55793   0.59034   0.59521   0.62139
  Beta virt. eigenvalues --    0.65242   0.65453   0.73784   0.76573   0.78599
  Beta virt. eigenvalues --    0.87028   0.90460   0.90608   0.96520   0.98088
  Beta virt. eigenvalues --    1.01529   1.05627   1.11481   1.13035   1.15687
  Beta virt. eigenvalues --    1.19222   1.20343   1.21594   1.22991   1.26846
  Beta virt. eigenvalues --    1.31292   1.36831   1.40472   1.47378   1.49522
  Beta virt. eigenvalues --    1.50879   1.53365   1.57930   1.96297   1.96900
  Beta virt. eigenvalues --    2.03643   2.12595   2.32633   2.34793   2.36285
  Beta virt. eigenvalues --    2.56598   2.59998   2.90792   2.93382   2.93944
  Beta virt. eigenvalues --    2.94111   2.95929   3.00369   3.02456   3.02800
  Beta virt. eigenvalues --    3.08286   3.10632   3.16208   3.18533   3.19758
  Beta virt. eigenvalues --    3.24378   3.30498   3.30925   3.32430   3.36680
  Beta virt. eigenvalues --    3.49328   3.55968   3.58084   3.59278   3.70955
  Beta virt. eigenvalues --    3.75554   3.77751   3.79069   3.79656   3.85695
  Beta virt. eigenvalues --    3.92565   3.92930   4.06551   4.12192   4.17222
  Beta virt. eigenvalues --    4.19521   4.25827   4.30882   4.32621   4.43464
  Beta virt. eigenvalues --    4.98050   5.06820   5.14586   5.29673   5.34191
  Beta virt. eigenvalues --    5.34567   5.42012   5.50489   5.55931   5.79204
  Beta virt. eigenvalues --    5.88646   6.01904   6.37368   6.65761   7.10477
  Beta virt. eigenvalues --    7.20425   7.28213   7.46048   7.69888  24.22820
  Beta virt. eigenvalues --   24.24948  50.10340
          Condensed to atoms (all electrons):
              1          2          3          4          5          6
     1  C    5.406067  -0.131581   0.109539   0.405513   0.405514   0.010546
     2  C   -0.131581   5.406069   0.109535   0.010545   0.010546   0.405509
     3  O    0.109539   0.109535   8.108752  -0.059637  -0.059651  -0.059634
     4  H    0.405513   0.010545  -0.059637   0.560577  -0.047979  -0.001471
     5  H    0.405514   0.010546  -0.059651  -0.047979   0.560618   0.002049
     6  H    0.010546   0.405509  -0.059634  -0.001471   0.002049   0.560600
     7  H    0.010544   0.405515  -0.059641   0.002050  -0.001471  -0.047986
              7
     1  C    0.010544
     2  C    0.405515
     3  O   -0.059641
     4  H    0.002050
     5  H   -0.001471
     6  H   -0.047986
     7  H    0.560611
 Mulliken atomic charges:
              1
     1  C   -0.216142
     2  C   -0.216137
     3  O   -0.089263
     4  H    0.130403
     5  H    0.130373
     6  H    0.130387
     7  H    0.130380
 Sum of Mulliken atomic charges =   0.00000
 Mulliken charges with hydrogens summed into heavy atoms:
              1
     1  C    0.044633
     2  C    0.044630
     3  O   -0.089263
 Sum of Mulliken charges with hydrogens summed into heavy atoms =   0.00000
          Atomic-Atomic Spin Densities.
              1          2          3          4          5          6
     1  C    1.250201  -0.109678  -0.090730  -0.019251  -0.019251   0.003282
     2  C   -0.109678   1.250206  -0.090734   0.003281   0.003283  -0.019251
     3  O   -0.090730  -0.090734   0.192151   0.000349   0.000349   0.000349
     4  H   -0.019251   0.003281   0.000349  -0.003198   0.007162  -0.000130
     5  H   -0.019251   0.003283   0.000349   0.007162  -0.003200  -0.000163
     6  H    0.003282  -0.019251   0.000349  -0.000130  -0.000163  -0.003199
     7  H    0.003282  -0.019251   0.000350  -0.000163  -0.000130   0.007163
              7
     1  C    0.003282
     2  C   -0.019251
     3  O    0.000350
     4  H   -0.000163
     5  H   -0.000130
     6  H    0.007163
     7  H   -0.003203
 Mulliken atomic spin densities:
              1
     1  C    1.017855
     2  C    1.017856
     3  O    0.012084
     4  H   -0.011948
     5  H   -0.011949
     6  H   -0.011946
     7  H   -0.011951
 Sum of Mulliken atomic spin densities =   2.00000
 Electronic spatial extent (au):  <R**2>=            160.7115
 Charge=              0.0000 electrons
 Dipole moment (field-independent basis, Debye):
    X=              0.0000    Y=             -0.2284    Z=              0.0000  Tot=              0.2284
 Quadrupole moment (field-independent basis, Debye-Ang):
   XX=            -16.1297   YY=            -21.6153   ZZ=            -18.3719
   XY=              0.0000   XZ=              0.0002   YZ=              0.0015
 Traceless Quadrupole moment (field-independent basis, Debye-Ang):
   XX=              2.5759   YY=             -2.9097   ZZ=              0.3337
   XY=              0.0000   XZ=              0.0002   YZ=              0.0015
 Octapole moment (field-independent basis, Debye-Ang**2):
  XXX=              0.0005  YYY=              4.8598  ZZZ=             -0.0024  XYY=              0.0000
  XXY=              2.1244  XXZ=             -0.0010  XZZ=             -0.0003  YZZ=              1.5995
  YYZ=             -0.0008  XYZ=             -0.0002
 Hexadecapole moment (field-independent basis, Debye-Ang**3):
 XXXX=           -146.0958 YYYY=            -41.3540 ZZZZ=            -32.9997 XXXY=             -0.0001
 XXXZ=              0.0013 YYYX=              0.0000 YYYZ=              0.0006 ZZZX=              0.0005
 ZZZY=              0.0027 XXYY=            -33.9693 XXZZ=            -26.4599 YYZZ=            -13.1430
 XXYZ=              0.0035 YYXZ=              0.0003 ZZXY=              0.0000
 N-N= 7.015401565071D+01 E-N=-7.392471385961D+02  KE= 2.280218375973D+02
                          Isotropic Fermi Contact Couplings
        Atom                 a.u.       MegaHertz       Gauss      10(-4) cm-1
     1  C(13)              0.49457     277.99587      99.19584      92.72944
     2  C(13)              0.49459     278.00543      99.19925      92.73263
     3  O(17)              0.00358      -1.08484      -0.38710      -0.36186
     4  H(1)              -0.00115      -2.56189      -0.91415      -0.85456
     5  H(1)              -0.00115      -2.56783      -0.91626      -0.85653
     6  H(1)              -0.00115      -2.56431      -0.91501      -0.85536
     7  H(1)              -0.00115      -2.56635      -0.91574      -0.85604
 --------------------------------------------------------
       Center         ----  Spin Dipole Couplings  ----
                      3XX-RR        3YY-RR        3ZZ-RR
 --------------------------------------------------------
     1   Atom       -0.257682      0.787773     -0.530091
     2   Atom       -0.257690      0.787774     -0.530084
     3   Atom       -0.425244      0.737845     -0.312600
     4   Atom       -0.006975     -0.023940      0.030914
     5   Atom       -0.006972     -0.023924      0.030896
     6   Atom       -0.006964     -0.023923      0.030887
     7   Atom       -0.006970     -0.023940      0.030910
 --------------------------------------------------------
                        XY            XZ            YZ
 --------------------------------------------------------
     1   Atom       -0.528892      0.000260     -0.000653
     2   Atom        0.528880     -0.000245     -0.000602
     3   Atom       -0.000015     -0.000002     -0.000533
     4   Atom       -0.026347      0.062756     -0.008188
     5   Atom       -0.026404     -0.062722      0.008244
     6   Atom        0.026404      0.062731      0.008239
     7   Atom        0.026346     -0.062751     -0.008191
 --------------------------------------------------------


 ---------------------------------------------------------------------------------
              Anisotropic Spin Dipole Couplings in Principal Axis System
 ---------------------------------------------------------------------------------

       Atom             a.u.   MegaHertz   Gauss  10(-4) cm-1        Axes

              Baa    -0.5301   -71.133   -25.382   -23.727  0.0000  0.0005  1.0000
     1 C(13)  Bbb    -0.4786   -64.220   -22.915   -21.422  0.9228  0.3854 -0.0002
              Bcc     1.0087   135.353    48.297    45.149 -0.3854  0.9228 -0.0005
 
              Baa    -0.5301   -71.132   -25.382   -23.727  0.0001  0.0004  1.0000
     2 C(13)  Bbb    -0.4786   -64.220   -22.915   -21.421  0.9228 -0.3854  0.0001
              Bcc     1.0087   135.352    48.297    45.149  0.3854  0.9228 -0.0004
 
              Baa    -0.4252    30.770    10.980    10.264  1.0000  0.0000  0.0000
     3 O(17)  Bbb    -0.3126    22.620     8.071     7.545  0.0000  0.0005  1.0000
              Bcc     0.7378   -53.390   -19.051   -17.809  0.0000  1.0000 -0.0005
 
              Baa    -0.0614   -32.758   -11.689   -10.927  0.7633  0.4318 -0.4806
     4 H(1)   Bbb    -0.0209   -11.145    -3.977    -3.718 -0.2321  0.8774  0.4198
              Bcc     0.0823    43.903    15.666    14.645  0.6030 -0.2089  0.7699
 
              Baa    -0.0614   -32.752   -11.687   -10.925  0.7633  0.4323  0.4802
     5 H(1)   Bbb    -0.0209   -11.147    -3.977    -3.718 -0.2321  0.8770 -0.4207
              Bcc     0.0823    43.898    15.664    14.643 -0.6030  0.2097  0.7697
 
              Baa    -0.0614   -32.755   -11.688   -10.926  0.7632 -0.4323 -0.4802
     6 H(1)   Bbb    -0.0209   -11.146    -3.977    -3.718  0.2320  0.8770 -0.4207
              Bcc     0.0823    43.901    15.665    14.644  0.6030  0.2096  0.7697
 
              Baa    -0.0614   -32.754   -11.688   -10.926  0.7632 -0.4318  0.4806
     7 H(1)   Bbb    -0.0209   -11.146    -3.977    -3.718  0.2321  0.8774  0.4199
              Bcc     0.0823    43.901    15.665    14.644 -0.6030 -0.2089  0.7699
 

 ---------------------------------------------------------------------------------

 Calling FoFJK, ICntrl=      2127 FMM=F ISym2X=0 I1Cent= 0 IOpClX= 1 NMat=1 NMatS=1 NMatT=0.
 ***** Axes restored to original set *****
 -------------------------------------------------------------------
 Center     Atomic                   Forces (Hartrees/Bohr)
 Number     Number              X              Y              Z
 -------------------------------------------------------------------
      1        6          -0.044413561    0.026098440    0.046884156
      2        6           0.044251847    0.024843189    0.047719416
      3        8           0.000078932   -0.021412204   -0.039726410
      4        1           0.009129597   -0.011882606   -0.011272158
      5        1           0.009333049   -0.003130153   -0.016001449
      6        1          -0.009101656   -0.002880479   -0.016158006
      7        1          -0.009278207   -0.011636188   -0.011445549
 -------------------------------------------------------------------
 Cartesian Forces:  Max     0.047719416 RMS     0.025024092

 GradGradGradGradGradGradGradGradGradGradGradGradGradGradGradGradGradGrad
 Berny optimization.
 Internal  Forces:  Max     0.059280876 RMS     0.017249696
 Search for a local minimum.
 Step number   1 out of a maximum of   29
 All quantities printed in internal units (Hartrees-Bohrs-Radians)
 Swaping is turned off.
 Second derivative matrix not updated -- first step.
 The second derivative matrix:
                          R1        R2        R3        R4        R5
           R1           0.46407
           R2           0.00000   0.32607
           R3           0.00000   0.00000   0.32596
           R4           0.00000   0.00000   0.00000   0.46406
           R5           0.00000   0.00000   0.00000   0.00000   0.32602
           R6           0.00000   0.00000   0.00000   0.00000   0.00000
           A1           0.00000   0.00000   0.00000   0.00000   0.00000
           A2           0.00000   0.00000   0.00000   0.00000   0.00000
           A3           0.00000   0.00000   0.00000   0.00000   0.00000
           A4           0.00000   0.00000   0.00000   0.00000   0.00000
           A5           0.00000   0.00000   0.00000   0.00000   0.00000
           A6           0.00000   0.00000   0.00000   0.00000   0.00000
           A7           0.00000   0.00000   0.00000   0.00000   0.00000
           D1           0.00000   0.00000   0.00000   0.00000   0.00000
           D2           0.00000   0.00000   0.00000   0.00000   0.00000
           D3           0.00000   0.00000   0.00000   0.00000   0.00000
           D4           0.00000   0.00000   0.00000   0.00000   0.00000
           D5           0.00000   0.00000   0.00000   0.00000   0.00000
           D6           0.00000   0.00000   0.00000   0.00000   0.00000
                          R6        A1        A2        A3        A4
           R6           0.32600
           A1           0.00000   0.16000
           A2           0.00000   0.00000   0.16000
           A3           0.00000   0.00000   0.00000   0.16000
           A4           0.00000   0.00000   0.00000   0.00000   0.16000
           A5           0.00000   0.00000   0.00000   0.00000   0.00000
           A6           0.00000   0.00000   0.00000   0.00000   0.00000
           A7           0.00000   0.00000   0.00000   0.00000   0.00000
           D1           0.00000   0.00000   0.00000   0.00000   0.00000
           D2           0.00000   0.00000   0.00000   0.00000   0.00000
           D3           0.00000   0.00000   0.00000   0.00000   0.00000
           D4           0.00000   0.00000   0.00000   0.00000   0.00000
           D5           0.00000   0.00000   0.00000   0.00000   0.00000
           D6           0.00000   0.00000   0.00000   0.00000   0.00000
                          A5        A6        A7        D1        D2
           A5           0.16000
           A6           0.00000   0.16000
           A7           0.00000   0.00000   0.25000
           D1           0.00000   0.00000   0.00000   0.01754
           D2           0.00000   0.00000   0.00000   0.00000   0.01754
           D3           0.00000   0.00000   0.00000   0.00000   0.00000
           D4           0.00000   0.00000   0.00000   0.00000   0.00000
           D5           0.00000   0.00000   0.00000   0.00000   0.00000
           D6           0.00000   0.00000   0.00000   0.00000   0.00000
                          D3        D4        D5        D6
           D3           0.00230
           D4           0.00000   0.01754
           D5           0.00000   0.00000   0.01754
           D6           0.00000   0.00000   0.00000   0.00230
 ITU=  0
     Eigenvalues ---    0.01754   0.01754   0.04406   0.04407   0.13089
     Eigenvalues ---    0.13089   0.16000   0.16000   0.25000   0.32596
     Eigenvalues ---    0.32600   0.32602   0.32607   0.46406   0.46407
 Quadratic step=8.469D-01 exceeds max=3.000D-01 adjusted using Lamda=-1.057D-01.
 Angle between NR and scaled steps=  19.78 degrees.
 Angle between quadratic step and forces=  24.26 degrees.
 Linear search not attempted -- option 19 set.
 Iteration  1 RMS(Cart)=  0.07220219 RMS(Int)=  0.00425567
 Iteration  2 RMS(Cart)=  0.00369443 RMS(Int)=  0.00254056
 Iteration  3 RMS(Cart)=  0.00001075 RMS(Int)=  0.00254055
 Iteration  4 RMS(Cart)=  0.00000000 RMS(Int)=  0.00254055
 Variable       Old X    -DE/DX   Delta X   Delta X   Delta X     New X
                                 (Linear)    (Quad)   (Total)
    R1        2.63675   0.00677   0.00000   0.01187   0.01187   2.64863
    R2        2.09747  -0.01178   0.00000  -0.02728  -0.02728   2.07020
    R3        2.09767  -0.01184   0.00000  -0.02742  -0.02742   2.07025
    R4        2.63676   0.00676   0.00000   0.01186   0.01186   2.64862
    R5        2.09757  -0.01180   0.00000  -0.02734  -0.02734   2.07022
    R6        2.09759  -0.01181   0.00000  -0.02736  -0.02736   2.07023
    A1        1.91141   0.01304   0.00000   0.06431   0.06101   1.97242
    A2        1.91134   0.00277   0.00000   0.03548   0.03054   1.94188
    A3        1.90739   0.00883   0.00000   0.05407   0.05020   1.95758
    A4        1.91144   0.01303   0.00000   0.06429   0.06099   1.97243
    A5        1.91140   0.00277   0.00000   0.03546   0.03052   1.94192
    A6        1.90730   0.00884   0.00000   0.05411   0.05024   1.95753
    A7        1.82895   0.05928   0.00000   0.16666   0.16666   1.99561
    D1       -2.09590   0.01025   0.00000   0.06363   0.06464  -2.03127
    D2        2.09596  -0.01024   0.00000  -0.06362  -0.06462   2.03134
    D3       -2.09375  -0.01672   0.00000  -0.11553  -0.11854  -2.21228
    D4       -2.09600   0.01025   0.00000   0.06363   0.06463  -2.03136
    D5        2.09592  -0.01025   0.00000  -0.06364  -0.06465   2.03127
    D6       -2.09378  -0.01671   0.00000  -0.11550  -0.11851  -2.21229
         Item               Value     Threshold  Converged?
 Maximum Force            0.059281     0.000002     NO 
 RMS     Force            0.017250     0.000001     NO 
 Maximum Displacement     0.136511     0.000006     NO 
 RMS     Displacement     0.070968     0.000004     NO 
 Predicted change in Energy=-1.523853D-02
 GradGradGradGradGradGradGradGradGradGradGradGradGradGradGradGradGradGrad

                          Input orientation:                          
 ---------------------------------------------------------------------
 Center     Atomic      Atomic             Coordinates (Angstroms)
 Number     Number       Type             X           Y           Z
 ---------------------------------------------------------------------
      1          6           0       -1.177138   -0.071572   -0.577377
      2          6           0        1.177747   -0.115605   -0.549414
      3          8           0       -0.000895    0.266923    0.105510
      4          1           0       -1.760034    0.803166   -0.885906
      5          1           0       -1.777276   -0.786947   -0.004441
      6          1           0        1.760247   -0.853323    0.013274
      7          1           0        1.777350    0.757160   -0.830345
 ---------------------------------------------------------------------
                    Distance matrix (angstroms):
                    1          2          3          4          5
     1  C    0.000000
     2  C    2.355462   0.000000
     3  O    1.401592   1.401588   0.000000
     4  H    1.095502   3.096437   2.089266   0.000000
     5  H    1.095528   3.078937   2.068395   1.818169   0.000000
     6  H    3.096488   1.095515   2.089278   3.993102   3.538190
     7  H    3.078927   1.095520   2.068408   3.538119   3.962543
                    6          7
     6  H    0.000000
     7  H    1.818142   0.000000
 Stoichiometry    C2H4O(3)
 Framework group  C1[X(C2H4O)]
 Deg. of freedom    15
 Full point group                 C1      NOp   1
 Largest Abelian subgroup         C1      NOp   1
 Largest concise Abelian subgroup C1      NOp   1
                         Standard orientation:                         
 ---------------------------------------------------------------------
 Center     Atomic      Atomic             Coordinates (Angstroms)
 Number     Number       Type             X           Y           Z
 ---------------------------------------------------------------------
      1          6           0       -1.177734   -0.000001   -0.279143
      2          6           0        1.177728    0.000162   -0.279143
      3          8           0       -0.000001   -0.000144    0.480728
      4          1           0       -1.780564    0.903221   -0.134540
      5          1           0       -1.757487   -0.914679   -0.113517
      6          1           0        1.780619   -0.903110   -0.135005
      7          1           0        1.757471    0.914752   -0.113049
 ---------------------------------------------------------------------
 Rotational constants (GHZ):     56.4402446     10.2643486      9.8076235
 Standard basis: 6-311+G(2df,2p) (5D, 7F)
 There are   138 symmetry adapted basis functions of A   symmetry.
 Integral buffers will be    131072 words long.
 Raffenetti 2 integral format.
 Two-electron integral symmetry is turned on.
   138 basis functions,   200 primitive gaussians,   153 cartesian basis functions
    13 alpha electrons       11 beta electrons
       nuclear repulsion energy        69.3324119811 Hartrees.
 NAtoms=    7 NActive=    7 NUniq=    7 SFac= 1.00D+00 NAtFMM=   50 NAOKFM=F Big=F
 One-electron integrals computed using PRISM.
 NBasis=   138 RedAO= T  NBF=   138
 NBsUse=   138 1.00D-06 NBFU=   138
 Initial guess read from the read-write file.
 B after Tr=     0.000000    0.000000    0.000000
         Rot=    1.000000    0.000000    0.000000    0.000000 Ang=   0.00 deg.
 Initial guess orbital symmetries:
 Alpha Orbitals:
       Occupied  (A) (A) (A) (A) (A) (A) (A) (A) (A) (A) (A) (A)
                 (A)
       Virtual   (A) (A) (A) (A) (A) (A) (A) (A) (A) (A) (A) (A)
                 (A) (A) (A) (A) (A) (A) (A) (A) (A) (A) (A) (A)
                 (A) (A) (A) (A) (A) (A) (A) (A) (A) (A) (A) (A)
                 (A) (A) (A) (A) (A) (A) (A) (A) (A) (A) (A) (A)
                 (A) (A) (A) (A) (A) (A) (A) (A) (A) (A) (A) (A)
                 (A) (A) (A) (A) (A) (A) (A) (A) (A) (A) (A) (A)
                 (A) (A) (A) (A) (A) (A) (A) (A) (A) (A) (A) (A)
                 (A) (A) (A) (A) (A) (A) (A) (A) (A) (A) (A) (A)
                 (A) (A) (A) (A) (A) (A) (A) (A) (A) (A) (A) (A)
                 (A) (A) (A) (A) (A) (A) (A) (A) (A) (A) (A) (A)
                 (A) (A) (A) (A) (A)
 Beta  Orbitals:
       Occupied  (A) (A) (A) (A) (A) (A) (A) (A) (A) (A) (A)
       Virtual   (A) (A) (A) (A) (A) (A) (A) (A) (A) (A) (A) (A)
                 (A) (A) (A) (A) (A) (A) (A) (A) (A) (A) (A) (A)
                 (A) (A) (A) (A) (A) (A) (A) (A) (A) (A) (A) (A)
                 (A) (A) (A) (A) (A) (A) (A) (A) (A) (A) (A) (A)
                 (A) (A) (A) (A) (A) (A) (A) (A) (A) (A) (A) (A)
                 (A) (A) (A) (A) (A) (A) (A) (A) (A) (A) (A) (A)
                 (A) (A) (A) (A) (A) (A) (A) (A) (A) (A) (A) (A)
                 (A) (A) (A) (A) (A) (A) (A) (A) (A) (A) (A) (A)
                 (A) (A) (A) (A) (A) (A) (A) (A) (A) (A) (A) (A)
                 (A) (A) (A) (A) (A) (A) (A) (A) (A) (A) (A) (A)
                 (A) (A) (A) (A) (A) (A) (A)
 Initial guess <Sx>= 0.0000 <Sy>= 0.0000 <Sz>= 1.0000 <S**2>= 2.0111 S= 1.0037
 Harris functional with IExCor= 1009 diagonalized for initial guess.
 ExpMin= 4.38D-02 ExpMax= 8.59D+03 ExpMxC= 1.30D+03 IAcc=2 IRadAn=         0 AccDes= 0.00D+00
 HarFok:  IExCor= 1009 AccDes= 0.00D+00 IRadAn=         0 IDoV= 1
 ScaDFX=  1.000000  1.000000  1.000000  1.000000
 FoFCou: FMM=F IPFlag=           0 FMFlag=      100000 FMFlg1=           0
         NFxFlg=           0 DoJE=T BraDBF=F KetDBF=T FulRan=T
         Omega=  0.000000  0.000000  1.000000  0.000000  0.000000 ICntrl=     500 IOpCl=  0
         NMat0=    1 NMatS0=    1 NMatT0=    0 NMatD0=    1 NMtDS0=    0 NMtDT0=    0
         I1Cent=           4 NGrid=           0.
 Petite list used in FoFCou.
 Requested convergence on RMS density matrix=1.00D-08 within 128 cycles.
 Requested convergence on MAX density matrix=1.00D-06.
 Requested convergence on             energy=1.00D-06.
 No special actions if energy rises.
 Keep R1 and R2 ints in memory in canonical form, NReq=140896423.
 SCF Done:  E(UM062X) =  -153.653352012     A.U. after   14 cycles
             Convg  =    0.9759D-08             -V/T =  2.0041
 <Sx>= 0.0000 <Sy>= 0.0000 <Sz>= 1.0000 <S**2>= 2.0084 S= 1.0028
 <L.S>= 0.000000000000E+00
 Annihilation of the first spin contaminant:
 S**2 before annihilation     2.0084,   after     2.0000
 Calling FoFJK, ICntrl=      2127 FMM=F ISym2X=0 I1Cent= 0 IOpClX= 1 NMat=1 NMatS=1 NMatT=0.
 ***** Axes restored to original set *****
 -------------------------------------------------------------------
 Center     Atomic                   Forces (Hartrees/Bohr)
 Number     Number              X              Y              Z
 -------------------------------------------------------------------
      1        6          -0.007015154    0.013792623    0.031379714
      2        6           0.006913909    0.018629145    0.028796542
      3        8           0.000050581   -0.015004602   -0.027835948
      4        1           0.007915691   -0.004209102   -0.007285085
      5        1           0.005757977   -0.004031869   -0.009112974
      6        1          -0.007895968   -0.003779322   -0.007546049
      7        1          -0.005727036   -0.005396873   -0.008396201
 -------------------------------------------------------------------
 Cartesian Forces:  Max     0.031379714 RMS     0.013766940

 GradGradGradGradGradGradGradGradGradGradGradGradGradGradGradGradGradGrad
 Berny optimization.
 Using GDIIS optimizer.
 Internal  Forces:  Max     0.014228243 RMS     0.007767695
 Search for a local minimum.
 Step number   2 out of a maximum of   29
 All quantities printed in internal units (Hartrees-Bohrs-Radians)
 Swaping is turned off.
 Update second derivatives using D2CorX and points    1    2
 DE= -1.35D-02 DEPred=-1.52D-02 R= 8.85D-01
 SS=  1.41D+00  RLast= 3.00D-01 DXNew= 5.0454D-01 9.0102D-01
 Trust test= 8.85D-01 RLast= 3.00D-01 DXMaxT set to 5.05D-01
 The second derivative matrix:
                          R1        R2        R3        R4        R5
           R1           0.49388
           R2          -0.00516   0.32158
           R3          -0.00557  -0.00439   0.32167
           R4           0.02980  -0.00516  -0.00557   0.49386
           R5          -0.00518  -0.00449  -0.00440  -0.00518   0.32151
           R6          -0.00555  -0.00439  -0.00429  -0.00555  -0.00439
           A1           0.01272   0.00282   0.00262   0.01272   0.00282
           A2          -0.00079   0.00354   0.00354  -0.00078   0.00355
           A3          -0.00299   0.00633   0.00635  -0.00298   0.00635
           A4           0.01271   0.00282   0.00262   0.01271   0.00282
           A5          -0.00079   0.00354   0.00354  -0.00079   0.00355
           A6          -0.00298   0.00633   0.00635  -0.00298   0.00635
           A7           0.05675   0.01129   0.01042   0.05675   0.01130
           D1           0.00446  -0.00056  -0.00062   0.00446  -0.00056
           D2          -0.00497   0.00072   0.00078  -0.00497   0.00072
           D3          -0.00974   0.00272   0.00285  -0.00974   0.00273
           D4           0.00446  -0.00056  -0.00062   0.00446  -0.00056
           D5          -0.00497   0.00072   0.00079  -0.00497   0.00072
           D6          -0.00973   0.00272   0.00285  -0.00973   0.00273
                          R6        A1        A2        A3        A4
           R6           0.32172
           A1           0.00262   0.16074
           A2           0.00353  -0.00352   0.15786
           A3           0.00634  -0.00670  -0.00361   0.15401
           A4           0.00262   0.00074  -0.00352  -0.00670   0.16074
           A5           0.00353  -0.00352  -0.00214  -0.00360  -0.00351
           A6           0.00634  -0.00670  -0.00361  -0.00599  -0.00670
           A7           0.01042   0.00451  -0.01488  -0.02851   0.00451
           D1          -0.00062   0.00171  -0.00025  -0.00067   0.00170
           D2           0.00078  -0.00199   0.00022   0.00065  -0.00198
           D3           0.00284  -0.00512  -0.00040  -0.00014  -0.00512
           D4          -0.00062   0.00171  -0.00025  -0.00067   0.00171
           D5           0.00078  -0.00199   0.00022   0.00066  -0.00199
           D6           0.00284  -0.00512  -0.00040  -0.00014  -0.00512
                          A5        A6        A7        D1        D2
           A5           0.15786
           A6          -0.00361   0.15401
           A7          -0.01487  -0.02852   0.27517
           D1          -0.00025  -0.00067   0.00766   0.01820
           D2           0.00022   0.00065  -0.00890  -0.00074   0.01836
           D3          -0.00040  -0.00015  -0.02261  -0.00150   0.00165
           D4          -0.00025  -0.00067   0.00767   0.00066  -0.00074
           D5           0.00022   0.00065  -0.00890  -0.00074   0.00083
           D6          -0.00040  -0.00014  -0.02259  -0.00150   0.00165
                          D3        D4        D5        D6
           D3           0.00528
           D4          -0.00150   0.01820
           D5           0.00165  -0.00074   0.01836
           D6           0.00298  -0.00150   0.00165   0.00528
 ITU=  1  0
     Eigenvalues ---    0.01754   0.01754   0.03412   0.03913   0.13217
     Eigenvalues ---    0.13710   0.16000   0.16356   0.24862   0.31799
     Eigenvalues ---    0.32598   0.32602   0.32605   0.46407   0.55202
 DIIS coeff's:      1.54571     -0.54571
 Cosine:  1.000 >  0.970
 Length:  0.990
 GDIIS step was calculated using  2 of the last  2 vectors.
 Iteration  1 RMS(Cart)=  0.08291509 RMS(Int)=  0.02321182
 Iteration  2 RMS(Cart)=  0.01609794 RMS(Int)=  0.01152192
 Iteration  3 RMS(Cart)=  0.00041609 RMS(Int)=  0.01151272
 Iteration  4 RMS(Cart)=  0.00000511 RMS(Int)=  0.01151272
 Iteration  5 RMS(Cart)=  0.00000008 RMS(Int)=  0.01151272
 Variable       Old X    -DE/DX   Delta X   Delta X   Delta X     New X
                                  (DIIS)     (GDIIS)  (Total)
    R1        2.64863  -0.01423   0.00648  -0.05455  -0.04807   2.60055
    R2        2.07020  -0.00551  -0.01488  -0.00825  -0.02314   2.04706
    R3        2.07025  -0.00529  -0.01496  -0.00712  -0.02208   2.04817
    R4        2.64862  -0.01423   0.00647  -0.05455  -0.04807   2.60054
    R5        2.07022  -0.00552  -0.01492  -0.00825  -0.02317   2.04705
    R6        2.07023  -0.00529  -0.01493  -0.00712  -0.02205   2.04818
    A1        1.97242   0.00163   0.03329   0.02364   0.03866   2.01108
    A2        1.94188   0.00166   0.01667   0.07885   0.07376   2.01565
    A3        1.95758   0.00809   0.02739   0.11029   0.11906   2.07664
    A4        1.97243   0.00163   0.03328   0.02364   0.03865   2.01108
    A5        1.94192   0.00166   0.01665   0.07884   0.07374   2.01566
    A6        1.95753   0.00810   0.02741   0.11031   0.11910   2.07663
    A7        1.99561   0.00899   0.09095  -0.06271   0.02823   2.02384
    D1       -2.03127   0.00700   0.03527   0.13169   0.16869  -1.86258
    D2        2.03134  -0.00667  -0.03526  -0.10241  -0.13940   1.89194
    D3       -2.21228  -0.01036  -0.06469  -0.21911  -0.29377  -2.50605
    D4       -2.03136   0.00700   0.03527   0.13162   0.16861  -1.86275
    D5        2.03127  -0.00667  -0.03528  -0.10251  -0.13952   1.89176
    D6       -2.21229  -0.01036  -0.06467  -0.21912  -0.29377  -2.50606
         Item               Value     Threshold  Converged?
 Maximum Force            0.014228     0.000002     NO 
 RMS     Force            0.007768     0.000001     NO 
 Maximum Displacement     0.159388     0.000006     NO 
 RMS     Displacement     0.095969     0.000004     NO 
 Predicted change in Energy=-8.490021D-03
 GradGradGradGradGradGradGradGradGradGradGradGradGradGradGradGradGradGrad

                          Input orientation:                          
 ---------------------------------------------------------------------
 Center     Atomic      Atomic             Coordinates (Angstroms)
 Number     Number       Type             X           Y           Z
 ---------------------------------------------------------------------
      1          6           0       -1.166491   -0.037373   -0.493033
      2          6           0        1.166826   -0.063981   -0.474498
      3          8           0       -0.000985    0.295488    0.158577
      4          1           0       -1.694376    0.792167   -0.947617
      5          1           0       -1.738461   -0.841261   -0.044331
      6          1           0        1.694812   -0.898910   -0.030021
      7          1           0        1.738675    0.753670   -0.897777
 ---------------------------------------------------------------------
                    Distance matrix (angstroms):
                    1          2          3          4          5
     1  C    0.000000
     2  C    2.333543   0.000000
     3  O    1.376153   1.376149   0.000000
     4  H    1.083257   3.023791   2.082769   0.000000
     5  H    1.083844   3.038075   2.086191   1.867071   0.000000
     6  H    3.023853   1.083252   2.082759   3.897220   3.433787
     7  H    3.038019   1.083849   2.086199   3.433628   3.919521
                    6          7
     6  H    0.000000
     7  H    1.867069   0.000000
 Stoichiometry    C2H4O(3)
 Framework group  C1[X(C2H4O)]
 Deg. of freedom    15
 Full point group                 C1      NOp   1
 Largest Abelian subgroup         C1      NOp   1
 Largest concise Abelian subgroup C1      NOp   1
                         Standard orientation:                         
 ---------------------------------------------------------------------
 Center     Atomic      Atomic             Coordinates (Angstroms)
 Number     Number       Type             X           Y           Z
 ---------------------------------------------------------------------
      1          6           0       -1.166772    0.000068   -0.243955
      2          6           0        1.166770    0.000145   -0.243954
      3          8           0        0.000001   -0.000226    0.485727
      4          1           0       -1.707707    0.938582   -0.249325
      5          1           0       -1.725926   -0.928299   -0.229848
      6          1           0        1.707787   -0.938311   -0.250038
      7          1           0        1.725848    0.928554   -0.229150
 ---------------------------------------------------------------------
 Rotational constants (GHZ):     56.6187496     10.5139333     10.1139771
 Standard basis: 6-311+G(2df,2p) (5D, 7F)
 There are   138 symmetry adapted basis functions of A   symmetry.
 Integral buffers will be    131072 words long.
 Raffenetti 2 integral format.
 Two-electron integral symmetry is turned on.
   138 basis functions,   200 primitive gaussians,   153 cartesian basis functions
    13 alpha electrons       11 beta electrons
       nuclear repulsion energy        70.2597778416 Hartrees.
 NAtoms=    7 NActive=    7 NUniq=    7 SFac= 1.00D+00 NAtFMM=   50 NAOKFM=F Big=F
 One-electron integrals computed using PRISM.
 NBasis=   138 RedAO= T  NBF=   138
 NBsUse=   138 1.00D-06 NBFU=   138
 Initial guess read from the read-write file.
 B after Tr=     0.000000    0.000000    0.000000
         Rot=    1.000000    0.000000    0.000000    0.000000 Ang=   0.00 deg.
 Initial guess orbital symmetries:
 Alpha Orbitals:
       Occupied  (A) (A) (A) (A) (A) (A) (A) (A) (A) (A) (A) (A)
                 (A)
       Virtual   (A) (A) (A) (A) (A) (A) (A) (A) (A) (A) (A) (A)
                 (A) (A) (A) (A) (A) (A) (A) (A) (A) (A) (A) (A)
                 (A) (A) (A) (A) (A) (A) (A) (A) (A) (A) (A) (A)
                 (A) (A) (A) (A) (A) (A) (A) (A) (A) (A) (A) (A)
                 (A) (A) (A) (A) (A) (A) (A) (A) (A) (A) (A) (A)
                 (A) (A) (A) (A) (A) (A) (A) (A) (A) (A) (A) (A)
                 (A) (A) (A) (A) (A) (A) (A) (A) (A) (A) (A) (A)
                 (A) (A) (A) (A) (A) (A) (A) (A) (A) (A) (A) (A)
                 (A) (A) (A) (A) (A) (A) (A) (A) (A) (A) (A) (A)
                 (A) (A) (A) (A) (A) (A) (A) (A) (A) (A) (A) (A)
                 (A) (A) (A) (A) (A)
 Beta  Orbitals:
       Occupied  (A) (A) (A) (A) (A) (A) (A) (A) (A) (A) (A)
       Virtual   (A) (A) (A) (A) (A) (A) (A) (A) (A) (A) (A) (A)
                 (A) (A) (A) (A) (A) (A) (A) (A) (A) (A) (A) (A)
                 (A) (A) (A) (A) (A) (A) (A) (A) (A) (A) (A) (A)
                 (A) (A) (A) (A) (A) (A) (A) (A) (A) (A) (A) (A)
                 (A) (A) (A) (A) (A) (A) (A) (A) (A) (A) (A) (A)
                 (A) (A) (A) (A) (A) (A) (A) (A) (A) (A) (A) (A)
                 (A) (A) (A) (A) (A) (A) (A) (A) (A) (A) (A) (A)
                 (A) (A) (A) (A) (A) (A) (A) (A) (A) (A) (A) (A)
                 (A) (A) (A) (A) (A) (A) (A) (A) (A) (A) (A) (A)
                 (A) (A) (A) (A) (A) (A) (A) (A) (A) (A) (A) (A)
                 (A) (A) (A) (A) (A) (A) (A)
 Initial guess <Sx>= 0.0000 <Sy>= 0.0000 <Sz>= 1.0000 <S**2>= 2.0086 S= 1.0029
 Harris functional with IExCor= 1009 diagonalized for initial guess.
 ExpMin= 4.38D-02 ExpMax= 8.59D+03 ExpMxC= 1.30D+03 IAcc=2 IRadAn=         0 AccDes= 0.00D+00
 HarFok:  IExCor= 1009 AccDes= 0.00D+00 IRadAn=         0 IDoV= 1
 ScaDFX=  1.000000  1.000000  1.000000  1.000000
 FoFCou: FMM=F IPFlag=           0 FMFlag=      100000 FMFlg1=           0
         NFxFlg=           0 DoJE=T BraDBF=F KetDBF=T FulRan=T
         Omega=  0.000000  0.000000  1.000000  0.000000  0.000000 ICntrl=     500 IOpCl=  0
         NMat0=    1 NMatS0=    1 NMatT0=    0 NMatD0=    1 NMtDS0=    0 NMtDT0=    0
         I1Cent=           4 NGrid=           0.
 Petite list used in FoFCou.
 Requested convergence on RMS density matrix=1.00D-08 within 128 cycles.
 Requested convergence on MAX density matrix=1.00D-06.
 Requested convergence on             energy=1.00D-06.
 No special actions if energy rises.
 Keep R1 and R2 ints in memory in canonical form, NReq=140896423.
 SCF Done:  E(UM062X) =  -153.661971127     A.U. after   12 cycles
             Convg  =    0.1669D-08             -V/T =  2.0034
 <Sx>= 0.0000 <Sy>= 0.0000 <Sz>= 1.0000 <S**2>= 2.0091 S= 1.0030
 <L.S>= 0.000000000000E+00
 Annihilation of the first spin contaminant:
 S**2 before annihilation     2.0091,   after     2.0000
 Calling FoFJK, ICntrl=      2127 FMM=F ISym2X=0 I1Cent= 0 IOpClX= 1 NMat=1 NMatS=1 NMatT=0.
 ***** Axes restored to original set *****
 -------------------------------------------------------------------
 Center     Atomic                   Forces (Hartrees/Bohr)
 Number     Number              X              Y              Z
 -------------------------------------------------------------------
      1        6          -0.004260828    0.004900212    0.008820983
      2        6           0.004231740    0.004688049    0.008949139
      3        8           0.000015380   -0.005235644   -0.009706384
      4        1           0.001324139   -0.000797071   -0.002408743
      5        1           0.001843931   -0.001180427   -0.001724617
      6        1          -0.001314699   -0.001577890   -0.001990800
      7        1          -0.001839662   -0.000797228   -0.001939579
 -------------------------------------------------------------------
 Cartesian Forces:  Max     0.009706384 RMS     0.004328735

 GradGradGradGradGradGradGradGradGradGradGradGradGradGradGradGradGradGrad
 Berny optimization.
 Using GDIIS optimizer.
 Internal  Forces:  Max     0.008942032 RMS     0.002601992
 Search for a local minimum.
 Step number   3 out of a maximum of   29
 All quantities printed in internal units (Hartrees-Bohrs-Radians)
 Swaping is turned off.
 Update second derivatives using D2CorX and points    2    3
 DE= -8.62D-03 DEPred=-8.49D-03 R= 1.02D+00
 SS=  1.41D+00  RLast= 5.64D-01 DXNew= 8.4853D-01 1.6920D+00
 Trust test= 1.02D+00 RLast= 5.64D-01 DXMaxT set to 8.49D-01
 The second derivative matrix:
                          R1        R2        R3        R4        R5
           R1           0.49094
           R2          -0.00631   0.32114
           R3          -0.00732  -0.00510   0.32075
           R4           0.02686  -0.00631  -0.00732   0.49092
           R5          -0.00633  -0.00494  -0.00511  -0.00633   0.32107
           R6          -0.00731  -0.00509  -0.00520  -0.00731  -0.00510
           A1           0.02015   0.00597   0.00568   0.02015   0.00597
           A2           0.00769   0.00712   0.00711   0.00769   0.00713
           A3           0.00735   0.01066   0.01085   0.00735   0.01068
           A4           0.02015   0.00596   0.00568   0.02015   0.00597
           A5           0.00769   0.00712   0.00711   0.00769   0.00713
           A6           0.00736   0.01066   0.01086   0.00736   0.01068
           A7           0.06939   0.01665   0.01558   0.06939   0.01666
           D1           0.00354  -0.00099  -0.00077   0.00353  -0.00099
           D2          -0.00370   0.00129   0.00108  -0.00370   0.00130
           D3          -0.00583   0.00444   0.00411  -0.00582   0.00445
           D4           0.00353  -0.00099  -0.00077   0.00353  -0.00100
           D5          -0.00370   0.00129   0.00108  -0.00370   0.00130
           D6          -0.00582   0.00443   0.00410  -0.00582   0.00445
                          R6        A1        A2        A3        A4
           R6           0.32080
           A1           0.00567   0.15691
           A2           0.00710  -0.00884   0.15075
           A3           0.01084  -0.01485  -0.01405   0.13929
           A4           0.00567  -0.00309  -0.00884  -0.01484   0.15692
           A5           0.00710  -0.00884  -0.00925  -0.01405  -0.00884
           A6           0.01084  -0.01485  -0.01406  -0.02072  -0.01485
           A7           0.01557  -0.00162  -0.02353  -0.04191  -0.00162
           D1          -0.00077  -0.00033  -0.00229  -0.00267  -0.00033
           D2           0.00107  -0.00014   0.00200   0.00226  -0.00014
           D3           0.00409  -0.00331   0.00091   0.00017  -0.00331
           D4          -0.00077  -0.00032  -0.00228  -0.00267  -0.00032
           D5           0.00107  -0.00014   0.00200   0.00226  -0.00014
           D6           0.00409  -0.00331   0.00091   0.00016  -0.00331
                          A5        A6        A7        D1        D2
           A5           0.15076
           A6          -0.01406   0.13927
           A7          -0.02352  -0.04192   0.26540
           D1          -0.00229  -0.00267   0.00410   0.01918
           D2           0.00200   0.00226  -0.00564  -0.00181   0.01952
           D3           0.00092   0.00016  -0.01924  -0.00368   0.00391
           D4          -0.00229  -0.00267   0.00411   0.00164  -0.00181
           D5           0.00200   0.00226  -0.00564  -0.00181   0.00198
           D6           0.00092   0.00016  -0.01923  -0.00368   0.00391
                          D3        D4        D5        D6
           D3           0.00922
           D4          -0.00368   0.01918
           D5           0.00391  -0.00181   0.01952
           D6           0.00692  -0.00368   0.00391   0.00922
 ITU=  1  1  0
     Eigenvalues ---    0.01749   0.01754   0.01845   0.02983   0.13580
     Eigenvalues ---    0.14778   0.16000   0.16036   0.23137   0.32072
     Eigenvalues ---    0.32598   0.32604   0.32612   0.46407   0.55609
 DIIS coeff's:      1.23967     -0.08914     -0.15053
 Cosine:  0.997 >  0.840
 Length:  0.927
 GDIIS step was calculated using  3 of the last  3 vectors.
 Iteration  1 RMS(Cart)=  0.02229695 RMS(Int)=  0.00507962
 Iteration  2 RMS(Cart)=  0.00096135 RMS(Int)=  0.00500243
 Iteration  3 RMS(Cart)=  0.00000153 RMS(Int)=  0.00500243
 Iteration  4 RMS(Cart)=  0.00000001 RMS(Int)=  0.00500243
 Variable       Old X    -DE/DX   Delta X   Delta X   Delta X     New X
                                  (DIIS)     (GDIIS)  (Total)
    R1        2.60055  -0.00200  -0.00973  -0.00497  -0.01470   2.58585
    R2        2.04706  -0.00025  -0.00965   0.00548  -0.00417   2.04289
    R3        2.04817  -0.00081  -0.00942   0.00334  -0.00608   2.04209
    R4        2.60054  -0.00200  -0.00974  -0.00496  -0.01470   2.58585
    R5        2.04705  -0.00025  -0.00967   0.00551  -0.00416   2.04289
    R6        2.04818  -0.00081  -0.00940   0.00332  -0.00609   2.04209
    A1        2.01108   0.00116   0.01845  -0.00028   0.00999   2.02107
    A2        2.01565  -0.00083   0.02228  -0.00600   0.00688   2.02252
    A3        2.07664   0.00169   0.03609   0.00492   0.03294   2.10958
    A4        2.01108   0.00116   0.01844  -0.00028   0.00998   2.02106
    A5        2.01566  -0.00083   0.02227  -0.00598   0.00688   2.02254
    A6        2.07663   0.00169   0.03611   0.00492   0.03295   2.10959
    A7        2.02384   0.00894   0.03185   0.00788   0.03974   2.06358
    D1       -1.86258   0.00197   0.05016   0.00961   0.05984  -1.80273
    D2        1.89194  -0.00167  -0.04314   0.00984  -0.03337   1.85856
    D3       -2.50605  -0.00284  -0.08825   0.00436  -0.08804  -2.59409
    D4       -1.86275   0.00197   0.05014   0.00945   0.05966  -1.80309
    D5        1.89176  -0.00168  -0.04317   0.00967  -0.03357   1.85818
    D6       -2.50606  -0.00284  -0.08825   0.00434  -0.08806  -2.59412
         Item               Value     Threshold  Converged?
 Maximum Force            0.008942     0.000002     NO 
 RMS     Force            0.002602     0.000001     NO 
 Maximum Displacement     0.040615     0.000006     NO 
 RMS     Displacement     0.022341     0.000004     NO 
 Predicted change in Energy=-7.420309D-04
 GradGradGradGradGradGradGradGradGradGradGradGradGradGradGradGradGradGrad

                          Input orientation:                          
 ---------------------------------------------------------------------
 Center     Atomic      Atomic             Coordinates (Angstroms)
 Number     Number       Type             X           Y           Z
 ---------------------------------------------------------------------
      1          6           0       -1.174142   -0.028784   -0.472621
      2          6           0        1.174411   -0.051647   -0.456074
      3          8           0       -0.000978    0.292945    0.153972
      4          1           0       -1.681357    0.786631   -0.969110
      5          1           0       -1.731662   -0.846640   -0.038987
      6          1           0        1.681945   -0.913808   -0.046492
      7          1           0        1.731783    0.761104   -0.899388
 ---------------------------------------------------------------------
                    Distance matrix (angstroms):
                    1          2          3          4          5
     1  C    0.000000
     2  C    2.348722   0.000000
     3  O    1.368372   1.368371   0.000000
     4  H    1.081051   3.020153   2.080556   0.000000
     5  H    1.080627   3.041584   2.081142   1.880221   0.000000
     6  H    3.020279   1.081050   2.080545   3.880015   3.414276
     7  H    3.041456   1.080628   2.081155   3.413948   3.914152
                    6          7
     6  H    0.000000
     7  H    1.880225   0.000000
 Stoichiometry    C2H4O(3)
 Framework group  C1[X(C2H4O)]
 Deg. of freedom    15
 Full point group                 C1      NOp   1
 Largest Abelian subgroup         C1      NOp   1
 Largest concise Abelian subgroup C1      NOp   1
                         Standard orientation:                         
 ---------------------------------------------------------------------
 Center     Atomic      Atomic             Coordinates (Angstroms)
 Number     Number       Type             X           Y           Z
 ---------------------------------------------------------------------
      1          6           0       -1.174361    0.000218   -0.229556
      2          6           0        1.174361    0.000105   -0.229552
      3          8           0        0.000000   -0.000354    0.472811
      4          1           0       -1.692929    0.947517   -0.278351
      5          1           0       -1.720869   -0.932009   -0.235555
      6          1           0        1.693092   -0.947049   -0.279437
      7          1           0        1.720704    0.932437   -0.234496
 ---------------------------------------------------------------------
 Rotational constants (GHZ):     58.4566204     10.4405570     10.1217689
 Standard basis: 6-311+G(2df,2p) (5D, 7F)
 There are   138 symmetry adapted basis functions of A   symmetry.
 Integral buffers will be    131072 words long.
 Raffenetti 2 integral format.
 Two-electron integral symmetry is turned on.
   138 basis functions,   200 primitive gaussians,   153 cartesian basis functions
    13 alpha electrons       11 beta electrons
       nuclear repulsion energy        70.4591672276 Hartrees.
 NAtoms=    7 NActive=    7 NUniq=    7 SFac= 1.00D+00 NAtFMM=   50 NAOKFM=F Big=F
 One-electron integrals computed using PRISM.
 NBasis=   138 RedAO= T  NBF=   138
 NBsUse=   138 1.00D-06 NBFU=   138
 Initial guess read from the read-write file.
 B after Tr=     0.000000    0.000000    0.000000
         Rot=    1.000000    0.000000    0.000000    0.000000 Ang=   0.00 deg.
 Initial guess orbital symmetries:
 Alpha Orbitals:
       Occupied  (A) (A) (A) (A) (A) (A) (A) (A) (A) (A) (A) (A)
                 (A)
       Virtual   (A) (A) (A) (A) (A) (A) (A) (A) (A) (A) (A) (A)
                 (A) (A) (A) (A) (A) (A) (A) (A) (A) (A) (A) (A)
                 (A) (A) (A) (A) (A) (A) (A) (A) (A) (A) (A) (A)
                 (A) (A) (A) (A) (A) (A) (A) (A) (A) (A) (A) (A)
                 (A) (A) (A) (A) (A) (A) (A) (A) (A) (A) (A) (A)
                 (A) (A) (A) (A) (A) (A) (A) (A) (A) (A) (A) (A)
                 (A) (A) (A) (A) (A) (A) (A) (A) (A) (A) (A) (A)
                 (A) (A) (A) (A) (A) (A) (A) (A) (A) (A) (A) (A)
                 (A) (A) (A) (A) (A) (A) (A) (A) (A) (A) (A) (A)
                 (A) (A) (A) (A) (A) (A) (A) (A) (A) (A) (A) (A)
                 (A) (A) (A) (A) (A)
 Beta  Orbitals:
       Occupied  (A) (A) (A) (A) (A) (A) (A) (A) (A) (A) (A)
       Virtual   (A) (A) (A) (A) (A) (A) (A) (A) (A) (A) (A) (A)
                 (A) (A) (A) (A) (A) (A) (A) (A) (A) (A) (A) (A)
                 (A) (A) (A) (A) (A) (A) (A) (A) (A) (A) (A) (A)
                 (A) (A) (A) (A) (A) (A) (A) (A) (A) (A) (A) (A)
                 (A) (A) (A) (A) (A) (A) (A) (A) (A) (A) (A) (A)
                 (A) (A) (A) (A) (A) (A) (A) (A) (A) (A) (A) (A)
                 (A) (A) (A) (A) (A) (A) (A) (A) (A) (A) (A) (A)
                 (A) (A) (A) (A) (A) (A) (A) (A) (A) (A) (A) (A)
                 (A) (A) (A) (A) (A) (A) (A) (A) (A) (A) (A) (A)
                 (A) (A) (A) (A) (A) (A) (A) (A) (A) (A) (A) (A)
                 (A) (A) (A) (A) (A) (A) (A)
 Initial guess <Sx>= 0.0000 <Sy>= 0.0000 <Sz>= 1.0000 <S**2>= 2.0092 S= 1.0031
 Harris functional with IExCor= 1009 diagonalized for initial guess.
 ExpMin= 4.38D-02 ExpMax= 8.59D+03 ExpMxC= 1.30D+03 IAcc=2 IRadAn=         0 AccDes= 0.00D+00
 HarFok:  IExCor= 1009 AccDes= 0.00D+00 IRadAn=         0 IDoV= 1
 ScaDFX=  1.000000  1.000000  1.000000  1.000000
 FoFCou: FMM=F IPFlag=           0 FMFlag=      100000 FMFlg1=           0
         NFxFlg=           0 DoJE=T BraDBF=F KetDBF=T FulRan=T
         Omega=  0.000000  0.000000  1.000000  0.000000  0.000000 ICntrl=     500 IOpCl=  0
         NMat0=    1 NMatS0=    1 NMatT0=    0 NMatD0=    1 NMtDS0=    0 NMtDT0=    0
         I1Cent=           4 NGrid=           0.
 Petite list used in FoFCou.
 Requested convergence on RMS density matrix=1.00D-08 within 128 cycles.
 Requested convergence on MAX density matrix=1.00D-06.
 Requested convergence on             energy=1.00D-06.
 No special actions if energy rises.
 Keep R1 and R2 ints in memory in canonical form, NReq=140896423.
 SCF Done:  E(UM062X) =  -153.662944092     A.U. after   11 cycles
             Convg  =    0.2674D-08             -V/T =  2.0033
 <Sx>= 0.0000 <Sy>= 0.0000 <Sz>= 1.0000 <S**2>= 2.0093 S= 1.0031
 <L.S>= 0.000000000000E+00
 Annihilation of the first spin contaminant:
 S**2 before annihilation     2.0093,   after     2.0001
 Calling FoFJK, ICntrl=      2127 FMM=F ISym2X=0 I1Cent= 0 IOpClX= 1 NMat=1 NMatS=1 NMatT=0.
 ***** Axes restored to original set *****
 -------------------------------------------------------------------
 Center     Atomic                   Forces (Hartrees/Bohr)
 Number     Number              X              Y              Z
 -------------------------------------------------------------------
      1        6          -0.002004879    0.002217682    0.003523315
      2        6           0.001992712    0.001732406    0.003792039
      3        8           0.000002508   -0.000905568   -0.001665132
      4        1          -0.000030929   -0.000401211   -0.001885330
      5        1          -0.000085137   -0.001236202   -0.000877838
      6        1           0.000036483   -0.001352357   -0.001369424
      7        1           0.000089240   -0.000054750   -0.001517630
 -------------------------------------------------------------------
 Cartesian Forces:  Max     0.003792039 RMS     0.001666733

 GradGradGradGradGradGradGradGradGradGradGradGradGradGradGradGradGradGrad
 Berny optimization.
 Using GDIIS optimizer.
 Internal  Forces:  Max     0.001953793 RMS     0.001072914
 Search for a local minimum.
 Step number   4 out of a maximum of   29
 All quantities printed in internal units (Hartrees-Bohrs-Radians)
 Swaping is turned off.
 Update second derivatives using D2CorX and points    3    4
 DE= -9.73D-04 DEPred=-7.42D-04 R= 1.31D+00
 SS=  1.41D+00  RLast= 1.72D-01 DXNew= 1.4270D+00 5.1502D-01
 Trust test= 1.31D+00 RLast= 1.72D-01 DXMaxT set to 8.49D-01
 The second derivative matrix:
                          R1        R2        R3        R4        R5
           R1           0.50131
           R2          -0.00374   0.32177
           R3          -0.00303  -0.00403   0.32251
           R4           0.03723  -0.00374  -0.00303   0.50128
           R5          -0.00377  -0.00430  -0.00404  -0.00377   0.32170
           R6          -0.00300  -0.00402  -0.00344  -0.00301  -0.00404
           A1           0.02022   0.00598   0.00573   0.02022   0.00599
           A2           0.00761   0.00713   0.00688   0.00761   0.00714
           A3           0.00181   0.00929   0.00853   0.00181   0.00932
           A4           0.02021   0.00598   0.00572   0.02021   0.00598
           A5           0.00762   0.00713   0.00689   0.00762   0.00714
           A6           0.00181   0.00929   0.00854   0.00182   0.00932
           A7           0.05452   0.01285   0.01003   0.05451   0.01289
           D1           0.00358  -0.00101  -0.00057   0.00358  -0.00101
           D2          -0.00181   0.00178   0.00174  -0.00180   0.00178
           D3          -0.00666   0.00428   0.00347  -0.00665   0.00429
           D4           0.00357  -0.00101  -0.00058   0.00357  -0.00102
           D5          -0.00182   0.00178   0.00174  -0.00182   0.00178
           D6          -0.00665   0.00427   0.00347  -0.00665   0.00429
                          R6        A1        A2        A3        A4
           R6           0.32257
           A1           0.00572   0.15688
           A2           0.00687  -0.00858   0.14835
           A3           0.00851  -0.01485  -0.01433   0.14221
           A4           0.00572  -0.00311  -0.00858  -0.01484   0.15689
           A5           0.00688  -0.00857  -0.01164  -0.01433  -0.00857
           A6           0.00852  -0.01485  -0.01433  -0.01780  -0.01485
           A7           0.01001  -0.00257  -0.01581  -0.03294  -0.00255
           D1          -0.00057  -0.00058  -0.00005  -0.00240  -0.00057
           D2           0.00174   0.00003   0.00054   0.00106   0.00003
           D3           0.00346  -0.00291  -0.00265   0.00014  -0.00292
           D4          -0.00057  -0.00057  -0.00005  -0.00239  -0.00057
           D5           0.00174   0.00003   0.00053   0.00107   0.00003
           D6           0.00346  -0.00291  -0.00265   0.00013  -0.00292
                          A5        A6        A7        D1        D2
           A5           0.14837
           A6          -0.01433   0.14219
           A7          -0.01582  -0.03296   0.26262
           D1          -0.00005  -0.00240  -0.00306   0.01709
           D2           0.00054   0.00106  -0.00376  -0.00045   0.01899
           D3          -0.00264   0.00013  -0.00673  -0.00035   0.00161
           D4          -0.00006  -0.00239  -0.00303  -0.00044  -0.00046
           D5           0.00054   0.00106  -0.00373  -0.00045   0.00145
           D6          -0.00264   0.00013  -0.00672  -0.00035   0.00161
                          D3        D4        D5        D6
           D3           0.00398
           D4          -0.00036   0.01710
           D5           0.00160  -0.00045   0.01898
           D6           0.00168  -0.00036   0.00160   0.00398
 ITU=  1  1  1  0
     Eigenvalues ---    0.01375   0.01507   0.01754   0.01993   0.14607
     Eigenvalues ---    0.15077   0.16000   0.16240   0.24167   0.31825
     Eigenvalues ---    0.32598   0.32604   0.32645   0.46407   0.56245
 DIIS coeff's:      0.45505      0.74853     -0.09671     -0.10687
 Cosine:  1.000 >  0.710
 Length:  0.247
 GDIIS step was calculated using  4 of the last  4 vectors.
 Iteration  1 RMS(Cart)=  0.01128912 RMS(Int)=  0.00431207
 Iteration  2 RMS(Cart)=  0.00015643 RMS(Int)=  0.00430859
 Iteration  3 RMS(Cart)=  0.00000025 RMS(Int)=  0.00430859
 Variable       Old X    -DE/DX   Delta X   Delta X   Delta X     New X
                                  (DIIS)     (GDIIS)  (Total)
    R1        2.58585   0.00133  -0.00051  -0.00077  -0.00127   2.58458
    R2        2.04289   0.00057  -0.00535   0.00588   0.00052   2.04341
    R3        2.04209   0.00064  -0.00411   0.00459   0.00048   2.04257
    R4        2.58585   0.00133  -0.00051  -0.00076  -0.00127   2.58458
    R5        2.04289   0.00057  -0.00537   0.00590   0.00052   2.04341
    R6        2.04209   0.00064  -0.00410   0.00458   0.00048   2.04257
    A1        2.02107   0.00109   0.00895   0.00289   0.00472   2.02579
    A2        2.02252  -0.00009   0.01453  -0.00263   0.00385   2.02637
    A3        2.10958   0.00001   0.01165   0.00147   0.00608   2.11567
    A4        2.02106   0.00109   0.00895   0.00289   0.00471   2.02577
    A5        2.02254  -0.00008   0.01452  -0.00261   0.00386   2.02640
    A6        2.10959   0.00001   0.01166   0.00147   0.00609   2.11567
    A7        2.06358   0.00171   0.00191   0.00111   0.00301   2.06659
    D1       -1.80273   0.00126   0.00864   0.01615   0.02486  -1.77787
    D2        1.85856  -0.00060  -0.01710   0.01253  -0.00464   1.85392
    D3       -2.59409  -0.00195  -0.02450  -0.00255  -0.03039  -2.62448
    D4       -1.80309   0.00126   0.00872   0.01595   0.02475  -1.77834
    D5        1.85818  -0.00060  -0.01702   0.01232  -0.00477   1.85342
    D6       -2.59412  -0.00195  -0.02449  -0.00257  -0.03040  -2.62452
         Item               Value     Threshold  Converged?
 Maximum Force            0.001954     0.000002     NO 
 RMS     Force            0.001073     0.000001     NO 
 Maximum Displacement     0.023837     0.000006     NO 
 RMS     Displacement     0.011289     0.000004     NO 
 Predicted change in Energy=-1.755750D-04
 GradGradGradGradGradGradGradGradGradGradGradGradGradGradGradGradGradGrad

                          Input orientation:                          
 ---------------------------------------------------------------------
 Center     Atomic      Atomic             Coordinates (Angstroms)
 Number     Number       Type             X           Y           Z
 ---------------------------------------------------------------------
      1          6           0       -1.174655   -0.026588   -0.464531
      2          6           0        1.174898   -0.046101   -0.449786
      3          8           0       -0.000989    0.295784    0.159316
      4          1           0       -1.675167    0.780424   -0.981724
      5          1           0       -1.731531   -0.847513   -0.035258
      6          1           0        1.675852   -0.920920   -0.058625
      7          1           0        1.731592    0.764714   -0.898092
 ---------------------------------------------------------------------
                    Distance matrix (angstroms):
                    1          2          3          4          5
     1  C    0.000000
     2  C    2.349680   0.000000
     3  O    1.367699   1.367699   0.000000
     4  H    1.081327   3.014793   2.083200   0.000000
     5  H    1.080882   3.043259   2.083210   1.883920   0.000000
     6  H    3.014959   1.081327   2.083185   3.869885   3.408253
     7  H    3.043091   1.080882   2.083228   3.407821   3.916245
                    6          7
     6  H    0.000000
     7  H    1.883925   0.000000
 Stoichiometry    C2H4O(3)
 Framework group  C1[X(C2H4O)]
 Deg. of freedom    15
 Full point group                 C1      NOp   1
 Largest Abelian subgroup         C1      NOp   1
 Largest concise Abelian subgroup C1      NOp   1
                         Standard orientation:                         
 ---------------------------------------------------------------------
 Center     Atomic      Atomic             Coordinates (Angstroms)
 Number     Number       Type             X           Y           Z
 ---------------------------------------------------------------------
      1          6           0       -1.174839    0.000507   -0.226558
      2          6           0        1.174841   -0.000079   -0.226553
      3          8           0       -0.000001   -0.000475    0.473694
      4          1           0       -1.685035    0.951272   -0.297382
      5          1           0       -1.722406   -0.931343   -0.238040
      6          1           0        1.685250   -0.950618   -0.298843
      7          1           0        1.722189    0.931916   -0.236621
 ---------------------------------------------------------------------
 Rotational constants (GHZ):     58.3562041     10.4414816     10.1244006
 Standard basis: 6-311+G(2df,2p) (5D, 7F)
 There are   138 symmetry adapted basis functions of A   symmetry.
 Integral buffers will be    131072 words long.
 Raffenetti 2 integral format.
 Two-electron integral symmetry is turned on.
   138 basis functions,   200 primitive gaussians,   153 cartesian basis functions
    13 alpha electrons       11 beta electrons
       nuclear repulsion energy        70.4643427510 Hartrees.
 NAtoms=    7 NActive=    7 NUniq=    7 SFac= 1.00D+00 NAtFMM=   50 NAOKFM=F Big=F
 One-electron integrals computed using PRISM.
[...]
     1   6     0.00  -0.10  -0.02    -0.01  -0.11  -0.02     0.29  -0.13   0.02
     2   6     0.00   0.10  -0.02     0.01  -0.11   0.02     0.29   0.13   0.02
     3   8    -0.03   0.00   0.02     0.00   0.15   0.00    -0.48   0.00  -0.02
     4   1     0.49  -0.17   0.09     0.54  -0.17   0.07    -0.03  -0.09  -0.07
     5   1    -0.30   0.35   0.00    -0.27   0.27  -0.02     0.42  -0.32   0.02
     6   1     0.49   0.17   0.09    -0.54  -0.17  -0.07    -0.03   0.09  -0.07
     7   1    -0.30  -0.35   0.00     0.27   0.27   0.02     0.42   0.32   0.02
                    10                     11                     12
                     A                      A                      A
 Frequencies --  1450.9384              1496.2882              3141.6283
 Red. masses --     1.1033                 1.1855                 1.0472
 Frc consts  --     1.3685                 1.5638                 6.0896
 IR Inten    --     8.4148                 0.0022                30.9041
  Atom  AN      X      Y      Z        X      Y      Z        X      Y      Z
     1   6     0.06  -0.03   0.00    -0.07   0.05   0.00     0.02  -0.03  -0.02
     2   6     0.06   0.03   0.00     0.07   0.05   0.00     0.02   0.03  -0.02
     3   8     0.01   0.00  -0.01     0.00  -0.02   0.00     0.00   0.00   0.00
     4   1    -0.50  -0.01  -0.01     0.48   0.03   0.01     0.02   0.55   0.25
     5   1    -0.24   0.41   0.14     0.25  -0.42  -0.14    -0.30  -0.20  -0.03
     6   1    -0.50   0.01  -0.01    -0.48   0.03  -0.01     0.02  -0.55   0.25
     7   1    -0.24  -0.41   0.14    -0.25  -0.42   0.14    -0.30   0.20  -0.03
                    13                     14                     15
                     A                      A                      A
 Frequencies --  3148.4763              3298.6267              3301.8405
 Red. masses --     1.0486                 1.1208                 1.1231
 Frc consts  --     6.1242                 7.1851                 7.2138
 IR Inten    --     9.7758                 3.4588                 2.5259
  Atom  AN      X      Y      Z        X      Y      Z        X      Y      Z
     1   6    -0.03   0.03   0.02    -0.04  -0.06  -0.02    -0.04  -0.06  -0.02
     2   6     0.03   0.03  -0.02    -0.04   0.06  -0.02     0.04  -0.06   0.02
     3   8     0.00   0.00   0.00     0.00   0.00   0.00     0.00   0.00   0.00
     4   1    -0.01  -0.54  -0.25     0.01   0.32   0.16     0.01   0.32   0.16
     5   1     0.31   0.21   0.03     0.51   0.34   0.03     0.50   0.34   0.03
     6   1     0.01  -0.54   0.25     0.01  -0.32   0.16    -0.01   0.32  -0.16
     7   1    -0.31   0.21  -0.03     0.51  -0.34   0.03    -0.50   0.34  -0.03

 -------------------
 - Thermochemistry -
 -------------------
 Temperature   298.150 Kelvin.  Pressure   1.00000 Atm.
 Atom     1 has atomic number  6 and mass  12.00000
 Atom     2 has atomic number  6 and mass  12.00000
 Atom     3 has atomic number  8 and mass  15.99491
 Atom     4 has atomic number  1 and mass   1.00783
 Atom     5 has atomic number  1 and mass   1.00783
 Atom     6 has atomic number  1 and mass   1.00783
 Atom     7 has atomic number  1 and mass   1.00783
 Molecular mass:    44.02621 amu.
 Principal axes and moments of inertia in atomic units:
                           1         2         3
     Eigenvalues --    32.23017 153.60866 182.71992
           X            0.99989   0.00000  -0.01457
           Y            0.00000   1.00000   0.00000
           Z            0.01457   0.00000   0.99989
 This molecule is an asymmetric top.
 Rotational symmetry number  1.
 Rotational temperatures (Kelvin)      2.68735     0.56386     0.47403
 Rotational constants (GHZ):          55.99540    11.74896     9.87709
 Zero-point vibrational energy     136370.2 (Joules/Mol)
                                   32.59326 (Kcal/Mol)
 Warning -- explicit consideration of   3 degrees of freedom as
           vibrations may cause significant error
 Vibrational temperatures:    265.19   356.56   666.13   924.77   951.95
          (Kelvin)           1531.81  1622.52  1813.33  1883.80  2087.57
                             2152.82  4520.10  4529.95  4745.98  4750.61
 
 Zero-point correction=                           0.051941 (Hartree/Particle)
 Thermal correction to Energy=                    0.056454
 Thermal correction to Enthalpy=                  0.057399
 Thermal correction to Gibbs Free Energy=         0.025744
 Sum of electronic and zero-point Energies=           -153.622493
 Sum of electronic and thermal Energies=              -153.617979
 Sum of electronic and thermal Enthalpies=            -153.617035
 Sum of electronic and thermal Free Energies=         -153.648690
 
                     E (Thermal)             CV                S
                      KCal/Mol        Cal/Mol-Kelvin    Cal/Mol-Kelvin
 Total                   35.426             13.814             66.623
 Electronic               0.000              0.000              2.183
 Translational            0.889              2.981             37.273
 Rotational               0.889              2.981             21.430
 Vibrational             33.648              7.853              5.737
 Vibration     1          0.631              1.861              2.284
 Vibration     2          0.661              1.766              1.746
 Vibration     3          0.821              1.332              0.757
                       Q            Log10(Q)             Ln(Q)
 Total Bot       0.144127D-11        -11.841254        -27.265495
 Total V=0       0.112135D+13         12.049743         27.745559
 Vib (Bot)       0.388619D-23        -23.410476        -53.904613
 Vib (Bot)    1  0.108808D+01          0.036661          0.084415
 Vib (Bot)    2  0.788357D+00         -0.103277         -0.237804
 Vib (Bot)    3  0.366468D+00         -0.435964         -1.003845
 Vib (V=0)       0.302358D+01          0.480521          1.106441
 Vib (V=0)    1  0.169746D+01          0.229800          0.529135
 Vib (V=0)    2  0.143355D+01          0.156411          0.360151
 Vib (V=0)    3  0.111992D+01          0.049186          0.113256
 Electronic      0.300000D+01          0.477121          1.098612
 Translational   0.114821D+08          7.060022         16.256302
 Rotational      0.107666D+05          4.032078          9.284204
 ***** Axes restored to original set *****
 -------------------------------------------------------------------
 Center     Atomic                   Forces (Hartrees/Bohr)
 Number     Number              X              Y              Z
 -------------------------------------------------------------------
      1        6           0.000000708   -0.000007102    0.000003839
      2        6          -0.000000704    0.000007105   -0.000003836
      3        8           0.000000002   -0.000000001    0.000000005
      4        1           0.000004040   -0.000006549    0.000003541
      5        1           0.000001211   -0.000012586    0.000006799
      6        1          -0.000004038    0.000006546   -0.000003544
      7        1          -0.000001220    0.000012588   -0.000006804
 -------------------------------------------------------------------
 Cartesian Forces:  Max     0.000012588 RMS     0.000005720

 GradGradGradGradGradGradGradGradGradGradGradGradGradGradGradGradGradGrad
 Berny optimization.
 Internal  Forces:  Max     0.000000018 RMS     0.000000010
 Search for a local minimum.
 Step number   1 out of a maximum of    2
 All quantities printed in internal units (Hartrees-Bohrs-Radians)
 Swaping is turned off.
 Second derivative matrix not updated -- analytic derivatives used.
 The second derivative matrix:
                          R1        R2        R3        R4        R5
           R1           0.42534
           R2           0.00991   0.35843
           R3           0.00783  -0.00046   0.37457
           R4           0.02701  -0.00006  -0.00084   0.42534
           R5          -0.00006   0.00092  -0.00017   0.00991   0.35843
           R6          -0.00084  -0.00017   0.00019   0.00783  -0.00046
           A1           0.01932   0.00565  -0.00606  -0.01044   0.00028
           A2           0.01486  -0.00691   0.00385   0.00689   0.00033
           A3          -0.03016   0.00527   0.00425   0.00252  -0.00064
           A4          -0.01044   0.00028  -0.00035   0.01932   0.00565
           A5           0.00689   0.00033   0.00052   0.01486  -0.00691
           A6           0.00252  -0.00064  -0.00018  -0.03016   0.00527
           A7           0.05776  -0.00600   0.00523   0.05776  -0.00600
           D1           0.00309  -0.00570  -0.00263   0.00076  -0.00002
           D2           0.00094   0.00308   0.00249  -0.00016  -0.00027
           D3           0.01337   0.00582   0.00508  -0.00012   0.00006
           D4           0.00076  -0.00002  -0.00029   0.00309  -0.00570
           D5          -0.00016  -0.00027  -0.00034   0.00094   0.00308
           D6          -0.00012   0.00006   0.00015   0.01337   0.00582
                          R6        A1        A2        A3        A4
           R6           0.37457
           A1          -0.00035   0.11190
           A2           0.00052  -0.06507   0.09047
           A3          -0.00018  -0.03616  -0.03220   0.06754
           A4          -0.00606   0.00075  -0.00084   0.00019   0.11190
           A5           0.00385  -0.00084   0.00220  -0.00145  -0.06507
           A6           0.00425   0.00019  -0.00145   0.00128  -0.03616
           A7           0.00523  -0.00381   0.00980  -0.00639  -0.00381
           D1          -0.00029  -0.00250   0.01022  -0.01007   0.00000
           D2          -0.00034   0.00385  -0.01060   0.00951   0.00025
           D3           0.00015   0.00340   0.01401  -0.01327  -0.00003
           D4          -0.00263   0.00000   0.00050  -0.00065  -0.00250
           D5           0.00249   0.00025  -0.00007  -0.00021   0.00385
           D6           0.00508  -0.00003   0.00053  -0.00040   0.00340
                          A5        A6        A7        D1        D2
           A5           0.09047
           A6          -0.03220   0.06754
           A7           0.00980  -0.00639   0.27440
           D1           0.00050  -0.00065  -0.00091   0.00609
           D2          -0.00007  -0.00021  -0.00349  -0.00119   0.00663
           D3           0.00053  -0.00040   0.00228  -0.00139   0.00210
           D4           0.01022  -0.01007  -0.00091   0.00171   0.00123
           D5          -0.01060   0.00951  -0.00349   0.00123   0.00110
           D6           0.01401  -0.01327   0.00228  -0.00014  -0.00009
                          D3        D4        D5        D6
           D3           0.01283
           D4          -0.00014   0.00609
           D5          -0.00009  -0.00119   0.00663
           D6           0.00035  -0.00139   0.00210   0.01283
 ITU=  0
     Eigenvalues ---    0.00243   0.00764   0.01299   0.01358   0.09929
     Eigenvalues ---    0.10590   0.16452   0.16869   0.24250   0.35615
     Eigenvalues ---    0.36088   0.37340   0.37483   0.40952   0.48968
 Angle between quadratic step and forces=  90.00 degrees.
 Linear search not attempted -- option 19 set.
 Iteration  1 RMS(Cart)=  0.00000069 RMS(Int)=  0.00000000
 Variable       Old X    -DE/DX   Delta X   Delta X   Delta X     New X
                                 (Linear)    (Quad)   (Total)
    R1        2.58183   0.00000   0.00000   0.00000   0.00000   2.58183
    R2        2.04539   0.00000   0.00000   0.00000   0.00000   2.04539
    R3        2.03564   0.00000   0.00000   0.00000   0.00000   2.03564
    R4        2.58183   0.00000   0.00000   0.00000   0.00000   2.58183
    R5        2.04539   0.00000   0.00000   0.00000   0.00000   2.04539
    R6        2.03564   0.00000   0.00000   0.00000   0.00000   2.03564
    A1        2.04355   0.00000   0.00000   0.00000   0.00000   2.04355
    A2        1.98248   0.00000   0.00000   0.00000   0.00000   1.98248
    A3        2.12858   0.00000   0.00000   0.00000   0.00000   2.12858
    A4        2.04355   0.00000   0.00000   0.00000   0.00000   2.04355
    A5        1.98248   0.00000   0.00000   0.00000   0.00000   1.98248
    A6        2.12858   0.00000   0.00000   0.00000   0.00000   2.12858
    A7        1.99602   0.00000   0.00000   0.00000   0.00000   1.99602
    D1        0.51994   0.00000   0.00000   0.00000   0.00000   0.51994
    D2       -3.13312   0.00000   0.00000   0.00000   0.00000  -3.13311
    D3        2.58454   0.00000   0.00000   0.00000   0.00000   2.58454
    D4        0.51994   0.00000   0.00000   0.00000   0.00000   0.51994
    D5       -3.13311   0.00000   0.00000   0.00000   0.00000  -3.13311
    D6        2.58454   0.00000   0.00000   0.00000   0.00000   2.58454
         Item               Value     Threshold  Converged?
 Maximum Force            0.000000     0.000002     YES
 RMS     Force            0.000000     0.000001     YES
 Maximum Displacement     0.000002     0.000006     YES
 RMS     Displacement     0.000001     0.000004     YES
 Predicted change in Energy=-4.108798D-14
 Optimization completed.
    -- Stationary point found.
                           ----------------------------
                           !   Optimized Parameters   !
                           ! (Angstroms and Degrees)  !
 --------------------------                            --------------------------
 ! Name  Definition              Value          Derivative Info.                !
 --------------------------------------------------------------------------------
 ! R1    R(1,3)                  1.3662         -DE/DX =    0.0                 !
 ! R2    R(1,4)                  1.0824         -DE/DX =    0.0                 !
 ! R3    R(1,5)                  1.0772         -DE/DX =    0.0                 !
 ! R4    R(2,3)                  1.3662         -DE/DX =    0.0                 !
 ! R5    R(2,6)                  1.0824         -DE/DX =    0.0                 !
 ! R6    R(2,7)                  1.0772         -DE/DX =    0.0                 !
 ! A1    A(3,1,4)              117.0868         -DE/DX =    0.0                 !
 ! A2    A(3,1,5)              113.5879         -DE/DX =    0.0                 !
 ! A3    A(4,1,5)              121.9588         -DE/DX =    0.0                 !
 ! A4    A(3,2,6)              117.0868         -DE/DX =    0.0                 !
 ! A5    A(3,2,7)              113.5879         -DE/DX =    0.0                 !
 ! A6    A(6,2,7)              121.9588         -DE/DX =    0.0                 !
 ! A7    A(1,3,2)              114.3637         -DE/DX =    0.0                 !
 ! D1    D(4,1,3,2)             29.7901         -DE/DX =    0.0                 !
 ! D2    D(5,1,3,2)           -179.5143         -DE/DX =    0.0                 !
 ! D3    D(3,1,4,5)            148.0831         -DE/DX =    0.0                 !
 ! D4    D(6,2,3,1)             29.7902         -DE/DX =    0.0                 !
 ! D5    D(7,2,3,1)           -179.5142         -DE/DX =    0.0                 !
 ! D6    D(3,2,6,7)            148.0831         -DE/DX =    0.0                 !
 --------------------------------------------------------------------------------
 GradGradGradGradGradGradGradGradGradGradGradGradGradGradGradGradGradGrad


 Test job not archived.
 1\1\GINC-COMPUTE-3-045\Freq\UM062X\6-311+G(2df,2p)\C2H4O1(3)\ROOT\01-A
 ug-2017\0\\#N Geom=AllCheck Guess=TCheck SCRF=Check Test GenChk UM062X
 /6-311+G(2df,2p) Freq\\InChI=1S/C2H4O/c1-3-2/h1-2H2/u1,2\\0,3\C,-1.143
 6475135,-0.0903190513,-0.3424268628\C,1.1436431956,0.0912690621,-0.435
 3365869\O,-0.0014655664,0.3522781256,0.2626756594\H,-1.0602970388,-0.9
 676318052,-0.9708401663\H,-2.0392982316,0.1292246631,0.2143461244\H,1.
 0641268377,0.0469300516,-1.5138723876\H,2.0369383171,0.4380489541,0.05
 67542198\\Version=EM64L-G09RevB.01\State=3-A\HF=-153.6744332\S2=2.0094
 67\S2-1=0.\S2A=2.000052\RMSD=8.580e-10\RMSF=5.720e-06\ZeroPoint=0.0519
 407\Thermal=0.0564544\Dipole=0.0005695,-0.1368449,-0.2534436\DipoleDer
 iv=0.8598539,0.1055151,0.1519374,0.2581133,0.0552452,0.2971192,0.35935
 3,0.2885077,0.0763875,0.8623066,-0.0676214,-0.1699459,-0.1573098,-0.19
 89967,0.1211191,-0.4113291,0.1295893,0.3281769,-1.6945804,-0.0382751,0
 .0183371,0.0118074,-0.2240453,-0.2339913,-0.0087047,-0.2341038,-0.5310
 757,0.0055059,0.0570719,0.0479821,-0.0341895,-0.002242,-0.1004313,-0.0
 46762,-0.0782108,0.0857123,-0.0194691,-0.0199621,0.0198616,-0.0170867,
 0.1054837,-0.052544,0.0859824,-0.0586711,0.0583731,0.0055529,-0.009045
 2,-0.073849,0.0200347,0.141202,0.0158142,0.0544695,-0.0062667,-0.05777
 89,-0.0191699,-0.027683,0.0056768,-0.0813693,0.123353,-0.0470858,-0.03
 30091,-0.0408445,0.0402048\Polar=36.8941064,0.8570106,27.7101322,-0.44
 10535,-0.2518511,27.3751213\PG=C01 [X(C2H4O1)]\NImag=0\\0.62386161,-0.
 00936446,0.34026378,-0.07125926,0.28833938,0.36926156,-0.06409715,0.00
 318605,0.01326333,0.62333042,-0.00948891,0.00057028,0.00729589,0.05498
 860,0.09624823,-0.01021830,0.00895467,0.01124807,0.04671243,0.12839481
 ,0.61380804,-0.25182443,-0.08012663,-0.10629665,-0.25274907,0.04470148
 ,0.12510136,0.57573526,-0.05530859,-0.06864214,-0.07778252,0.04199416,
 -0.03297448,-0.06222093,0.04675163,0.09897810,-0.08674304,-0.08589537,
 -0.12523798,0.09360928,-0.05415774,-0.15998103,-0.02476470,0.14250306,
 0.28570772,-0.06000133,0.03178366,0.02794722,0.00530086,-0.00207441,-0
 .00395477,-0.00830018,-0.02846507,-0.02035538,0.05917405,0.02549837,-0
 .22627749,-0.16484328,0.00153101,0.00142261,-0.00041833,-0.00591842,-0
 .00712000,-0.00637813,-0.01852657,0.23124541,0.01614643,-0.14469741,-0
 .12558864,0.00143726,0.00100412,-0.00062213,-0.00370799,-0.01342456,-0
 .00582753,-0.01369130,0.16741745,0.13371452,-0.25162510,0.05055811,0.1
 2875667,-0.00158126,-0.00209311,-0.00349984,-0.02718614,0.00328754,0.0
 1359297,0.00436720,-0.00190741,-0.00026463,0.27712436,0.04856704,-0.04
 710622,-0.05284921,-0.00128572,0.00018525,-0.00265505,-0.01399656,0.00
 388128,0.00759338,0.01733262,0.00097578,-0.01049947,-0.04997491,0.0422
 9112,0.15228672,-0.06336327,-0.12918547,-0.00138548,-0.00090099,-0.000
 32468,-0.01970685,0.00370292,0.01004660,0.00942081,0.00276157,-0.00213
 924,-0.13956964,0.05753522,0.12069889,0.00529101,0.00218456,0.00391868
 ,-0.05974378,-0.00592991,-0.04092742,-0.00844854,0.00138351,0.03500455
 ,-0.00043389,-0.00049081,0.00004031,-0.00010557,-0.00007089,-0.0003502
 4,0.05901291,-0.00035108,-0.00027213,-0.00010386,0.00041915,-0.0139255
 6,-0.00545195,-0.00014348,0.00286841,-0.00680798,-0.00030421,-0.000421
 60,0.00035956,-0.00013436,-0.00009233,-0.00033613,0.00130170,0.0094946
 1,-0.00205096,-0.00152871,0.00108246,-0.02916111,-0.02559797,-0.338198
 03,0.00700780,0.00019126,-0.01566756,0.00038371,0.00088531,0.00039724,
 0.00013148,0.00040011,0.00033224,0.02192835,0.02197986,0.35562637,-0.0
 0160460,0.00177872,0.00367001,-0.25046001,-0.08010374,-0.11321345,-0.0
 2722689,-0.00964320,-0.01034369,-0.00010671,-0.00018616,0.00003992,-0.
 00099349,-0.00057157,-0.00069532,0.00442788,-0.00078773,0.00176073,0.2
 7596382,0.00044763,0.00146392,-0.00005640,-0.10083326,-0.05152634,-0.0
 6660322,0.00873198,0.00300884,0.00314278,0.00025398,0.00017528,-0.0001
 5969,0.00026414,-0.00013489,0.00060068,0.00162184,0.00234859,0.0036701
 5,0.08951369,0.04466460,0.00183841,-0.00180929,-0.00158001,-0.12447572
 ,-0.05603812,-0.12593024,0.02236702,0.00703077,0.01095978,0.00024972,0
 .00057541,0.00006578,0.00085299,0.00047502,0.00057165,-0.01961424,-0.0
 0963950,-0.00357272,0.11878181,0.05940570,0.11948576\\-0.00000071,0.00
 000710,-0.00000384,0.00000070,-0.00000710,0.00000384,0.,0.,0.,-0.00000
 404,0.00000655,-0.00000354,-0.00000121,0.00001259,-0.00000680,0.000004
 04,-0.00000655,0.00000354,0.00000122,-0.00001259,0.00000680\\\@


 TRUST EVERYONE, BUT CUT THE CARDS.
 Job cpu time:  0 days  0 hours 23 minutes 56.4 seconds.
 File lengths (MBytes):  RWF=   1440 Int=      0 D2E=      0 Chk=     32 Scr=     32
 Normal termination of Gaussian 09 at Tue Aug  1 14:10:39 2017.
