 Entering Gaussian System, Link 0=/shared/apps/gaussian/G09_LINUX_LINDA/g09/g09
 Input=/gss_gpfs_scratch/westgroup/QMscratch/AMIMRNSIRUDHCM-UHFFFAOYSA.gjf
 Output=/gss_gpfs_scratch/westgroup/QMscratch/AMIMRNSIRUDHCM-UHFFFAOYSA.log
 Initial command:
 /shared/apps/gaussian/G09_LINUX_LINDA/g09/l1.exe /gss_gpfs_scratch/westgroup/rwest-autotst-1/Gau-42364.inp -scrdir=/gss_gpfs_scratch/westgroup/rwest-autotst-1/
 Entering Link 1 = /shared/apps/gaussian/G09_LINUX_LINDA/g09/l1.exe PID=     42365.
  
 Copyright (c) 1988,1990,1992,1993,1995,1998,2003,2009,2010,
            Gaussian, Inc.  All Rights Reserved.
  
 This is part of the Gaussian(R) 09 program.  It is based on
 the Gaussian(R) 03 system (copyright 2003, Gaussian, Inc.),
 the Gaussian(R) 98 system (copyright 1998, Gaussian, Inc.),
 the Gaussian(R) 94 system (copyright 1995, Gaussian, Inc.),
 the Gaussian 92(TM) system (copyright 1992, Gaussian, Inc.),
 the Gaussian 90(TM) system (copyright 1990, Gaussian, Inc.),
 the Gaussian 88(TM) system (copyright 1988, Gaussian, Inc.),
 the Gaussian 86(TM) system (copyright 1986, Carnegie Mellon
 University), and the Gaussian 82(TM) system (copyright 1983,
 Carnegie Mellon University). Gaussian is a federally registered
 trademark of Gaussian, Inc.
  
 This software contains proprietary and confidential information,
 including trade secrets, belonging to Gaussian, Inc.
  
 This software is provided under written license and may be
 used, copied, transmitted, or stored only in accord with that
 written license.
  
 The following legend is applicable only to US Government
 contracts under FAR:
  
                    RESTRICTED RIGHTS LEGEND
  
 Use, reproduction and disclosure by the US Government is
 subject to restrictions as set forth in subparagraphs (a)
 and (c) of the Commercial Computer Software - Restricted
 Rights clause in FAR 52.227-19.
  
 Gaussian, Inc.
 340 Quinnipiac St., Bldg. 40, Wallingford CT 06492
  
  
 ---------------------------------------------------------------
 Warning -- This program may not be used in any manner that
 competes with the business of Gaussian, Inc. or will provide
 assistance to any competitor of Gaussian, Inc.  The licensee
 of this program is prohibited from giving any competitor of
 Gaussian, Inc. access to this program.  By using this program,
 the user acknowledges that Gaussian, Inc. is engaged in the
 business of creating and licensing software in the field of
 computational chemistry and represents and warrants to the
 licensee that it is not a competitor of Gaussian, Inc. and that
 it will not use this program in any manner prohibited above.
 ---------------------------------------------------------------
  

 Cite this work as:
 Gaussian 09, Revision B.01,
 M. J. Frisch, G. W. Trucks, H. B. Schlegel, G. E. Scuseria, 
 M. A. Robb, J. R. Cheeseman, G. Scalmani, V. Barone, B. Mennucci, 
 G. A. Petersson, H. Nakatsuji, M. Caricato, X. Li, H. P. Hratchian, 
 A. F. Izmaylov, J. Bloino, G. Zheng, J. L. Sonnenberg, M. Hada, 
 M. Ehara, K. Toyota, R. Fukuda, J. Hasegawa, M. Ishida, T. Nakajima, 
 Y. Honda, O. Kitao, H. Nakai, T. Vreven, J. A. Montgomery, Jr., 
 J. E. Peralta, F. Ogliaro, M. Bearpark, J. J. Heyd, E. Brothers, 
 K. N. Kudin, V. N. Staroverov, T. Keith, R. Kobayashi, J. Normand, 
 K. Raghavachari, A. Rendell, J. C. Burant, S. S. Iyengar, J. Tomasi, 
 M. Cossi, N. Rega, J. M. Millam, M. Klene, J. E. Knox, J. B. Cross, 
 V. Bakken, C. Adamo, J. Jaramillo, R. Gomperts, R. E. Stratmann, 
 O. Yazyev, A. J. Austin, R. Cammi, C. Pomelli, J. W. Ochterski, 
 R. L. Martin, K. Morokuma, V. G. Zakrzewski, G. A. Voth, 
 P. Salvador, J. J. Dannenberg, S. Dapprich, A. D. Daniels, 
 O. Farkas, J. B. Foresman, J. V. Ortiz, J. Cioslowski, 
 and D. J. Fox, Gaussian, Inc., Wallingford CT, 2010.
 
 ******************************************
 Gaussian 09:  EM64L-G09RevB.01 12-Aug-2010
                17-Feb-2017 
 ******************************************
 %nprocshared=20
 Will use up to   20 processors via shared memory.
 %mem=5GB
 --------------------------------------------------------------
 # m062x/6-311+g(2df,2p) opt=(verytight,gdiis) freq IOP(2/16=3)
 --------------------------------------------------------------

 Warning!  Use of Opt=GDIIS is deprecated since it is seldom a good choice.

 1/7=1,14=-1,18=20,19=11,26=3,38=1/1,3;
 2/9=110,12=2,16=3,17=6,18=5,40=1/2;
 3/5=4,6=6,7=214,11=2,16=1,25=1,30=1,71=1,74=-55/1,2,3;
 4//1;
 5/5=2,38=5/2;
 6/7=2,8=2,9=2,10=2,28=1/1;
 7//1,2,3,16;
 1/7=1,14=-1,18=20,19=11/3(2);
 2/9=110,16=3/2;
 99//99;
 2/9=110,16=3/2;
 3/5=4,6=6,7=214,11=2,16=1,25=1,30=1,71=1,74=-55/1,2,3;
 4/5=5,16=3/1;
 5/5=2,38=5/2;
 7//1,2,3,16;
 1/7=1,14=-1,18=20,19=11/3(-5);
 2/9=110,16=3/2;
 6/7=2,8=2,9=2,10=2,19=2,28=1/1;
 99/9=1/99;
 -------------------------------------
 InChI=1S/C4H8O/c1-4(2)3-5/h3-4H,1-2H3
 -------------------------------------
 Symbolic Z-matrix:
 Charge =  0 Multiplicity = 1
 C                     0.081     0.2032   -0.3547 
 C                     1.2223   -0.6588    0.1902 
 C                    -1.2442   -0.5617   -0.3171 
 C                    -0.034     1.4699    0.4471 
 H                     0.3089    0.4556   -1.4146 
 H                     1.0296   -0.9463    1.2466 
 H                     1.3282   -1.5819   -0.4189 
 H                     2.1806   -0.0986    0.1398 
 H                    -1.171    -1.4835   -0.9329 
 H                    -1.5058   -0.8464    0.7251 
 H                    -2.0599    0.0684   -0.7324 
 O                     0.1187    2.5567   -0.0875 
 H                    -0.2543    1.4235    1.5093 
 

 GradGradGradGradGradGradGradGradGradGradGradGradGradGradGradGradGradGrad
 Berny optimization.
 Initialization pass.
                           ----------------------------
                           !    Initial Parameters    !
                           ! (Angstroms and Degrees)  !
 --------------------------                            --------------------------
 ! Name  Definition              Value          Derivative Info.                !
 --------------------------------------------------------------------------------
 ! R1    R(1,2)                  1.5305         estimate D2E/DX2                !
 ! R2    R(1,3)                  1.5306         estimate D2E/DX2                !
 ! R3    R(1,4)                  1.5035         estimate D2E/DX2                !
 ! R4    R(1,5)                  1.1131         estimate D2E/DX2                !
 ! R5    R(2,6)                  1.1117         estimate D2E/DX2                !
 ! R6    R(2,7)                  1.111          estimate D2E/DX2                !
 ! R7    R(2,8)                  1.1112         estimate D2E/DX2                !
 ! R8    R(3,9)                  1.111          estimate D2E/DX2                !
 ! R9    R(3,10)                 1.1116         estimate D2E/DX2                !
 ! R10   R(3,11)                 1.1112         estimate D2E/DX2                !
 ! R11   R(4,12)                 1.2208         estimate D2E/DX2                !
 ! R12   R(4,13)                 1.0858         estimate D2E/DX2                !
 ! A1    A(2,1,3)              110.8197         estimate D2E/DX2                !
 ! A2    A(2,1,4)              109.9783         estimate D2E/DX2                !
 ! A3    A(2,1,5)              108.3024         estimate D2E/DX2                !
 ! A4    A(3,1,4)              109.9807         estimate D2E/DX2                !
 ! A5    A(3,1,5)              108.2991         estimate D2E/DX2                !
 ! A6    A(4,1,5)              109.4149         estimate D2E/DX2                !
 ! A7    A(1,2,6)              110.7763         estimate D2E/DX2                !
 ! A8    A(1,2,7)              110.1111         estimate D2E/DX2                !
 ! A9    A(1,2,8)              110.0604         estimate D2E/DX2                !
 ! A10   A(6,2,7)              108.8223         estimate D2E/DX2                !
 ! A11   A(6,2,8)              108.8436         estimate D2E/DX2                !
 ! A12   A(7,2,8)              108.1685         estimate D2E/DX2                !
 ! A13   A(1,3,9)              110.1199         estimate D2E/DX2                !
 ! A14   A(1,3,10)             110.7802         estimate D2E/DX2                !
 ! A15   A(1,3,11)             110.0597         estimate D2E/DX2                !
 ! A16   A(9,3,10)             108.8249         estimate D2E/DX2                !
 ! A17   A(9,3,11)             108.1606         estimate D2E/DX2                !
 ! A18   A(10,3,11)            108.8364         estimate D2E/DX2                !
 ! A19   A(1,4,12)             120.4595         estimate D2E/DX2                !
 ! A20   A(1,4,13)             120.0795         estimate D2E/DX2                !
 ! A21   A(12,4,13)            119.461          estimate D2E/DX2                !
 ! D1    D(3,1,2,6)            -60.6192         estimate D2E/DX2                !
 ! D2    D(3,1,2,7)             59.8051         estimate D2E/DX2                !
 ! D3    D(3,1,2,8)            178.9629         estimate D2E/DX2                !
 ! D4    D(4,1,2,6)             61.1987         estimate D2E/DX2                !
 ! D5    D(4,1,2,7)           -178.377          estimate D2E/DX2                !
 ! D6    D(4,1,2,8)            -59.2191         estimate D2E/DX2                !
 ! D7    D(5,1,2,6)           -179.2776         estimate D2E/DX2                !
 ! D8    D(5,1,2,7)            -58.8533         estimate D2E/DX2                !
 ! D9    D(5,1,2,8)             60.3045         estimate D2E/DX2                !
 ! D10   D(2,1,3,9)            -59.8095         estimate D2E/DX2                !
 ! D11   D(2,1,3,10)            60.6264         estimate D2E/DX2                !
 ! D12   D(2,1,3,11)          -178.9627         estimate D2E/DX2                !
 ! D13   D(4,1,3,9)            178.374          estimate D2E/DX2                !
 ! D14   D(4,1,3,10)           -61.1901         estimate D2E/DX2                !
 ! D15   D(4,1,3,11)            59.2208         estimate D2E/DX2                !
 ! D16   D(5,1,3,9)             58.8509         estimate D2E/DX2                !
 ! D17   D(5,1,3,10)           179.2868         estimate D2E/DX2                !
 ! D18   D(5,1,3,11)           -60.3023         estimate D2E/DX2                !
 ! D19   D(2,1,4,12)           118.8452         estimate D2E/DX2                !
 ! D20   D(2,1,4,13)           -61.159          estimate D2E/DX2                !
 ! D21   D(3,1,4,12)          -118.8388         estimate D2E/DX2                !
 ! D22   D(3,1,4,13)            61.1569         estimate D2E/DX2                !
 ! D23   D(5,1,4,12)             0.0019         estimate D2E/DX2                !
 ! D24   D(5,1,4,13)           179.9976         estimate D2E/DX2                !
 --------------------------------------------------------------------------------
 Trust Radius=3.00D-01 FncErr=1.00D-07 GrdErr=1.00D-06
 Number of steps in this run=     67 maximum allowed number of steps=    100.
 GradGradGradGradGradGradGradGradGradGradGradGradGradGradGradGradGradGrad

                          Input orientation:                          
 ---------------------------------------------------------------------
 Center     Atomic      Atomic             Coordinates (Angstroms)
 Number     Number       Type             X           Y           Z
 ---------------------------------------------------------------------
      1          6           0        0.081000    0.203200   -0.354700
      2          6           0        1.222300   -0.658800    0.190200
      3          6           0       -1.244200   -0.561700   -0.317100
      4          6           0       -0.034000    1.469900    0.447100
      5          1           0        0.308900    0.455600   -1.414600
      6          1           0        1.029600   -0.946300    1.246600
      7          1           0        1.328200   -1.581900   -0.418900
      8          1           0        2.180600   -0.098600    0.139800
      9          1           0       -1.171000   -1.483500   -0.932900
     10          1           0       -1.505800   -0.846400    0.725100
     11          1           0       -2.059900    0.068400   -0.732400
     12          8           0        0.118700    2.556700   -0.087500
     13          1           0       -0.254300    1.423500    1.509300
 ---------------------------------------------------------------------
                    Distance matrix (angstroms):
                    1          2          3          4          5
     1  C    0.000000
     2  C    1.530531   0.000000
     3  C    1.530569   2.520001   0.000000
     4  C    1.503542   2.485086   2.485153   0.000000
     5  H    1.113118   2.156750   2.156739   2.147629   0.000000
     6  H    2.187545   1.111652   2.786259   2.758345   3.093011
     7  H    2.178580   1.111005   2.769190   3.452395   2.486322
     8  H    2.178057   1.111172   3.486040   2.731131   2.495307
     9  H    2.178710   2.769362   1.110983   3.452498   2.486413
    10  H    2.187593   2.786367   1.111607   2.758392   3.093001
    11  H    2.178137   3.486093   1.111246   2.731244   2.495302
    12  O    2.368919   3.410937   3.410958   1.220757   2.492387
    13  H    2.253010   2.873386   2.873440   1.085796   3.131009
                    6          7          8          9         10
     6  H    0.000000
     7  H    1.807495   0.000000
     8  H    1.807872   1.799697   0.000000
     9  H    3.143476   2.553405   3.781779   0.000000
    10  H    2.590404   3.143446   3.806747   1.807471   0.000000
    11  H    3.806713   3.781665   4.332489   1.799649   1.807814
    12  O    3.857534   4.324434   3.369527   4.324493   3.857513
    13  H    2.708018   3.905725   3.181361   3.905807   2.708075
                   11         12         13
    11  H    0.000000
    12  O    3.369545   0.000000
    13  H    3.181463   1.993249   0.000000
 Stoichiometry    C4H8O
 Framework group  C1[X(C4H8O)]
 Deg. of freedom    33
 Full point group                 C1      NOp   1
 Largest Abelian subgroup         C1      NOp   1
 Largest concise Abelian subgroup C1      NOp   1
                         Standard orientation:                         
 ---------------------------------------------------------------------
 Center     Atomic      Atomic             Coordinates (Angstroms)
 Number     Number       Type             X           Y           Z
 ---------------------------------------------------------------------
      1          6           0        0.323040    0.000021   -0.318842
      2          6           0        1.114940    1.260031    0.038643
      3          6           0        1.115033   -1.259970    0.038664
      4          6           0       -0.995774    0.000022    0.403215
      5          1           0        0.143424   -0.000026   -1.417373
      6          1           0        1.328955    1.295180    1.128933
      7          1           0        2.077297    1.276664   -0.516266
      8          1           0        0.536868    2.166231   -0.243026
      9          1           0        2.077376   -1.276741   -0.516221
     10          1           0        1.328965   -1.295224    1.128921
     11          1           0        0.536967   -2.166258   -0.243024
     12          8           0       -2.043923   -0.000060   -0.222590
     13          1           0       -1.021898    0.000026    1.488697
 ---------------------------------------------------------------------
 Rotational constants (GHZ):      7.6931776      3.7567515      2.8505865
 Standard basis: 6-311+G(2df,2p) (5D, 7F)
 There are   242 symmetry adapted basis functions of A   symmetry.
 Integral buffers will be    131072 words long.
 Raffenetti 2 integral format.
 Two-electron integral symmetry is turned on.
   242 basis functions,   348 primitive gaussians,   267 cartesian basis functions
    20 alpha electrons       20 beta electrons
       nuclear repulsion energy       175.4632996160 Hartrees.
 NAtoms=   13 NActive=   13 NUniq=   13 SFac= 1.00D+00 NAtFMM=   50 NAOKFM=F Big=F
 One-electron integrals computed using PRISM.
 NBasis=   242 RedAO= T  NBF=   242
 NBsUse=   242 1.00D-06 NBFU=   242
 Harris functional with IExCor= 1009 diagonalized for initial guess.
 ExpMin= 4.38D-02 ExpMax= 8.59D+03 ExpMxC= 1.30D+03 IAcc=2 IRadAn=         0 AccDes= 0.00D+00
 HarFok:  IExCor= 1009 AccDes= 0.00D+00 IRadAn=         0 IDoV= 1
 ScaDFX=  1.000000  1.000000  1.000000  1.000000
 FoFCou: FMM=F IPFlag=           0 FMFlag=      100000 FMFlg1=           0
         NFxFlg=           0 DoJE=T BraDBF=F KetDBF=T FulRan=T
         Omega=  0.000000  0.000000  1.000000  0.000000  0.000000 ICntrl=     500 IOpCl=  0
         NMat0=    1 NMatS0=    1 NMatT0=    0 NMatD0=    1 NMtDS0=    0 NMtDT0=    0
         I1Cent=           4 NGrid=           0.
 Petite list used in FoFCou.
 Initial guess orbital symmetries:
       Occupied  (A) (A) (A) (A) (A) (A) (A) (A) (A) (A) (A) (A)
                 (A) (A) (A) (A) (A) (A) (A) (A)
       Virtual   (A) (A) (A) (A) (A) (A) (A) (A) (A) (A) (A) (A)
                 (A) (A) (A) (A) (A) (A) (A) (A) (A) (A) (A) (A)
                 (A) (A) (A) (A) (A) (A) (A) (A) (A) (A) (A) (A)
                 (A) (A) (A) (A) (A) (A) (A) (A) (A) (A) (A) (A)
                 (A) (A) (A) (A) (A) (A) (A) (A) (A) (A) (A) (A)
                 (A) (A) (A) (A) (A) (A) (A) (A) (A) (A) (A) (A)
                 (A) (A) (A) (A) (A) (A) (A) (A) (A) (A) (A) (A)
                 (A) (A) (A) (A) (A) (A) (A) (A) (A) (A) (A) (A)
                 (A) (A) (A) (A) (A) (A) (A) (A) (A) (A) (A) (A)
                 (A) (A) (A) (A) (A) (A) (A) (A) (A) (A) (A) (A)
                 (A) (A) (A) (A) (A) (A) (A) (A) (A) (A) (A) (A)
                 (A) (A) (A) (A) (A) (A) (A) (A) (A) (A) (A) (A)
                 (A) (A) (A) (A) (A) (A) (A) (A) (A) (A) (A) (A)
                 (A) (A) (A) (A) (A) (A) (A) (A) (A) (A) (A) (A)
                 (A) (A) (A) (A) (A) (A) (A) (A) (A) (A) (A) (A)
                 (A) (A) (A) (A) (A) (A) (A) (A) (A) (A) (A) (A)
                 (A) (A) (A) (A) (A) (A) (A) (A) (A) (A) (A) (A)
                 (A) (A) (A) (A) (A) (A) (A) (A) (A) (A) (A) (A)
                 (A) (A) (A) (A) (A) (A)
 The electronic state of the initial guess is 1-A.
 Requested convergence on RMS density matrix=1.00D-08 within 128 cycles.
 Requested convergence on MAX density matrix=1.00D-06.
 Requested convergence on             energy=1.00D-06.
 No special actions if energy rises.
 Keep R1 ints in memory in canonical form, NReq=650025879.
 PrsmSu:  requested number of processors reduced to:  15 ShMem   1 Linda.
 SCF Done:  E(RM062X) =  -232.421222838     A.U. after   12 cycles
             Convg  =    0.4896D-08             -V/T =  2.0049

 **********************************************************************

            Population analysis using the SCF density.

 **********************************************************************

 Orbital symmetries:
       Occupied  (A) (A) (A) (A) (A) (A) (A) (A) (A) (A) (A) (A)
                 (A) (A) (A) (A) (A) (A) (A) (A)
       Virtual   (A) (A) (A) (A) (A) (A) (A) (A) (A) (A) (A) (A)
                 (A) (A) (A) (A) (A) (A) (A) (A) (A) (A) (A) (A)
                 (A) (A) (A) (A) (A) (A) (A) (A) (A) (A) (A) (A)
                 (A) (A) (A) (A) (A) (A) (A) (A) (A) (A) (A) (A)
                 (A) (A) (A) (A) (A) (A) (A) (A) (A) (A) (A) (A)
                 (A) (A) (A) (A) (A) (A) (A) (A) (A) (A) (A) (A)
                 (A) (A) (A) (A) (A) (A) (A) (A) (A) (A) (A) (A)
                 (A) (A) (A) (A) (A) (A) (A) (A) (A) (A) (A) (A)
                 (A) (A) (A) (A) (A) (A) (A) (A) (A) (A) (A) (A)
                 (A) (A) (A) (A) (A) (A) (A) (A) (A) (A) (A) (A)
                 (A) (A) (A) (A) (A) (A) (A) (A) (A) (A) (A) (A)
                 (A) (A) (A) (A) (A) (A) (A) (A) (A) (A) (A) (A)
                 (A) (A) (A) (A) (A) (A) (A) (A) (A) (A) (A) (A)
                 (A) (A) (A) (A) (A) (A) (A) (A) (A) (A) (A) (A)
                 (A) (A) (A) (A) (A) (A) (A) (A) (A) (A) (A) (A)
                 (A) (A) (A) (A) (A) (A) (A) (A) (A) (A) (A) (A)
                 (A) (A) (A) (A) (A) (A) (A) (A) (A) (A) (A) (A)
                 (A) (A) (A) (A) (A) (A) (A) (A) (A) (A) (A) (A)
                 (A) (A) (A) (A) (A) (A)
 The electronic state is 1-A.
 Alpha  occ. eigenvalues --  -19.62605 -10.62860 -10.55737 -10.54747 -10.54745
 Alpha  occ. eigenvalues --   -1.16726  -0.91634  -0.78828  -0.73394  -0.65971
 Alpha  occ. eigenvalues --   -0.54986  -0.54709  -0.50925  -0.50481  -0.46556
 Alpha  occ. eigenvalues --   -0.45029  -0.44208  -0.40943  -0.40610  -0.32942
 Alpha virt. eigenvalues --    0.00386   0.01245   0.02705   0.03611   0.03949
 Alpha virt. eigenvalues --    0.05748   0.06919   0.06944   0.07112   0.07391
 Alpha virt. eigenvalues --    0.09808   0.11097   0.11654   0.12454   0.13570
 Alpha virt. eigenvalues --    0.13735   0.15567   0.18253   0.20927   0.21905
 Alpha virt. eigenvalues --    0.22047   0.22715   0.23857   0.25105   0.25344
 Alpha virt. eigenvalues --    0.26163   0.28643   0.28765   0.31944   0.33225
 Alpha virt. eigenvalues --    0.35510   0.37061   0.40627   0.41664   0.42359
 Alpha virt. eigenvalues --    0.46721   0.48334   0.48489   0.49412   0.51461
 Alpha virt. eigenvalues --    0.52600   0.54205   0.55578   0.56072   0.57658
 Alpha virt. eigenvalues --    0.57687   0.60172   0.61265   0.63132   0.65899
 Alpha virt. eigenvalues --    0.66282   0.68066   0.69154   0.69803   0.71077
 Alpha virt. eigenvalues --    0.72951   0.76426   0.80101   0.81160   0.85717
 Alpha virt. eigenvalues --    0.87780   0.91224   0.91262   0.95718   0.98982
 Alpha virt. eigenvalues --    1.00365   1.03836   1.06155   1.06843   1.09334
 Alpha virt. eigenvalues --    1.10406   1.13877   1.14219   1.16499   1.16780
 Alpha virt. eigenvalues --    1.19534   1.20680   1.22069   1.22645   1.24593
 Alpha virt. eigenvalues --    1.27841   1.30156   1.30859   1.32741   1.33942
 Alpha virt. eigenvalues --    1.34982   1.35886   1.38428   1.38611   1.41748
 Alpha virt. eigenvalues --    1.44238   1.45208   1.46461   1.50893   1.53222
 Alpha virt. eigenvalues --    1.54164   1.57868   1.58071   1.59675   1.60011
 Alpha virt. eigenvalues --    1.60478   1.62703   1.65981   1.73828   1.76615
 Alpha virt. eigenvalues --    1.80554   1.95927   2.10186   2.28754   2.39033
 Alpha virt. eigenvalues --    2.47615   2.50253   2.50332   2.54872   2.57730
 Alpha virt. eigenvalues --    2.64425   2.65164   2.66079   2.71290   2.76100
 Alpha virt. eigenvalues --    2.81772   2.82277   2.87910   2.90970   2.94341
 Alpha virt. eigenvalues --    2.94740   2.95765   2.97526   2.99919   2.99952
 Alpha virt. eigenvalues --    3.02245   3.05703   3.08909   3.13455   3.14832
 Alpha virt. eigenvalues --    3.17431   3.24460   3.27457   3.27643   3.30104
 Alpha virt. eigenvalues --    3.30164   3.32094   3.35782   3.37333   3.37932
 Alpha virt. eigenvalues --    3.38727   3.44720   3.47504   3.51015   3.52459
 Alpha virt. eigenvalues --    3.56649   3.57424   3.61612   3.62005   3.62016
 Alpha virt. eigenvalues --    3.70460   3.75819   3.76565   3.79855   3.79971
 Alpha virt. eigenvalues --    3.83066   3.85896   3.90169   3.91923   3.92941
 Alpha virt. eigenvalues --    3.96071   3.97087   3.97755   4.02488   4.02784
 Alpha virt. eigenvalues --    4.07572   4.16336   4.16997   4.18536   4.19214
 Alpha virt. eigenvalues --    4.20705   4.20814   4.22840   4.24869   4.34329
 Alpha virt. eigenvalues --    4.37653   4.42676   4.43215   4.44768   4.47695
 Alpha virt. eigenvalues --    4.51795   4.53534   4.55531   4.61886   4.63265
 Alpha virt. eigenvalues --    4.66696   4.74584   4.79862   4.89581   5.09587
 Alpha virt. eigenvalues --    5.11505   5.17899   5.21039   5.33186   5.35147
 Alpha virt. eigenvalues --    5.40209   5.46965   5.47406   5.50338   5.52274
 Alpha virt. eigenvalues --    5.55790   5.57143   5.59899   5.79203   6.24672
 Alpha virt. eigenvalues --    6.56051   6.85373   6.90905   7.02647   7.24077
 Alpha virt. eigenvalues --    7.39670   7.61584  24.20800  24.29581  24.41002
 Alpha virt. eigenvalues --   24.66578  50.24156
          Condensed to atoms (all electrons):
              1          2          3          4          5          6
     1  C    5.432759   0.109142   0.109114   0.061565   0.490257   0.027874
     2  C    0.109142   5.373410  -0.174326  -0.008156  -0.037510   0.403160
     3  C    0.109114  -0.174326   5.373457  -0.008123  -0.037510  -0.020508
     4  C    0.061565  -0.008156  -0.008123   5.238179  -0.052176  -0.034002
     5  H    0.490257  -0.037510  -0.037510  -0.052176   0.472938   0.005047
     6  H    0.027874   0.403160  -0.020508  -0.034002   0.005047   0.527653
     7  H   -0.054056   0.400431  -0.001842   0.029971  -0.005953  -0.028302
     8  H   -0.049744   0.408110   0.024183  -0.001377  -0.005153  -0.029065
     9  H   -0.054034  -0.001839   0.400426   0.029964  -0.005950  -0.000376
    10  H    0.027874  -0.020505   0.403157  -0.033995   0.005046   0.002021
    11  H   -0.049742   0.024181   0.408107  -0.001381  -0.005155  -0.000207
    12  O    0.044460  -0.040674  -0.040678   0.331306  -0.010300   0.000096
    13  H    0.027125  -0.001944  -0.001943   0.350196   0.001819  -0.000153
              7          8          9         10         11         12
     1  C   -0.054056  -0.049744  -0.054034   0.027874  -0.049742   0.044460
     2  C    0.400431   0.408110  -0.001839  -0.020505   0.024181  -0.040674
     3  C   -0.001842   0.024183   0.400426   0.403157   0.408107  -0.040678
     4  C    0.029971  -0.001377   0.029964  -0.033995  -0.001381   0.331306
     5  H   -0.005953  -0.005153  -0.005950   0.005046  -0.005155  -0.010300
     6  H   -0.028302  -0.029065  -0.000376   0.002021  -0.000207   0.000096
     7  H    0.537226  -0.018304   0.002514  -0.000376   0.000204  -0.000699
     8  H   -0.018304   0.522829   0.000204  -0.000207  -0.000354   0.000755
     9  H    0.002514   0.000204   0.537199  -0.028296  -0.018310  -0.000699
    10  H   -0.000376  -0.000207  -0.028296   0.527631  -0.029070   0.000097
    11  H    0.000204  -0.000354  -0.018310  -0.029070   0.522859   0.000755
    12  O   -0.000699   0.000755  -0.000699   0.000097   0.000755   8.080551
    13  H   -0.000508  -0.000059  -0.000508  -0.000152  -0.000059  -0.043172
             13
     1  C    0.027125
     2  C   -0.001944
     3  C   -0.001943
     4  C    0.350196
     5  H    0.001819
     6  H   -0.000153
     7  H   -0.000508
     8  H   -0.000059
     9  H   -0.000508
    10  H   -0.000152
    11  H   -0.000059
    12  O   -0.043172
    13  H    0.509895
 Mulliken atomic charges:
              1
     1  C   -0.122593
     2  C   -0.433480
     3  C   -0.433514
     4  C    0.098030
     5  H    0.184601
     6  H    0.146760
     7  H    0.139694
     8  H    0.148183
     9  H    0.139705
    10  H    0.146775
    11  H    0.148171
    12  O   -0.321797
    13  H    0.159464
 Sum of Mulliken atomic charges =   0.00000
 Mulliken charges with hydrogens summed into heavy atoms:
              1
     1  C    0.062009
     2  C    0.001157
     3  C    0.001137
     4  C    0.257494
    12  O   -0.321797
 Sum of Mulliken charges with hydrogens summed into heavy atoms =   0.00000
 Electronic spatial extent (au):  <R**2>=            479.6435
 Charge=              0.0000 electrons
 Dipole moment (field-independent basis, Debye):
    X=              2.8663    Y=              0.0001    Z=              0.9351  Tot=              3.0150
 Quadrupole moment (field-independent basis, Debye-Ang):
   XX=            -38.9944   YY=            -31.5525   ZZ=            -30.8880
   XY=             -0.0007   XZ=             -2.2888   YZ=             -0.0001
 Traceless Quadrupole moment (field-independent basis, Debye-Ang):
   XX=             -5.1828   YY=              2.2591   ZZ=              2.9237
   XY=             -0.0007   XZ=             -2.2888   YZ=             -0.0001
 Octapole moment (field-independent basis, Debye-Ang**2):
  XXX=             11.9700  YYY=             -0.0005  ZZZ=              0.9730  XYY=             -3.6248
  XXY=             -0.0003  XXZ=              1.2473  XZZ=             -1.9481  YZZ=             -0.0002
  YYZ=             -1.2813  XYZ=              0.0002
 Hexadecapole moment (field-independent basis, Debye-Ang**3):
 XXXX=           -388.7579 YYYY=           -206.9810 ZZZZ=            -72.6126 XXXY=             -0.0030
 XXXZ=             -7.8500 YYYX=             -0.0020 YYYZ=             -0.0006 ZZZX=             -0.3714
 ZZZY=             -0.0004 XXYY=            -94.6292 XXZZ=            -70.0311 YYZZ=            -48.5587
 XXYZ=              0.0002 YYXZ=              0.0509 ZZXY=             -0.0002
 N-N= 1.754632996160D+02 E-N=-8.923457178342D+02  KE= 2.312989629083D+02
 Calling FoFJK, ICntrl=      2127 FMM=F ISym2X=0 I1Cent= 0 IOpClX= 0 NMat=1 NMatS=1 NMatT=0.
 ***** Axes restored to original set *****
 -------------------------------------------------------------------
 Center     Atomic                   Forces (Hartrees/Bohr)
 Number     Number              X              Y              Z
 -------------------------------------------------------------------
      1        6           0.001153695   -0.011730978   -0.007923775
      2        6           0.010076655   -0.003163177    0.003403500
      3        6          -0.010849391   -0.002280119   -0.000922101
      4        6           0.009848969    0.032300876   -0.041784590
      5        1          -0.003049214    0.003424411    0.015495808
      6        1           0.003221573    0.002181981   -0.011908897
      7        1          -0.001563192    0.010492406    0.008613686
      8        1          -0.010397143   -0.008322907    0.002031427
      9        1          -0.001151041    0.010466739    0.008691398
     10        1           0.001911677    0.002222224   -0.012153392
     11        1           0.008128533   -0.009066283    0.005848493
     12        8          -0.004729757   -0.020841407    0.019031350
     13        1          -0.002601363   -0.005683766    0.011577092
 -------------------------------------------------------------------
 Cartesian Forces:  Max     0.041784590 RMS     0.012023987

 GradGradGradGradGradGradGradGradGradGradGradGradGradGradGradGradGradGrad
 Berny optimization.
 Internal  Forces:  Max     0.027484255 RMS     0.006841987
 Search for a local minimum.
 Step number   1 out of a maximum of   67
 All quantities printed in internal units (Hartrees-Bohrs-Radians)
 Swaping is turned off.
 Second derivative matrix not updated -- first step.
 ITU=  0
     Eigenvalues ---    0.00362   0.00362   0.00719   0.00719   0.04158
     Eigenvalues ---    0.04792   0.05589   0.05591   0.05700   0.05701
     Eigenvalues ---    0.05735   0.16000   0.16000   0.16000   0.16000
     Eigenvalues ---    0.16000   0.16000   0.16000   0.16540   0.17777
     Eigenvalues ---    0.22000   0.29371   0.29374   0.32009   0.32272
     Eigenvalues ---    0.32426   0.32430   0.32469   0.32476   0.32494
     Eigenvalues ---    0.32496   0.35303   0.95048
 Angle between quadratic step and forces=  44.55 degrees.
 Linear search not attempted -- option 19 set.
 Iteration  1 RMS(Cart)=  0.03004684 RMS(Int)=  0.00097740
 Iteration  2 RMS(Cart)=  0.00099715 RMS(Int)=  0.00018367
 Iteration  3 RMS(Cart)=  0.00000059 RMS(Int)=  0.00018367
 Variable       Old X    -DE/DX   Delta X   Delta X   Delta X     New X
                                 (Linear)    (Quad)   (Total)
    R1        2.89228   0.00109   0.00000   0.00370   0.00370   2.89599
    R2        2.89236   0.00106   0.00000   0.00361   0.00361   2.89596
    R3        2.84128  -0.00128   0.00000  -0.00400  -0.00400   2.83728
    R4        2.10349  -0.01460   0.00000  -0.04525  -0.04525   2.05824
    R5        2.10072  -0.01244   0.00000  -0.03837  -0.03837   2.06235
    R6        2.09949  -0.01359   0.00000  -0.04182  -0.04182   2.05768
    R7        2.09981  -0.01325   0.00000  -0.04081  -0.04081   2.05900
    R8        2.09945  -0.01358   0.00000  -0.04178  -0.04178   2.05767
    R9        2.10063  -0.01242   0.00000  -0.03828  -0.03828   2.06235
   R10        2.09995  -0.01329   0.00000  -0.04094  -0.04094   2.05901
   R11        2.30690  -0.02748   0.00000  -0.02892  -0.02892   2.27798
   R12        2.05186   0.01210   0.00000   0.03428   0.03428   2.08614
    A1        1.93417  -0.00059   0.00000   0.00676   0.00641   1.94057
    A2        1.91948   0.00017   0.00000  -0.00604  -0.00593   1.91355
    A3        1.89023   0.00163   0.00000   0.02986   0.02910   1.91934
    A4        1.91953   0.00016   0.00000  -0.00610  -0.00600   1.91353
    A5        1.89018   0.00163   0.00000   0.02990   0.02914   1.91932
    A6        1.90965  -0.00302   0.00000  -0.05435  -0.05401   1.85564
    A7        1.93341   0.00116   0.00000   0.00428   0.00422   1.93763
    A8        1.92180   0.00013   0.00000  -0.00041  -0.00048   1.92133
    A9        1.92092   0.00329   0.00000   0.02467   0.02455   1.94547
   A10        1.89931  -0.00154   0.00000  -0.01753  -0.01753   1.88177
   A11        1.89968  -0.00208   0.00000  -0.01077  -0.01089   1.88879
   A12        1.88790  -0.00108   0.00000  -0.00093  -0.00105   1.88685
   A13        1.92195   0.00011   0.00000  -0.00056  -0.00063   1.92133
   A14        1.93348   0.00115   0.00000   0.00424   0.00418   1.93766
   A15        1.92090   0.00328   0.00000   0.02468   0.02456   1.94546
   A16        1.89935  -0.00153   0.00000  -0.01755  -0.01755   1.88181
   A17        1.88776  -0.00107   0.00000  -0.00082  -0.00093   1.88683
   A18        1.89955  -0.00207   0.00000  -0.01067  -0.01078   1.88877
   A19        2.10241   0.01584   0.00000   0.07198   0.07198   2.17440
   A20        2.09578  -0.01323   0.00000  -0.06921  -0.06921   2.02657
   A21        2.08499  -0.00260   0.00000  -0.00277  -0.00277   2.08221
    D1       -1.05801   0.00130   0.00000   0.01097   0.01112  -1.04688
    D2        1.04380   0.00021   0.00000  -0.00845  -0.00836   1.03544
    D3        3.12349   0.00100   0.00000   0.00552   0.00564   3.12914
    D4        1.06812   0.00123   0.00000   0.00371   0.00381   1.07193
    D5       -3.11327   0.00014   0.00000  -0.01571  -0.01567  -3.12893
    D6       -1.03357   0.00093   0.00000  -0.00174  -0.00167  -1.03523
    D7       -3.12898  -0.00135   0.00000  -0.04778  -0.04794   3.10626
    D8       -1.02718  -0.00244   0.00000  -0.06719  -0.06742  -1.09460
    D9        1.05251  -0.00165   0.00000  -0.05322  -0.05341   0.99910
   D10       -1.04387  -0.00020   0.00000   0.00853   0.00844  -1.03544
   D11        1.05813  -0.00130   0.00000  -0.01104  -0.01119   1.04694
   D12       -3.12349  -0.00100   0.00000  -0.00549  -0.00561  -3.12910
   D13        3.11321  -0.00014   0.00000   0.01575   0.01571   3.12892
   D14       -1.06797  -0.00124   0.00000  -0.00382  -0.00392  -1.07188
   D15        1.03360  -0.00093   0.00000   0.00173   0.00166   1.03526
   D16        1.02714   0.00244   0.00000   0.06725   0.06747   1.09461
   D17        3.12915   0.00134   0.00000   0.04768   0.04785  -3.10619
   D18       -1.05247   0.00165   0.00000   0.05323   0.05342  -0.99905
   D19        2.07424   0.00026   0.00000  -0.00056  -0.00043   2.07381
   D20       -1.06743   0.00026   0.00000   0.00008   0.00021  -1.06722
   D21       -2.07413  -0.00026   0.00000  -0.00011  -0.00024  -2.07437
   D22        1.06739  -0.00026   0.00000   0.00053   0.00040   1.06779
   D23        0.00003   0.00000   0.00000  -0.00033  -0.00033  -0.00030
   D24        3.14155   0.00000   0.00000   0.00031   0.00031  -3.14133
         Item               Value     Threshold  Converged?
 Maximum Force            0.027484     0.000002     NO 
 RMS     Force            0.006842     0.000001     NO 
 Maximum Displacement     0.109752     0.000006     NO 
 RMS     Displacement     0.030282     0.000004     NO 
 Predicted change in Energy=-4.169888D-03
 GradGradGradGradGradGradGradGradGradGradGradGradGradGradGradGradGradGrad

                          Input orientation:                          
 ---------------------------------------------------------------------
 Center     Atomic      Atomic             Coordinates (Angstroms)
 Number     Number       Type             X           Y           Z
 ---------------------------------------------------------------------
      1          6           0        0.084657    0.197892   -0.373860
      2          6           0        1.227170   -0.654488    0.188848
      3          6           0       -1.247887   -0.557054   -0.320232
      4          6           0       -0.026338    1.473718    0.409861
      5          1           0        0.307102    0.487411   -1.400015
      6          1           0        1.038273   -0.924612    1.229228
      7          1           0        1.322437   -1.576380   -0.382720
      8          1           0        2.179186   -0.126676    0.141380
      9          1           0       -1.179436   -1.477890   -0.897313
     10          1           0       -1.505279   -0.824442    0.706068
     11          1           0       -2.061386    0.040255   -0.730877
     12          8           0        0.113090    2.576943   -0.055519
     13          1           0       -0.251490    1.365422    1.485153
 ---------------------------------------------------------------------
                    Distance matrix (angstroms):
                    1          2          3          4          5
     1  C    0.000000
     2  C    1.532491   0.000000
     3  C    1.532479   2.528747   0.000000
     4  C    1.501423   2.479796   2.479768   0.000000
     5  H    1.089173   2.162162   2.162135   2.087974   0.000000
     6  H    2.176991   1.091347   2.786118   2.748954   3.072676
     7  H    2.163382   1.088876   2.765772   3.427897   2.514961
     8  H    2.181254   1.089575   3.484700   2.738188   2.501539
     9  H    2.163372   2.765770   1.088874   3.427875   2.514938
    10  H    2.176995   2.786158   1.091348   2.748917   3.072665
    11  H    2.181240   3.484703   1.089581   2.738160   2.501485
    12  O    2.400424   3.426812   3.426991   1.205456   2.492279
    13  H    2.220822   2.819021   2.819243   1.103936   3.067103
                    6          7          8          9         10
     6  H    0.000000
     7  H    1.761797   0.000000
     8  H    1.766860   1.763616   0.000000
     9  H    3.121942   2.556144   3.766298   0.000000
    10  H    2.598729   3.121995   3.792233   1.761817   0.000000
    11  H    3.792211   3.766295   4.332568   1.763604   1.766851
    12  O    3.842841   4.338165   3.408383   4.338307   3.842988
    13  H    2.640690   3.823663   3.152818   3.823826   2.640921
                   11         12         13
    11  H    0.000000
    12  O    3.408701   0.000000
    13  H    3.153185   1.993583   0.000000
 Stoichiometry    C4H8O
 Framework group  C1[X(C4H8O)]
 Deg. of freedom    33
 Full point group                 C1      NOp   1
 Largest Abelian subgroup         C1      NOp   1
 Largest concise Abelian subgroup C1      NOp   1
                         Standard orientation:                         
 ---------------------------------------------------------------------
 Center     Atomic      Atomic             Coordinates (Angstroms)
 Number     Number       Type             X           Y           Z
 ---------------------------------------------------------------------
      1          6           0        0.334699   -0.000015   -0.334841
      2          6           0        1.114761    1.264461    0.040838
      3          6           0        1.115068   -1.264286    0.040837
      4          6           0       -0.993504   -0.000196    0.365263
      5          1           0        0.118044   -0.000056   -1.402248
      6          1           0        1.310209    1.299453    1.113971
      7          1           0        2.074536    1.278277   -0.473254
      8          1           0        0.569438    2.166304   -0.235704
      9          1           0        2.074847   -1.277867   -0.473252
     10          1           0        1.310485   -1.299275    1.113976
     11          1           0        0.569974   -2.166263   -0.235742
     12          8           0       -2.061567   -0.000055   -0.193632
     13          1           0       -0.961140    0.000083    1.468725
 ---------------------------------------------------------------------
 Rotational constants (GHZ):      7.7378572      3.7476211      2.8299115
 Standard basis: 6-311+G(2df,2p) (5D, 7F)
 There are   242 symmetry adapted basis functions of A   symmetry.
 Integral buffers will be    131072 words long.
 Raffenetti 2 integral format.
 Two-electron integral symmetry is turned on.
   242 basis functions,   348 primitive gaussians,   267 cartesian basis functions
    20 alpha electrons       20 beta electrons
       nuclear repulsion energy       176.0444488216 Hartrees.
 NAtoms=   13 NActive=   13 NUniq=   13 SFac= 1.00D+00 NAtFMM=   50 NAOKFM=F Big=F
 One-electron integrals computed using PRISM.
 NBasis=   242 RedAO= T  NBF=   242
 NBsUse=   242 1.00D-06 NBFU=   242
 Initial guess read from the read-write file.
 B after Tr=     0.000000    0.000000    0.000000
         Rot=    1.000000    0.000000    0.000000    0.000000 Ang=   0.00 deg.
 Initial guess orbital symmetries:
       Occupied  (A) (A) (A) (A) (A) (A) (A) (A) (A) (A) (A) (A)
                 (A) (A) (A) (A) (A) (A) (A) (A)
       Virtual   (A) (A) (A) (A) (A) (A) (A) (A) (A) (A) (A) (A)
                 (A) (A) (A) (A) (A) (A) (A) (A) (A) (A) (A) (A)
                 (A) (A) (A) (A) (A) (A) (A) (A) (A) (A) (A) (A)
                 (A) (A) (A) (A) (A) (A) (A) (A) (A) (A) (A) (A)
                 (A) (A) (A) (A) (A) (A) (A) (A) (A) (A) (A) (A)
                 (A) (A) (A) (A) (A) (A) (A) (A) (A) (A) (A) (A)
                 (A) (A) (A) (A) (A) (A) (A) (A) (A) (A) (A) (A)
                 (A) (A) (A) (A) (A) (A) (A) (A) (A) (A) (A) (A)
                 (A) (A) (A) (A) (A) (A) (A) (A) (A) (A) (A) (A)
                 (A) (A) (A) (A) (A) (A) (A) (A) (A) (A) (A) (A)
                 (A) (A) (A) (A) (A) (A) (A) (A) (A) (A) (A) (A)
                 (A) (A) (A) (A) (A) (A) (A) (A) (A) (A) (A) (A)
                 (A) (A) (A) (A) (A) (A) (A) (A) (A) (A) (A) (A)
                 (A) (A) (A) (A) (A) (A) (A) (A) (A) (A) (A) (A)
                 (A) (A) (A) (A) (A) (A) (A) (A) (A) (A) (A) (A)
                 (A) (A) (A) (A) (A) (A) (A) (A) (A) (A) (A) (A)
                 (A) (A) (A) (A) (A) (A) (A) (A) (A) (A) (A) (A)
                 (A) (A) (A) (A) (A) (A) (A) (A) (A) (A) (A) (A)
                 (A) (A) (A) (A) (A) (A)
 Harris functional with IExCor= 1009 diagonalized for initial guess.
 ExpMin= 4.38D-02 ExpMax= 8.59D+03 ExpMxC= 1.30D+03 IAcc=2 IRadAn=         0 AccDes= 0.00D+00
 HarFok:  IExCor= 1009 AccDes= 0.00D+00 IRadAn=         0 IDoV= 1
 ScaDFX=  1.000000  1.000000  1.000000  1.000000
 FoFCou: FMM=F IPFlag=           0 FMFlag=      100000 FMFlg1=           0
         NFxFlg=           0 DoJE=T BraDBF=F KetDBF=T FulRan=T
         Omega=  0.000000  0.000000  1.000000  0.000000  0.000000 ICntrl=     500 IOpCl=  0
         NMat0=    1 NMatS0=    1 NMatT0=    0 NMatD0=    1 NMtDS0=    0 NMtDT0=    0
         I1Cent=           4 NGrid=           0.
 Petite list used in FoFCou.
 Requested convergence on RMS density matrix=1.00D-08 within 128 cycles.
 Requested convergence on MAX density matrix=1.00D-06.
 Requested convergence on             energy=1.00D-06.
 No special actions if energy rises.
 Keep R1 ints in memory in canonical form, NReq=650025879.
 PrsmSu:  requested number of processors reduced to:  15 ShMem   1 Linda.
 SCF Done:  E(RM062X) =  -232.425676143     A.U. after   11 cycles
             Convg  =    0.3665D-08             -V/T =  2.0039
 Calling FoFJK, ICntrl=      2127 FMM=F ISym2X=0 I1Cent= 0 IOpClX= 0 NMat=1 NMatS=1 NMatT=0.
 ***** Axes restored to original set *****
 -------------------------------------------------------------------
 Center     Atomic                   Forces (Hartrees/Bohr)
 Number     Number              X              Y              Z
 -------------------------------------------------------------------
      1        6          -0.000027483   -0.003152518   -0.000563890
      2        6          -0.000315379    0.001325337   -0.000156058
      3        6           0.000440801    0.001288706   -0.000006364
      4        6           0.001703248    0.012436751   -0.005552817
      5        1           0.000193666   -0.000368072   -0.001004252
      6        1          -0.000487268    0.000227360    0.000233283
      7        1          -0.000369464   -0.000443745   -0.000147820
      8        1          -0.000180972    0.000170843    0.000019312
      9        1           0.000361270   -0.000475975    0.000005262
     10        1           0.000373645    0.000191415    0.000409380
     11        1           0.000173591    0.000155469    0.000092885
     12        8          -0.001029789   -0.008647561    0.003232979
     13        1          -0.000835865   -0.002708010    0.003438099
 -------------------------------------------------------------------
 Cartesian Forces:  Max     0.012436751 RMS     0.002825035

 GradGradGradGradGradGradGradGradGradGradGradGradGradGradGradGradGradGrad
 Berny optimization.
 Using GDIIS optimizer.
 Internal  Forces:  Max     0.009280998 RMS     0.001514150
 Search for a local minimum.
 Step number   2 out of a maximum of   67
 All quantities printed in internal units (Hartrees-Bohrs-Radians)
 Swaping is turned off.
 Update second derivatives using D2CorX and points    1    2
 DE= -4.45D-03 DEPred=-4.17D-03 R= 1.07D+00
 SS=  1.41D+00  RLast= 2.26D-01 DXNew= 5.0454D-01 6.7781D-01
 Trust test= 1.07D+00 RLast= 2.26D-01 DXMaxT set to 5.05D-01
 ITU=  1  0
     Eigenvalues ---    0.00360   0.00362   0.00719   0.00719   0.04025
     Eigenvalues ---    0.04802   0.05468   0.05470   0.05595   0.05624
     Eigenvalues ---    0.06010   0.15196   0.16000   0.16000   0.16000
     Eigenvalues ---    0.16000   0.16000   0.16178   0.16557   0.17695
     Eigenvalues ---    0.21642   0.29239   0.29373   0.31765   0.32286
     Eigenvalues ---    0.32428   0.32440   0.32466   0.32473   0.32495
     Eigenvalues ---    0.33516   0.35817   0.90554
 DIIS coeff's:      1.06570     -0.06570
 Cosine:  1.000 >  0.970
 Length:  1.000
 GDIIS step was calculated using  2 of the last  2 vectors.
 Iteration  1 RMS(Cart)=  0.01892161 RMS(Int)=  0.00021837
 Iteration  2 RMS(Cart)=  0.00024027 RMS(Int)=  0.00003244
 Iteration  3 RMS(Cart)=  0.00000004 RMS(Int)=  0.00003244
 Variable       Old X    -DE/DX   Delta X   Delta X   Delta X     New X
                                  (DIIS)     (GDIIS)  (Total)
    R1        2.89599  -0.00174   0.00024  -0.00638  -0.00614   2.88985
    R2        2.89596  -0.00173   0.00024  -0.00634  -0.00610   2.88987
    R3        2.83728   0.00151  -0.00026   0.00512   0.00485   2.84213
    R4        2.05824   0.00089  -0.00297   0.00381   0.00083   2.05907
    R5        2.06235   0.00025  -0.00252   0.00157  -0.00096   2.06139
    R6        2.05768   0.00042  -0.00275   0.00219  -0.00056   2.05712
    R7        2.05900  -0.00008  -0.00268   0.00054  -0.00214   2.05686
    R8        2.05767   0.00042  -0.00275   0.00219  -0.00055   2.05712
    R9        2.06235   0.00025  -0.00252   0.00156  -0.00095   2.06140
   R10        2.05901  -0.00008  -0.00269   0.00053  -0.00216   2.05685
   R11        2.27798  -0.00928  -0.00190  -0.00985  -0.01175   2.26623
   R12        2.08614   0.00378   0.00225   0.01076   0.01301   2.09915
    A1        1.94057   0.00035   0.00042  -0.00435  -0.00409   1.93649
    A2        1.91355  -0.00063  -0.00039  -0.00978  -0.01027   1.90328
    A3        1.91934   0.00002   0.00191   0.00419   0.00609   1.92543
    A4        1.91353  -0.00062  -0.00039  -0.00968  -0.01016   1.90336
    A5        1.91932   0.00002   0.00191   0.00421   0.00611   1.92543
    A6        1.85564   0.00086  -0.00355   0.01616   0.01268   1.86832
    A7        1.93763  -0.00074   0.00028  -0.00620  -0.00593   1.93170
    A8        1.92133  -0.00015  -0.00003  -0.00058  -0.00063   1.92070
    A9        1.94547  -0.00006   0.00161  -0.00017   0.00143   1.94690
   A10        1.88177   0.00031  -0.00115   0.00097  -0.00019   1.88158
   A11        1.88879   0.00035  -0.00072   0.00177   0.00104   1.88984
   A12        1.88685   0.00034  -0.00007   0.00456   0.00448   1.89133
   A13        1.92133  -0.00015  -0.00004  -0.00055  -0.00060   1.92072
   A14        1.93766  -0.00074   0.00027  -0.00622  -0.00596   1.93170
   A15        1.94546  -0.00006   0.00161  -0.00017   0.00144   1.94690
   A16        1.88181   0.00031  -0.00115   0.00094  -0.00023   1.88158
   A17        1.88683   0.00034  -0.00006   0.00457   0.00450   1.89132
   A18        1.88877   0.00036  -0.00071   0.00177   0.00106   1.88983
   A19        2.17440   0.00105   0.00473   0.00369   0.00842   2.18282
   A20        2.02657  -0.00298  -0.00455  -0.01753  -0.02208   2.00449
   A21        2.08221   0.00193  -0.00018   0.01384   0.01366   2.09587
    D1       -1.04688   0.00039   0.00073  -0.00707  -0.00635  -1.05323
    D2        1.03544   0.00020  -0.00055  -0.01017  -0.01073   1.02471
    D3        3.12914   0.00049   0.00037  -0.00495  -0.00458   3.12455
    D4        1.07193  -0.00058   0.00025  -0.02865  -0.02838   1.04355
    D5       -3.12893  -0.00077  -0.00103  -0.03175  -0.03276   3.12149
    D6       -1.03523  -0.00048  -0.00011  -0.02653  -0.02661  -1.06185
    D7        3.10626   0.00011  -0.00315  -0.01235  -0.01552   3.09075
    D8       -1.09460  -0.00008  -0.00443  -0.01545  -0.01990  -1.11450
    D9        0.99910   0.00021  -0.00351  -0.01023  -0.01375   0.98535
   D10       -1.03544  -0.00020   0.00055   0.01020   0.01076  -1.02467
   D11        1.04694  -0.00039  -0.00074   0.00707   0.00634   1.05328
   D12       -3.12910  -0.00049  -0.00037   0.00494   0.00458  -3.12452
   D13        3.12892   0.00078   0.00103   0.03184   0.03286  -3.12141
   D14       -1.07188   0.00059  -0.00026   0.02871   0.02843  -1.04346
   D15        1.03526   0.00049   0.00011   0.02658   0.02667   1.06193
   D16        1.09461   0.00008   0.00443   0.01547   0.01992   1.11453
   D17       -3.10619  -0.00011   0.00314   0.01233   0.01549  -3.09070
   D18       -0.99905  -0.00021   0.00351   0.01021   0.01374  -0.98531
   D19        2.07381   0.00020  -0.00003   0.01098   0.01091   2.08472
   D20       -1.06722   0.00017   0.00001   0.00692   0.00689  -1.06033
   D21       -2.07437  -0.00017  -0.00002  -0.00704  -0.00702  -2.08139
   D22        1.06779  -0.00020   0.00003  -0.01110  -0.01104   1.05675
   D23       -0.00030   0.00001  -0.00002   0.00201   0.00199   0.00169
   D24       -3.14133  -0.00001   0.00002  -0.00205  -0.00203   3.13983
         Item               Value     Threshold  Converged?
 Maximum Force            0.009281     0.000002     NO 
 RMS     Force            0.001514     0.000001     NO 
 Maximum Displacement     0.076189     0.000006     NO 
 RMS     Displacement     0.018994     0.000004     NO 
 Predicted change in Energy=-2.089328D-04
 GradGradGradGradGradGradGradGradGradGradGradGradGradGradGradGradGradGrad

                          Input orientation:                          
 ---------------------------------------------------------------------
 Center     Atomic      Atomic             Coordinates (Angstroms)
 Number     Number       Type             X           Y           Z
 ---------------------------------------------------------------------
      1          6           0        0.087844    0.199487   -0.387618
      2          6           0        1.223858   -0.649375    0.184647
      3          6           0       -1.242536   -0.551812   -0.322426
      4          6           0       -0.025839    1.469451    0.410040
      5          1           0        0.310409    0.486383   -1.414952
      6          1           0        1.031137   -0.896908    1.229406
      7          1           0        1.307298   -1.583070   -0.368760
      8          1           0        2.178805   -0.130243    0.127343
      9          1           0       -1.171753   -1.485032   -0.878394
     10          1           0       -1.496335   -0.796885    0.709788
     11          1           0       -2.055349    0.037239   -0.743203
     12          8           0        0.107414    2.575760   -0.033243
     13          1           0       -0.254853    1.325104    1.487372
 ---------------------------------------------------------------------
                    Distance matrix (angstroms):
                    1          2          3          4          5
     1  C    0.000000
     2  C    1.529243   0.000000
     3  C    1.529252   2.519869   0.000000
     4  C    1.503992   2.470217   2.470296   0.000000
     5  H    1.089614   2.164037   2.164047   2.100020   0.000000
     6  H    2.169483   1.090842   2.774322   2.718128   3.070110
     7  H    2.159846   1.088580   2.750871   3.420770   2.524072
     8  H    2.178537   1.088441   3.476432   2.738502   2.499961
     9  H    2.159873   2.750878   1.088582   3.420841   2.524119
    10  H    2.169489   2.774344   1.090843   2.718177   3.070117
    11  H    2.178541   3.476427   1.088439   2.738633   2.499957
    12  O    2.402631   3.419857   3.418727   1.199240   2.513130
    13  H    2.213604   2.789668   2.788135   1.110823   3.073509
                    6          7          8          9         10
     6  H    0.000000
     7  H    1.761028   0.000000
     8  H    1.766199   1.765318   0.000000
     9  H    3.105067   2.532791   3.751426   0.000000
    10  H    2.582271   3.105110   3.780252   1.761028   0.000000
    11  H    3.780240   3.751399   4.325963   1.765312   1.766194
    12  O    3.808802   4.341447   3.411583   4.340574   3.807734
    13  H    2.580244   3.787218   3.144901   3.786082   2.578517
                   11         12         13
    11  H    0.000000
    12  O    3.409644   0.000000
    13  H    3.142585   2.001911   0.000000
 Stoichiometry    C4H8O
 Framework group  C1[X(C4H8O)]
 Deg. of freedom    33
 Full point group                 C1      NOp   1
 Largest Abelian subgroup         C1      NOp   1
 Largest concise Abelian subgroup C1      NOp   1
                         Standard orientation:                         
 ---------------------------------------------------------------------
 Center     Atomic      Atomic             Coordinates (Angstroms)
 Number     Number       Type             X           Y           Z
 ---------------------------------------------------------------------
      1          6           0       -0.337337   -0.000081   -0.348082
      2          6           0       -1.111526   -1.259407    0.043470
      3          6           0       -1.109564    1.260462    0.043463
      4          6           0        0.990924   -0.001184    0.357406
      5          1           0       -0.130784   -0.000249   -1.417940
      6          1           0       -1.276780   -1.290464    1.121275
      7          1           0       -2.085377   -1.265107   -0.442933
      8          1           0       -0.578160   -2.162873   -0.246311
      9          1           0       -2.083429    1.267683   -0.442899
     10          1           0       -1.274726    1.291806    1.121275
     11          1           0       -0.574804    2.163088   -0.246357
     12          8           0        2.059840   -0.000408   -0.186279
     13          1           0        0.930362    0.000640    1.466575
 ---------------------------------------------------------------------
 Rotational constants (GHZ):      7.7824300      3.7616239      2.8447113
 Standard basis: 6-311+G(2df,2p) (5D, 7F)
 There are   242 symmetry adapted basis functions of A   symmetry.
 Integral buffers will be    131072 words long.
 Raffenetti 2 integral format.
 Two-electron integral symmetry is turned on.
   242 basis functions,   348 primitive gaussians,   267 cartesian basis functions
    20 alpha electrons       20 beta electrons
       nuclear repulsion energy       176.3908604188 Hartrees.
 NAtoms=   13 NActive=   13 NUniq=   13 SFac= 1.00D+00 NAtFMM=   50 NAOKFM=F Big=F
 One-electron integrals computed using PRISM.
 NBasis=   242 RedAO= T  NBF=   242
 NBsUse=   242 1.00D-06 NBFU=   242
 Initial guess read from the read-write file.
 B after Tr=     0.000000    0.000000    0.000000
         Rot=    1.000000    0.000000    0.000000    0.000000 Ang=   0.00 deg.
 Initial guess orbital symmetries:
       Occupied  (A) (A) (A) (A) (A) (A) (A) (A) (A) (A) (A) (A)
                 (A) (A) (A) (A) (A) (A) (A) (A)
       Virtual   (A) (A) (A) (A) (A) (A) (A) (A) (A) (A) (A) (A)
                 (A) (A) (A) (A) (A) (A) (A) (A) (A) (A) (A) (A)
                 (A) (A) (A) (A) (A) (A) (A) (A) (A) (A) (A) (A)
                 (A) (A) (A) (A) (A) (A) (A) (A) (A) (A) (A) (A)
                 (A) (A) (A) (A) (A) (A) (A) (A) (A) (A) (A) (A)
                 (A) (A) (A) (A) (A) (A) (A) (A) (A) (A) (A) (A)
                 (A) (A) (A) (A) (A) (A) (A) (A) (A) (A) (A) (A)
                 (A) (A) (A) (A) (A) (A) (A) (A) (A) (A) (A) (A)
                 (A) (A) (A) (A) (A) (A) (A) (A) (A) (A) (A) (A)
                 (A) (A) (A) (A) (A) (A) (A) (A) (A) (A) (A) (A)
                 (A) (A) (A) (A) (A) (A) (A) (A) (A) (A) (A) (A)
                 (A) (A) (A) (A) (A) (A) (A) (A) (A) (A) (A) (A)
                 (A) (A) (A) (A) (A) (A) (A) (A) (A) (A) (A) (A)
                 (A) (A) (A) (A) (A) (A) (A) (A) (A) (A) (A) (A)
                 (A) (A) (A) (A) (A) (A) (A) (A) (A) (A) (A) (A)
                 (A) (A) (A) (A) (A) (A) (A) (A) (A) (A) (A) (A)
                 (A) (A) (A) (A) (A) (A) (A) (A) (A) (A) (A) (A)
                 (A) (A) (A) (A) (A) (A) (A) (A) (A) (A) (A) (A)
                 (A) (A) (A) (A) (A) (A)
 Harris functional with IExCor= 1009 diagonalized for initial guess.
 ExpMin= 4.38D-02 ExpMax= 8.59D+03 ExpMxC= 1.30D+03 IAcc=2 IRadAn=         0 AccDes= 0.00D+00
 HarFok:  IExCor= 1009 AccDes= 0.00D+00 IRadAn=         0 IDoV= 1
 ScaDFX=  1.000000  1.000000  1.000000  1.000000
 FoFCou: FMM=F IPFlag=           0 FMFlag=      100000 FMFlg1=           0
         NFxFlg=           0 DoJE=T BraDBF=F KetDBF=T FulRan=T
         Omega=  0.000000  0.000000  1.000000  0.000000  0.000000 ICntrl=     500 IOpCl=  0
         NMat0=    1 NMatS0=    1 NMatT0=    0 NMatD0=    1 NMtDS0=    0 NMtDT0=    0
         I1Cent=           4 NGrid=           0.
 Petite list used in FoFCou.
 Requested convergence on RMS density matrix=1.00D-08 within 128 cycles.
 Requested convergence on MAX density matrix=1.00D-06.
 Requested convergence on             energy=1.00D-06.
 No special actions if energy rises.
 Keep R1 ints in memory in canonical form, NReq=650025879.
 PrsmSu:  requested number of processors reduced to:  15 ShMem   1 Linda.
 SCF Done:  E(RM062X) =  -232.425922512     A.U. after   13 cycles
             Convg  =    0.5762D-08             -V/T =  2.0038
 Calling FoFJK, ICntrl=      2127 FMM=F ISym2X=0 I1Cent= 0 IOpClX= 0 NMat=1 NMatS=1 NMatT=0.
 ***** Axes restored to original set *****
 -------------------------------------------------------------------
 Center     Atomic                   Forces (Hartrees/Bohr)
 Number     Number              X              Y              Z
 -------------------------------------------------------------------
      1        6           0.000060521   -0.000853592    0.000193924
      2        6          -0.000071208    0.000326487   -0.000399666
      3        6           0.000246316    0.000367084   -0.000304396
      4        6          -0.000204980    0.002610045   -0.000578094
      5        1           0.000090324   -0.000076586   -0.000451702
      6        1          -0.000198025   -0.000108668    0.000650505
      7        1           0.000119964   -0.000648743   -0.000186221
      8        1           0.000529361    0.000279148   -0.000027618
      9        1          -0.000070293   -0.000632160   -0.000229640
     10        1          -0.000083539   -0.000114829    0.000672965
     11        1          -0.000455024    0.000323000   -0.000228793
     12        8          -0.000000475   -0.000701890    0.000537990
     13        1           0.000037059   -0.000769296    0.000350746
 -------------------------------------------------------------------
 Cartesian Forces:  Max     0.002610045 RMS     0.000573593

 GradGradGradGradGradGradGradGradGradGradGradGradGradGradGradGradGradGrad
 Berny optimization.
 Using GDIIS optimizer.
 Internal  Forces:  Max     0.001156758 RMS     0.000372828
 Search for a local minimum.
 Step number   3 out of a maximum of   67
 All quantities printed in internal units (Hartrees-Bohrs-Radians)
 Swaping is turned off.
 Update second derivatives using D2CorX and points    1    2    3
 DE= -2.46D-04 DEPred=-2.09D-04 R= 1.18D+00
 SS=  1.41D+00  RLast= 9.63D-02 DXNew= 8.4853D-01 2.8896D-01
 Trust test= 1.18D+00 RLast= 9.63D-02 DXMaxT set to 5.05D-01
 ITU=  1  1  0
     Eigenvalues ---    0.00349   0.00362   0.00719   0.00723   0.04006
     Eigenvalues ---    0.04722   0.05440   0.05478   0.05614   0.05649
     Eigenvalues ---    0.05981   0.13238   0.16000   0.16000   0.16000
     Eigenvalues ---    0.16000   0.16046   0.16230   0.16392   0.17391
     Eigenvalues ---    0.21149   0.29372   0.30384   0.31317   0.32399
     Eigenvalues ---    0.32428   0.32444   0.32472   0.32495   0.32538
     Eigenvalues ---    0.34648   0.36021   0.91017
 DIIS coeff's:      1.21736     -0.22445      0.00708
 Cosine:  1.000 >  0.840
 Length:  1.009
 GDIIS step was calculated using  3 of the last  3 vectors.
 Iteration  1 RMS(Cart)=  0.00845526 RMS(Int)=  0.00007833
 Iteration  2 RMS(Cart)=  0.00007474 RMS(Int)=  0.00002752
 Iteration  3 RMS(Cart)=  0.00000001 RMS(Int)=  0.00002752
 Variable       Old X    -DE/DX   Delta X   Delta X   Delta X     New X
                                  (DIIS)     (GDIIS)  (Total)
    R1        2.88985   0.00038  -0.00136   0.00247   0.00111   2.89096
    R2        2.88987   0.00034  -0.00135   0.00229   0.00094   2.89081
    R3        2.84213   0.00114   0.00108   0.00356   0.00465   2.84678
    R4        2.05907   0.00042   0.00050   0.00052   0.00102   2.06010
    R5        2.06139   0.00068   0.00006   0.00187   0.00193   2.06332
    R6        2.05712   0.00066   0.00017   0.00165   0.00182   2.05894
    R7        2.05686   0.00060  -0.00018   0.00165   0.00148   2.05833
    R8        2.05712   0.00065   0.00018   0.00163   0.00180   2.05892
    R9        2.06140   0.00068   0.00006   0.00187   0.00193   2.06333
   R10        2.05685   0.00060  -0.00018   0.00167   0.00149   2.05834
   R11        2.26623  -0.00084  -0.00235  -0.00012  -0.00247   2.26376
   R12        2.09915   0.00043   0.00259   0.00046   0.00305   2.10220
    A1        1.93649   0.00029  -0.00093   0.00160   0.00063   1.93712
    A2        1.90328  -0.00015  -0.00219  -0.00051  -0.00273   1.90056
    A3        1.92543  -0.00009   0.00112  -0.00036   0.00078   1.92620
    A4        1.90336  -0.00023  -0.00217  -0.00119  -0.00339   1.89998
    A5        1.92543  -0.00007   0.00112  -0.00039   0.00075   1.92618
    A6        1.86832   0.00024   0.00314   0.00080   0.00395   1.87227
    A7        1.93170  -0.00019  -0.00132  -0.00102  -0.00234   1.92937
    A8        1.92070   0.00027  -0.00013   0.00241   0.00228   1.92297
    A9        1.94690   0.00001   0.00014   0.00050   0.00064   1.94754
   A10        1.88158  -0.00006   0.00008  -0.00106  -0.00098   1.88060
   A11        1.88984   0.00005   0.00030  -0.00057  -0.00026   1.88957
   A12        1.89133  -0.00007   0.00098  -0.00035   0.00063   1.89196
   A13        1.92072   0.00024  -0.00013   0.00219   0.00207   1.92279
   A14        1.93170  -0.00019  -0.00132  -0.00096  -0.00228   1.92942
   A15        1.94690   0.00001   0.00014   0.00052   0.00066   1.94755
   A16        1.88158  -0.00005   0.00008  -0.00102  -0.00095   1.88063
   A17        1.89132  -0.00006   0.00098  -0.00029   0.00069   1.89202
   A18        1.88983   0.00005   0.00031  -0.00053  -0.00023   1.88960
   A19        2.18282   0.00082   0.00132   0.00493   0.00614   2.18896
   A20        2.00449  -0.00116  -0.00431  -0.00639  -0.01082   1.99368
   A21        2.09587   0.00034   0.00299   0.00155   0.00442   2.10029
    D1       -1.05323   0.00005  -0.00146  -0.00443  -0.00589  -1.05912
    D2        1.02471   0.00002  -0.00227  -0.00486  -0.00713   1.01758
    D3        3.12455   0.00011  -0.00104  -0.00335  -0.00439   3.12016
    D4        1.04355  -0.00015  -0.00620  -0.00524  -0.01143   1.03212
    D5        3.12149  -0.00018  -0.00701  -0.00567  -0.01268   3.10882
    D6       -1.06185  -0.00009  -0.00577  -0.00416  -0.00993  -1.07178
    D7        3.09075   0.00001  -0.00303  -0.00478  -0.00782   3.08293
    D8       -1.11450  -0.00002  -0.00385  -0.00521  -0.00906  -1.12356
    D9        0.98535   0.00007  -0.00261  -0.00371  -0.00632   0.97903
   D10       -1.02467   0.00000   0.00228   0.00467   0.00696  -1.01772
   D11        1.05328  -0.00003   0.00146   0.00420   0.00566   1.05894
   D12       -3.12452  -0.00009   0.00104   0.00322   0.00426  -3.12026
   D13       -3.12141   0.00015   0.00703   0.00508   0.01211  -3.10930
   D14       -1.04346   0.00012   0.00621   0.00461   0.01081  -1.03265
   D15        1.06193   0.00006   0.00579   0.00363   0.00941   1.07134
   D16        1.11453   0.00003   0.00385   0.00505   0.00890   1.12343
   D17       -3.09070   0.00000   0.00303   0.00457   0.00760  -3.08310
   D18       -0.98531  -0.00006   0.00261   0.00360   0.00620  -0.97911
   D19        2.08472  -0.00014   0.00238  -0.01446  -0.01210   2.07262
   D20       -1.06033   0.00003   0.00150   0.01453   0.01601  -1.04431
   D21       -2.08139  -0.00002  -0.00152  -0.01355  -0.01506  -2.09645
   D22        1.05675   0.00015  -0.00240   0.01544   0.01306   1.06981
   D23        0.00169  -0.00009   0.00044  -0.01421  -0.01378  -0.01209
   D24        3.13983   0.00008  -0.00044   0.01478   0.01434  -3.12902
         Item               Value     Threshold  Converged?
 Maximum Force            0.001157     0.000002     NO 
 RMS     Force            0.000373     0.000001     NO 
 Maximum Displacement     0.029164     0.000006     NO 
 RMS     Displacement     0.008463     0.000004     NO 
 Predicted change in Energy=-2.638538D-05
 GradGradGradGradGradGradGradGradGradGradGradGradGradGradGradGradGradGrad

                          Input orientation:                          
 ---------------------------------------------------------------------
 Center     Atomic      Atomic             Coordinates (Angstroms)
 Number     Number       Type             X           Y           Z
 ---------------------------------------------------------------------
      1          6           0        0.086735    0.199874   -0.392210
      2          6           0        1.223755   -0.646311    0.183578
      3          6           0       -1.243840   -0.551954   -0.325424
      4          6           0       -0.030649    1.469735    0.409706
      5          1           0        0.309712    0.485729   -1.420320
      6          1           0        1.031343   -0.884444    1.231641
      7          1           0        1.305594   -1.586409   -0.361054
      8          1           0        2.179942   -0.128415    0.121160
      9          1           0       -1.172257   -1.491540   -0.872362
     10          1           0       -1.499181   -0.787869    0.709618
     11          1           0       -2.056863    0.033591   -0.752676
     12          8           0        0.112245    2.578441   -0.020867
     13          1           0       -0.246435    1.309672    1.489210
 ---------------------------------------------------------------------
                    Distance matrix (angstroms):
                    1          2          3          4          5
     1  C    0.000000
     2  C    1.529829   0.000000
     3  C    1.529750   2.521311   0.000000
     4  C    1.506451   2.470286   2.469711   0.000000
     5  H    1.090156   2.165520   2.165434   2.105494   0.000000
     6  H    2.169084   1.091864   2.776951   2.710270   3.070997
     7  H    2.162729   1.089544   2.751541   3.423395   2.531319
     8  H    2.180100   1.089222   3.478664   2.743001   2.500218
     9  H    2.162519   2.751417   1.089535   3.422881   2.531024
    10  H    2.169053   2.776894   1.091865   2.709854   3.070958
    11  H    2.180045   3.478691   1.089226   2.742113   2.500171
    12  O    2.407515   3.417057   3.425069   1.197932   2.525254
    13  H    2.209614   2.773446   2.784487   1.112436   3.074662
                    6          7          8          9         10
     6  H    0.000000
     7  H    1.762001   0.000000
     8  H    1.767492   1.767133   0.000000
     9  H    3.106646   2.531833   3.752656   0.000000
    10  H    2.585612   3.106569   3.783796   1.762014   0.000000
    11  H    3.783823   3.752850   4.329012   1.767166   1.767515
    12  O    3.795404   4.345778   3.409195   4.351981   3.802939
    13  H    2.552097   3.770882   3.134798   3.779015   2.564530
                   11         12         13
    11  H    0.000000
    12  O    3.422986   0.000000
    13  H    3.151521   2.004685   0.000000
 Stoichiometry    C4H8O
 Framework group  C1[X(C4H8O)]
 Deg. of freedom    33
 Full point group                 C1      NOp   1
 Largest Abelian subgroup         C1      NOp   1
 Largest concise Abelian subgroup C1      NOp   1
                         Standard orientation:                         
 ---------------------------------------------------------------------
 Center     Atomic      Atomic             Coordinates (Angstroms)
 Number     Number       Type             X           Y           Z
 ---------------------------------------------------------------------
      1          6           0        0.339539   -0.000575   -0.352192
      2          6           0        1.103162    1.264379    0.044227
      3          6           0        1.117084   -1.256894    0.044320
      4          6           0       -0.991237   -0.008412    0.353759
      5          1           0        0.137670   -0.001754   -1.423495
      6          1           0        1.254991    1.297440    1.124978
      7          1           0        2.084261    1.275106   -0.429519
      8          1           0        0.567938    2.165259   -0.253020
      9          1           0        2.098138   -1.256690   -0.429621
     10          1           0        1.269459   -1.288132    1.125048
     11          1           0        0.591835   -2.163687   -0.252753
     12          8           0       -2.062040   -0.002911   -0.183261
     13          1           0       -0.919264    0.004758    1.463787
 ---------------------------------------------------------------------
 Rotational constants (GHZ):      7.7754732      3.7582911      2.8417178
 Standard basis: 6-311+G(2df,2p) (5D, 7F)
 There are   242 symmetry adapted basis functions of A   symmetry.
 Integral buffers will be    131072 words long.
 Raffenetti 2 integral format.
 Two-electron integral symmetry is turned on.
   242 basis functions,   348 primitive gaussians,   267 cartesian basis functions
    20 alpha electrons       20 beta electrons
       nuclear repulsion energy       176.3179545758 Hartrees.
 NAtoms=   13 NActive=   13 NUniq=   13 SFac= 1.00D+00 NAtFMM=   50 NAOKFM=F Big=F
 One-electron integrals computed using PRISM.
 NBasis=   242 RedAO= T  NBF=   242
 NBsUse=   242 1.00D-06 NBFU=   242
 Initial guess read from the read-write file.
 B after Tr=     0.000000    0.000000    0.000000
         Rot=    1.000000    0.000000    0.000000    0.000000 Ang=   0.00 deg.
 Initial guess orbital symmetries:
       Occupied  (A) (A) (A) (A) (A) (A) (A) (A) (A) (A) (A) (A)
                 (A) (A) (A) (A) (A) (A) (A) (A)
       Virtual   (A) (A) (A) (A) (A) (A) (A) (A) (A) (A) (A) (A)
                 (A) (A) (A) (A) (A) (A) (A) (A) (A) (A) (A) (A)
                 (A) (A) (A) (A) (A) (A) (A) (A) (A) (A) (A) (A)
                 (A) (A) (A) (A) (A) (A) (A) (A) (A) (A) (A) (A)
                 (A) (A) (A) (A) (A) (A) (A) (A) (A) (A) (A) (A)
                 (A) (A) (A) (A) (A) (A) (A) (A) (A) (A) (A) (A)
                 (A) (A) (A) (A) (A) (A) (A) (A) (A) (A) (A) (A)
                 (A) (A) (A) (A) (A) (A) (A) (A) (A) (A) (A) (A)
                 (A) (A) (A) (A) (A) (A) (A) (A) (A) (A) (A) (A)
                 (A) (A) (A) (A) (A) (A) (A) (A) (A) (A) (A) (A)
                 (A) (A) (A) (A) (A) (A) (A) (A) (A) (A) (A) (A)
                 (A) (A) (A) (A) (A) (A) (A) (A) (A) (A) (A) (A)
                 (A) (A) (A) (A) (A) (A) (A) (A) (A) (A) (A) (A)
                 (A) (A) (A) (A) (A) (A) (A) (A) (A) (A) (A) (A)
                 (A) (A) (A) (A) (A) (A) (A) (A) (A) (A) (A) (A)
                 (A) (A) (A) (A) (A) (A) (A) (A) (A) (A) (A) (A)
                 (A) (A) (A) (A) (A) (A) (A) (A) (A) (A) (A) (A)
                 (A) (A) (A) (A) (A) (A) (A) (A) (A) (A) (A) (A)
                 (A) (A) (A) (A) (A) (A)
 Harris functional with IExCor= 1009 diagonalized for initial guess.
 ExpMin= 4.38D-02 ExpMax= 8.59D+03 ExpMxC= 1.30D+03 IAcc=2 IRadAn=         0 AccDes= 0.00D+00
 HarFok:  IExCor= 1009 AccDes= 0.00D+00 IRadAn=         0 IDoV= 1
 ScaDFX=  1.000000  1.000000  1.000000  1.000000
 FoFCou: FMM=F IPFlag=           0 FMFlag=      100000 FMFlg1=           0
         NFxFlg=           0 DoJE=T BraDBF=F KetDBF=T FulRan=T
         Omega=  0.000000  0.000000  1.000000  0.000000  0.000000 ICntrl=     500 IOpCl=  0
         NMat0=    1 NMatS0=    1 NMatT0=    0 NMatD0=    1 NMtDS0=    0 NMtDT0=    0
         I1Cent=           4 NGrid=           0.
 Petite list used in FoFCou.
 Requested convergence on RMS density matrix=1.00D-08 within 128 cycles.
 Requested convergence on MAX density matrix=1.00D-06.
 Requested convergence on             energy=1.00D-06.
 No special actions if energy rises.
 Keep R1 ints in memory in canonical form, NReq=650025879.
 PrsmSu:  requested number of processors reduced to:  15 ShMem   1 Linda.
 SCF Done:  E(RM062X) =  -232.425921953     A.U. after   13 cycles
             Convg  =    0.5697D-08             -V/T =  2.0039
 Calling FoFJK, ICntrl=      2127 FMM=F ISym2X=0 I1Cent= 0 IOpClX= 0 NMat=1 NMatS=1 NMatT=0.
 ***** Axes restored to original set *****
 -------------------------------------------------------------------
 Center     Atomic                   Forces (Hartrees/Bohr)
 Number     Number              X              Y              Z
 -------------------------------------------------------------------
      1        6          -0.000888503    0.000026402   -0.000281794
      2        6          -0.000139689    0.000274030    0.000020375
      3        6           0.000142827   -0.000129783   -0.000124782
      4        6           0.002776669   -0.000612836    0.001180755
      5        1           0.000008598   -0.000052422   -0.000070323
      6        1           0.000020965   -0.000055703    0.000089620
      7        1          -0.000026765    0.000014500   -0.000024254
      8        1           0.000032906    0.000064942   -0.000016443
      9        1          -0.000073346   -0.000046288   -0.000000482
     10        1          -0.000050949   -0.000039566    0.000075789
     11        1          -0.000012029    0.000037143   -0.000038817
     12        8          -0.000879084    0.000406530   -0.000383891
     13        1          -0.000911599    0.000113051   -0.000425754
 -------------------------------------------------------------------
 Cartesian Forces:  Max     0.002776669 RMS     0.000569624

 GradGradGradGradGradGradGradGradGradGradGradGradGradGradGradGradGradGrad
 Berny optimization.
 Using GDIIS optimizer.
 Internal  Forces:  Max     0.000676560 RMS     0.000226219
 Search for a local minimum.
 Step number   4 out of a maximum of   67
 All quantities printed in internal units (Hartrees-Bohrs-Radians)
 Swaping is turned off.
 Update second derivatives using D2CorX and points    1    2    3    4
 DE=  5.58D-07 DEPred=-2.64D-05 R=-2.12D-02
 Trust test=-2.12D-02 RLast= 5.28D-02 DXMaxT set to 2.52D-01
 ITU= -1  1  1  0
     Eigenvalues ---    0.00285   0.00362   0.00719   0.01666   0.04046
     Eigenvalues ---    0.04668   0.05434   0.05480   0.05622   0.05648
     Eigenvalues ---    0.06008   0.11090   0.16000   0.16000   0.16000
     Eigenvalues ---    0.16001   0.16027   0.16298   0.16855   0.17245
     Eigenvalues ---    0.21072   0.29404   0.30628   0.30744   0.32397
     Eigenvalues ---    0.32428   0.32460   0.32473   0.32495   0.32518
     Eigenvalues ---    0.33123   0.35015   0.88577
 DIIS coeff's:      0.31979      0.95461     -0.28632      0.01192
 Cosine:  0.909 >  0.710
 Length:  0.632
 GDIIS step was calculated using  4 of the last  4 vectors.
 Iteration  1 RMS(Cart)=  0.00514211 RMS(Int)=  0.00005292
 Iteration  2 RMS(Cart)=  0.00004933 RMS(Int)=  0.00002028
 Iteration  3 RMS(Cart)=  0.00000000 RMS(Int)=  0.00002028
 Variable       Old X    -DE/DX   Delta X   Delta X   Delta X     New X
                                  (DIIS)     (GDIIS)  (Total)
    R1        2.89096  -0.00022  -0.00248   0.00250   0.00002   2.89097
    R2        2.89081   0.00008  -0.00236   0.00258   0.00022   2.89103
    R3        2.84678   0.00004  -0.00178   0.00333   0.00155   2.84833
    R4        2.06010   0.00005   0.00007   0.00032   0.00039   2.06048
    R5        2.06332   0.00010  -0.00112   0.00177   0.00065   2.06398
    R6        2.05894   0.00000  -0.00089   0.00145   0.00055   2.05949
    R7        2.05833   0.00006  -0.00111   0.00157   0.00046   2.05879
    R8        2.05892   0.00003  -0.00088   0.00145   0.00058   2.05950
    R9        2.06333   0.00009  -0.00112   0.00177   0.00065   2.06398
   R10        2.05834   0.00004  -0.00112   0.00157   0.00045   2.05879
   R11        2.26376   0.00041  -0.00120   0.00031  -0.00089   2.26288
   R12        2.10220  -0.00026   0.00109  -0.00007   0.00102   2.10322
    A1        1.93712   0.00010  -0.00163   0.00186   0.00018   1.93731
    A2        1.90056  -0.00035  -0.00089  -0.00072  -0.00165   1.89891
    A3        1.92620   0.00005   0.00080  -0.00051   0.00031   1.92651
    A4        1.89998   0.00024  -0.00041  -0.00042  -0.00088   1.89910
    A5        1.92618  -0.00011   0.00082  -0.00050   0.00034   1.92652
    A6        1.87227   0.00007   0.00144   0.00024   0.00169   1.87396
    A7        1.92937   0.00009  -0.00009  -0.00059  -0.00068   1.92869
    A8        1.92297  -0.00006  -0.00171   0.00229   0.00057   1.92355
    A9        1.94754  -0.00006  -0.00033   0.00044   0.00011   1.94765
   A10        1.88060  -0.00001   0.00082  -0.00112  -0.00030   1.88030
   A11        1.88957   0.00000   0.00059  -0.00063  -0.00003   1.88954
   A12        1.89196   0.00005   0.00081  -0.00050   0.00032   1.89228
   A13        1.92279   0.00012  -0.00156   0.00238   0.00082   1.92361
   A14        1.92942   0.00004  -0.00013  -0.00062  -0.00075   1.92867
   A15        1.94755  -0.00007  -0.00035   0.00043   0.00009   1.94764
   A16        1.88063  -0.00006   0.00079  -0.00113  -0.00034   1.88029
   A17        1.89202  -0.00003   0.00077  -0.00053   0.00025   1.89227
   A18        1.88960   0.00000   0.00057  -0.00064  -0.00007   1.88954
   A19        2.18896  -0.00009  -0.00272   0.00478   0.00199   2.19094
   A20        1.99368   0.00011   0.00212  -0.00554  -0.00348   1.99019
   A21        2.10029   0.00001   0.00077   0.00103   0.00173   2.10202
    D1       -1.05912  -0.00006   0.00213  -0.00389  -0.00176  -1.06089
    D2        1.01758  -0.00005   0.00201  -0.00420  -0.00219   1.01538
    D3        3.12016  -0.00007   0.00166  -0.00299  -0.00133   3.11883
    D4        1.03212   0.00008  -0.00006  -0.00373  -0.00378   1.02834
[...]
 Vib (V=0)    2  0.158540D+01          0.200138          0.460835
 Vib (V=0)    3  0.145351D+01          0.162417          0.373978
 Vib (V=0)    4  0.125630D+01          0.099092          0.228169
 Vib (V=0)    5  0.124129D+01          0.093874          0.216154
 Vib (V=0)    6  0.121122D+01          0.083224          0.191630
 Vib (V=0)    7  0.107428D+01          0.031119          0.071655
 Electronic      0.100000D+01          0.000000          0.000000
 Translational   0.240422D+08          7.380974         16.995321
 Rotational      0.952371D+05          4.978806         11.464124
 ***** Axes restored to original set *****
 -------------------------------------------------------------------
 Center     Atomic                   Forces (Hartrees/Bohr)
 Number     Number              X              Y              Z
 -------------------------------------------------------------------
      1        6          -0.000000035    0.000000938    0.000000523
      2        6           0.000000186    0.000000304   -0.000001751
      3        6           0.000000519    0.000000294   -0.000001672
      4        6          -0.000000881   -0.000000309    0.000004133
      5        1          -0.000000139    0.000004433    0.000001529
      6        1           0.000000398   -0.000002935   -0.000002473
      7        1           0.000001024    0.000001731   -0.000004491
      8        1          -0.000000058    0.000000898   -0.000000126
      9        1           0.000000966    0.000001736   -0.000004507
     10        1           0.000000389   -0.000002935   -0.000002478
     11        1           0.000000175    0.000000890   -0.000000081
     12        8          -0.000001594   -0.000000470    0.000007625
     13        1          -0.000000951   -0.000004577    0.000003769
 -------------------------------------------------------------------
 Cartesian Forces:  Max     0.000007625 RMS     0.000002398

 GradGradGradGradGradGradGradGradGradGradGradGradGradGradGradGradGradGrad
 Berny optimization.
 Internal  Forces:  Max     0.000000608 RMS     0.000000111
 Search for a local minimum.
 Step number   1 out of a maximum of    2
 All quantities printed in internal units (Hartrees-Bohrs-Radians)
 Swaping is turned off.
 Second derivative matrix not updated -- analytic derivatives used.
 ITU=  0
     Eigenvalues ---    0.00137   0.00204   0.00282   0.03728   0.03937
     Eigenvalues ---    0.03937   0.04464   0.04510   0.04574   0.04593
     Eigenvalues ---    0.05120   0.10979   0.11407   0.11899   0.12337
     Eigenvalues ---    0.13827   0.14188   0.14943   0.15899   0.17893
     Eigenvalues ---    0.21680   0.27864   0.29119   0.30646   0.31417
     Eigenvalues ---    0.33601   0.33697   0.33854   0.33998   0.34088
     Eigenvalues ---    0.34648   0.34747   0.92480
 Angle between quadratic step and forces=  74.49 degrees.
 Linear search not attempted -- option 19 set.
 Iteration  1 RMS(Cart)=  0.00000162 RMS(Int)=  0.00000000
 Iteration  2 RMS(Cart)=  0.00000000 RMS(Int)=  0.00000000
 Variable       Old X    -DE/DX   Delta X   Delta X   Delta X     New X
                                 (Linear)    (Quad)   (Total)
    R1        2.89062   0.00000   0.00000   0.00000   0.00000   2.89061
    R2        2.89061   0.00000   0.00000   0.00000   0.00000   2.89061
    R3        2.84687   0.00000   0.00000   0.00000   0.00000   2.84687
    R4        2.06022   0.00000   0.00000   0.00000   0.00000   2.06022
    R5        2.06361   0.00000   0.00000   0.00000   0.00000   2.06361
    R6        2.05899   0.00000   0.00000   0.00000   0.00000   2.05899
    R7        2.05852   0.00000   0.00000   0.00000   0.00000   2.05852
    R8        2.05899   0.00000   0.00000   0.00000   0.00000   2.05899
    R9        2.06361   0.00000   0.00000   0.00000   0.00000   2.06361
   R10        2.05852   0.00000   0.00000   0.00000   0.00000   2.05852
   R11        2.26429   0.00000   0.00000   0.00000   0.00000   2.26429
   R12        2.10121   0.00000   0.00000   0.00000   0.00000   2.10121
    A1        1.93789   0.00000   0.00000   0.00000   0.00000   1.93789
    A2        1.89988   0.00000   0.00000   0.00000   0.00000   1.89988
    A3        1.92588   0.00000   0.00000   0.00000   0.00000   1.92588
    A4        1.89988   0.00000   0.00000   0.00000   0.00000   1.89988
    A5        1.92588   0.00000   0.00000   0.00000   0.00000   1.92588
    A6        1.87289   0.00000   0.00000   0.00000   0.00000   1.87288
    A7        1.93001   0.00000   0.00000   0.00000   0.00000   1.93001
    A8        1.92326   0.00000   0.00000   0.00000   0.00000   1.92326
    A9        1.94694   0.00000   0.00000   0.00000   0.00000   1.94694
   A10        1.88043   0.00000   0.00000   0.00000   0.00000   1.88043
   A11        1.88952   0.00000   0.00000   0.00000   0.00000   1.88952
   A12        1.89185   0.00000   0.00000   0.00000   0.00000   1.89185
   A13        1.92326   0.00000   0.00000   0.00000   0.00000   1.92326
   A14        1.93001   0.00000   0.00000   0.00000   0.00000   1.93001
   A15        1.94694   0.00000   0.00000   0.00000   0.00000   1.94694
   A16        1.88043   0.00000   0.00000   0.00000   0.00000   1.88043
   A17        1.89185   0.00000   0.00000   0.00000   0.00000   1.89185
   A18        1.88952   0.00000   0.00000   0.00000   0.00000   1.88952
   A19        2.18845   0.00000   0.00000   0.00000   0.00000   2.18845
   A20        1.99446   0.00000   0.00000   0.00000   0.00000   1.99446
   A21        2.10027   0.00000   0.00000   0.00000   0.00000   2.10027
    D1       -1.05923   0.00000   0.00000   0.00000   0.00000  -1.05923
    D2        1.01784   0.00000   0.00000   0.00000   0.00000   1.01783
    D3        3.12008   0.00000   0.00000   0.00000   0.00000   3.12008
    D4        1.03194   0.00000   0.00000   0.00000   0.00000   1.03194
    D5        3.10900   0.00000   0.00000   0.00000   0.00000   3.10900
    D6       -1.07194   0.00000   0.00000   0.00000   0.00000  -1.07194
    D7        3.08291   0.00000   0.00000   0.00000   0.00000   3.08290
    D8       -1.12322   0.00000   0.00000   0.00000   0.00000  -1.12322
    D9        0.97903   0.00000   0.00000   0.00000   0.00000   0.97903
   D10       -1.01783   0.00000   0.00000   0.00000   0.00000  -1.01783
   D11        1.05923   0.00000   0.00000   0.00000   0.00000   1.05923
   D12       -3.12008   0.00000   0.00000   0.00000   0.00000  -3.12008
   D13       -3.10900   0.00000   0.00000   0.00000   0.00000  -3.10900
   D14       -1.03194   0.00000   0.00000   0.00000   0.00000  -1.03193
   D15        1.07194   0.00000   0.00000   0.00000   0.00000   1.07194
   D16        1.12322   0.00000   0.00000   0.00000   0.00000   1.12322
   D17       -3.08290   0.00000   0.00000   0.00000   0.00000  -3.08290
   D18       -0.97903   0.00000   0.00000   0.00000   0.00000  -0.97903
   D19        2.08429   0.00000   0.00000   0.00000   0.00000   2.08429
   D20       -1.05730   0.00000   0.00000   0.00000   0.00000  -1.05730
   D21       -2.08430   0.00000   0.00000   0.00000   0.00000  -2.08430
   D22        1.05729   0.00000   0.00000   0.00000   0.00000   1.05729
   D23       -0.00001   0.00000   0.00000   0.00000   0.00000   0.00000
   D24        3.14159   0.00000   0.00000   0.00000   0.00000   3.14159
         Item               Value     Threshold  Converged?
 Maximum Force            0.000001     0.000002     YES
 RMS     Force            0.000000     0.000001     YES
 Maximum Displacement     0.000007     0.000006     NO 
 RMS     Displacement     0.000002     0.000004     YES
 Predicted change in Energy=-1.240790D-12
 GradGradGradGradGradGradGradGradGradGradGradGradGradGradGradGradGradGrad


 Test job not archived.
 1\1\GINC-COMPUTE-3-045\Freq\RM062X\6-311+G(2df,2p)\C4H8O1\ROOT\17-Feb-
 2017\0\\#N Geom=AllCheck Guess=TCheck SCRF=Check Test GenChk RM062X/6-
 311+G(2df,2p) Freq\\InChI=1S/C4H8O/c1-4(2)3-5/h3-4H,1-2H3\\0,1\C,0.088
 4303455,0.1993717786,-0.3917441978\C,1.2250619431,-0.6476538888,0.1830
 934392\C,-1.2431461894,-0.5504348277,-0.3245461665\C,-0.0266670077,1.4
 689596459,0.4110216919\H,0.3111730875,0.4848928386,-1.4200651649\H,1.0
 338522532,-0.8860077817,1.231481808\H,1.3061664716,-1.5877739645,-0.36
 16663758\H,2.1814183821,-0.1299900076,0.1196600336\H,-1.1737153684,-1.
 4900956166,-0.8717060456\H,-1.499120447,-0.7862368513,0.7105221846\H,-
 2.055086231,0.0368789163,-0.7516682494\O,0.1061087449,2.5782427304,-0.
 0220720921\H,-0.2543759781,1.3099470281,1.4876891362\\Version=EM64L-G0
 9RevB.01\State=1-A\HF=-232.4259451\RMSD=4.046e-09\RMSF=2.398e-06\ZeroP
 oint=0.1132152\Thermal=0.1195331\Dipole=-0.0825184,-1.1702023,0.177079
 7\DipoleDeriv=0.1042641,0.018799,0.0255415,-0.0048713,-0.2456971,-0.04
 41842,0.0210214,-0.159295,-0.0238751,0.0285712,-0.0249937,-0.0280862,-
 0.0015895,0.0217875,-0.0083502,-0.0016112,-0.0772725,0.0599061,0.02704
 89,0.0528957,0.0123169,0.0046313,0.0184453,-0.008662,-0.0189145,-0.060
 6554,0.0647144,0.0814715,0.0425863,-0.1503757,0.0786713,1.3871015,-0.1
 261352,-0.1434729,0.0492863,0.7558398,-0.0012323,-0.0047234,0.0176117,
 -0.0090126,0.0042047,0.0441471,0.0167879,0.0232619,-0.0746124,0.034663
 6,-0.0094542,0.0653027,0.0159688,0.06163,0.0187791,0.0068923,0.0552888
 ,-0.0997401,0.0561264,0.0180515,-0.0121505,0.0373712,-0.0816201,-0.058
 7708,-0.00227,-0.0730777,0.0217174,-0.0948579,-0.0363484,-0.0124911,-0
 .075051,0.0254392,0.012591,-0.0016275,0.017747,0.0665682,0.0448828,0.0
 024561,0.0171816,-0.0207698,-0.0786617,-0.0719808,0.0065514,-0.0766961
 ,0.0300351,0.0373583,-0.0112583,-0.00457,-0.0211337,0.0631559,0.013921
 4,0.0568103,0.0529937,-0.103957,-0.0674009,0.0341125,-0.0445364,0.0718
 653,0.0168247,0.0442865,-0.0555749,0.034592,0.0477221,-0.312546,-0.071
 3496,0.0509625,-0.0615482,-1.1792616,0.1306443,0.0528469,0.1783587,-0.
 5219949,0.0616503,-0.0107734,0.063293,-0.0145319,-0.0133483,0.0537137,
 0.0625609,0.0354682,-0.2223237\Polar=48.9473875,0.5587384,58.0079506,0
 .273303,-0.9928314,47.459985\PG=C01 [X(C4H8O1)]\NImag=0\\0.44217874,0.
 00883653,0.48495062,-0.03819399,-0.03319964,0.61331974,-0.13309951,0.0
 4165811,-0.03123491,0.52300310,0.05491844,-0.10836474,0.02676474,0.048
 24943,0.54259363,-0.02557971,0.02007918,-0.09905768,-0.03216654,0.0253
 1913,0.54873579,-0.15624912,-0.04273210,0.00952869,-0.03374911,-0.0131
 3509,-0.00172819,0.49571327,-0.05746280,-0.10057845,0.00185784,0.01785
 601,0.01042256,0.00025563,-0.05097692,0.55045247,0.00359259,0.00138534
 ,-0.08369467,-0.01314637,-0.00566860,0.00027015,0.01226492,0.00294116,
 0.56816808,-0.08353013,0.01037722,0.01136715,-0.00443513,0.02686344,0.
 01457343,0.00080565,-0.03126024,-0.01862799,0.24398053,0.00962676,-0.1
 3218382,-0.05649365,0.01315957,-0.02562791,-0.00129304,-0.01349615,-0.
 02229867,-0.00542716,0.06528450,0.94216227,0.01122360,-0.06014270,-0.1
 4768853,0.00206072,0.01232263,0.01135455,-0.00533818,0.00070214,0.0027
 8256,-0.08917576,-0.17968466,0.62222444,-0.05901020,-0.01336832,0.0513
 9558,0.00413374,0.00672782,-0.02513513,-0.00755669,-0.00734258,0.02731
 554,-0.00099304,-0.00090716,0.00333939,0.06782810,-0.01429714,-0.06582
 084,0.06608482,-0.00303912,-0.00504519,0.01811837,-0.00417825,-0.00442
 789,0.01572345,0.00667225,0.00554699,-0.03132700,0.01461097,0.07177251
 ,0.05121738,0.06156813,-0.28514774,0.00096613,0.00234429,-0.00907185,-
 0.00004985,-0.00060427,0.00200121,0.00479092,0.00552456,-0.02250662,-0
 .05462235,-0.06802308,0.30857118,0.00403382,0.00469870,-0.02508509,-0.
 05724963,-0.01127819,0.04753643,0.00206677,0.00029253,-0.00091881,0.00
 104039,-0.00013756,-0.00093556,-0.00360544,0.00304044,-0.00149673,0.05
 984284,-0.00335211,-0.00578395,0.01892701,-0.01084197,-0.05891110,0.05
 299585,-0.00089692,0.00036775,-0.00063878,-0.00131590,0.00017613,0.003
 00627,0.00332537,-0.00165870,0.00073120,0.00877172,0.06194297,0.000924
 00,0.00433023,-0.01278243,0.04764306,0.05276251,-0.28799071,0.00085974
 ,-0.00033324,0.00053010,0.00052126,-0.00189544,-0.00054916,-0.00213502
 ,0.00106407,0.00058668,-0.05006857,-0.06059416,0.31408067,-0.00560304,
 0.02275920,0.01357664,-0.04607237,0.01351561,0.00984300,0.00206356,0.0
 0073456,0.00116198,-0.00436745,0.00014203,-0.00429023,0.00083808,-0.00
 077649,-0.00005791,-0.00149958,0.00536620,0.00306167,0.04979158,0.0036
 0014,-0.01726068,-0.00951074,0.01389583,-0.24239571,-0.11790877,-0.001
 52638,0.00138518,-0.00011211,0.00231863,0.00073300,0.00436073,-0.00046
 783,0.00020659,0.00017915,-0.00069343,0.00742410,0.00424889,-0.0185800
 6,0.26288804,-0.00383745,0.01399149,0.00704963,0.01052011,-0.11761041,
 -0.11430637,0.00096737,0.00016385,0.00024686,-0.00241389,-0.00077152,-
 0.00204712,0.00080543,-0.00024048,0.00044033,0.00149035,-0.02738535,-0
 .01495233,-0.00845990,0.12705761,0.12158749,-0.01886647,-0.01032417,0.
 00294650,-0.25184068,-0.11362201,0.01486316,-0.00298639,0.00422852,-0.
 00233796,-0.00071407,-0.00256225,-0.00004626,0.00085072,-0.00016833,-0
 .00020952,-0.00397635,-0.00192437,0.00022522,0.00316828,0.00160136,-0.
 00040388,0.27481706,0.01779807,0.00958383,-0.00251130,-0.11456383,-0.1
 1160372,0.00823501,0.00275153,-0.00248867,0.00137287,0.00071633,0.0015
 9981,-0.00046105,-0.00091565,0.00074265,-0.00024123,-0.00441390,-0.003
 86232,-0.00034184,-0.02421812,-0.01245662,0.00343255,0.12208570,0.1174
 8066,-0.01081387,-0.00710989,-0.00005048,0.01566225,0.00815958,-0.0497
 8227,-0.00190624,0.00193262,-0.00061549,0.00056354,-0.00029677,0.00030
 283,0.00024470,-0.00064165,0.00015535,0.02764230,0.01536510,-0.0004115
 7,-0.01544728,-0.00745280,0.00094529,-0.01490584,-0.01006761,0.0488490
 4,-0.00214449,-0.02730619,-0.01779521,0.00259935,-0.00082932,-0.000144
 59,-0.04532709,0.01899839,0.00976456,-0.00667472,0.00069391,0.00263834
 ,0.00113037,0.00073296,0.00035595,-0.00004157,0.00012075,-0.00005823,-
 0.00038764,0.00079750,0.00023798,0.00033430,0.00011489,0.00034304,0.05
 105853,-0.00070990,-0.01512385,-0.00913353,0.00135436,0.00133236,0.000
 53594,0.01877766,-0.24280507,-0.11689592,-0.00330010,0.00093791,0.0029
 1383,0.00029743,0.00011649,0.00032258,-0.00013023,-0.00000838,0.000050
 01,-0.00063791,0.00065352,-0.00034497,0.00007551,0.00015527,0.00037222
 ,-0.01694156,0.26275658,0.00104286,0.00353048,0.00145481,0.00003531,-0
 .00011689,-0.00023660,0.00911809,-0.11642118,-0.11464246,0.00041368,-0
 .00078708,0.00005704,-0.00053166,0.00012497,0.00023808,0.00003391,-0.0
 0013106,-0.00009857,-0.00044992,-0.00002256,0.00006749,-0.00000084,0.0
 0027060,0.00003581,-0.01109092,0.12750801,0.12045116,-0.00813932,-0.00
 629604,0.02865580,0.00186770,-0.00027318,0.00144164,-0.06035065,-0.011
 23582,0.05477538,0.00070641,0.00080870,0.00170422,-0.00474767,-0.00296
 934,-0.00068541,-0.00039430,0.00020032,-0.00075779,-0.00005595,0.00010
 402,-0.00002798,0.00029152,0.00001515,-0.00038683,-0.00152963,-0.00039
 624,0.00202796,0.06558069,-0.00424621,-0.00529677,0.01652786,0.0009679
 0,0.00031672,-0.00034982,-0.01172734,-0.05887266,0.05250351,-0.0000174
 0,0.00008830,0.00316684,-0.00310990,-0.00116672,-0.00063365,-0.0000343
 4,0.00046945,-0.00023171,-0.00005680,-0.00001051,-0.00016518,0.0000882
 9,-0.00014932,-0.00011510,0.00652569,0.00736648,-0.02716847,0.01657885
 ,0.06131894,0.00149756,0.00194790,-0.00109662,-0.00032672,-0.00040416,
 0.00078011,0.05465861,0.05246860,-0.28492868,-0.00013620,-0.00167716,-
 0.00012753,-0.00001952,-0.00026458,0.00123705,0.00049548,-0.00023277,0
 .00016853,0.00008141,0.00009234,-0.00008223,0.00001407,-0.00007078,0.0
 0027912,0.00294269,0.00431512,-0.01486450,-0.06191071,-0.05847541,0.30
 896720,-0.01885288,0.01462617,-0.01145314,-0.00472834,-0.00449098,0.00
 075550,-0.19336064,0.10855633,-0.07754090,-0.00020625,0.00261194,-0.00
 025359,0.00085608,0.00039219,0.00048281,0.00015094,-0.00005716,-0.0000
 7398,0.00037817,-0.00023617,0.00017379,-0.00123898,0.00109487,-0.00085
 551,-0.00130442,0.00063442,-0.00029119,0.00662818,-0.00514336,0.002852
 90,0.21179061,-0.01324302,0.00982353,-0.00832838,-0.00290625,-0.001919
 69,0.00007306,0.10940436,-0.12926718,0.05841208,-0.00032672,0.00143639
 ,-0.00066359,0.00092812,0.00064788,0.00011087,-0.00001369,-0.00014230,
 -0.00007419,-0.00022686,0.00018107,0.00019387,-0.00091247,0.00084731,-
 0.00021585,0.01983870,-0.01414681,0.01245318,0.00375934,-0.00407397,0.
 00132177,-0.11665757,0.13638561,0.00235595,-0.00249676,-0.00030399,0.0
 0034399,0.00003649,0.00055756,-0.07835844,0.05803227,-0.09059841,-0.00
 079879,0.00082518,-0.00004129,-0.00001184,-0.00051621,0.00024472,0.000
 32141,-0.00017403,0.00041248,-0.00016070,0.00032818,-0.00003382,0.0000
 8477,0.00016005,0.00054680,0.01348547,-0.00882739,0.00710839,-0.023335
 76,0.01679692,-0.01080451,0.08587354,-0.06365052,0.09297003,0.02426458
 ,-0.00113552,0.00070011,-0.00124719,-0.00363724,-0.00328100,-0.0015038
 3,0.00471006,0.00242919,-0.07541096,-0.07617638,0.03814808,-0.00097397
 ,-0.00043225,-0.00113648,-0.00021006,0.00036838,-0.00018013,0.00129861
 ,-0.00037581,0.00062578,0.00043520,-0.00043958,0.00001130,0.00147541,0
 .00042549,-0.00006581,0.00001501,0.00011079,0.00005567,0.00017481,0.00
 028228,0.00013904,0.03382305,-0.00586144,-0.05690510,0.01291552,-0.004
 87926,-0.00266046,-0.00559213,0.00661653,-0.00344044,-0.00345336,-0.07
 503309,-0.71739676,0.23977345,-0.00010160,0.00301083,0.00129892,-0.000
 15219,0.00024264,0.00039172,0.00233091,-0.00145717,0.00137443,0.001280
 18,0.00018345,0.00001161,-0.00290237,-0.00128410,0.00032607,0.00001432
 ,0.00024582,0.00041817,-0.00118756,0.00025265,-0.00050312,0.08764388,0
 .79701753,-0.00020519,-0.01006126,0.02352357,-0.00000360,-0.00378152,-
 0.00079870,-0.00072087,-0.00203920,0.00023828,0.03836726,0.24533210,-0
 .20411683,-0.00107324,0.00290637,0.00458389,0.00052842,-0.00109484,0.0
 0037371,0.00071008,-0.00076050,0.00042150,-0.00027524,0.00030377,-0.00
 018467,-0.00026930,-0.00055518,0.00007071,-0.00077078,-0.00109488,0.00
 014572,0.00047338,0.00042073,0.00000654,-0.04559920,-0.27749211,0.1895
 4718,0.01501802,-0.00179360,0.00559186,0.00081807,-0.00300874,-0.00097
 800,0.00043427,0.00290195,0.00126787,-0.07020122,0.00095209,0.04092523
 ,0.00124992,0.00041210,0.00044506,-0.00015783,0.00023570,0.00003877,0.
 00044775,-0.00043780,0.00032229,-0.00027415,-0.00002546,-0.00015156,0.
 00081159,0.00055108,-0.00024150,0.00012800,0.00006384,-0.00020524,-0.0
 0028729,0.00007377,0.00006136,0.01785933,-0.00776831,0.00883829,0.0341
 5356,0.00439268,0.00296023,-0.02390054,-0.00091078,0.00186325,-0.00046
 839,0.00111906,0.00155107,-0.00014248,-0.00097893,-0.05517363,0.006033
 11,0.00032332,-0.00392461,-0.00257746,0.00005014,-0.00025628,0.0006231
 5,-0.00035227,0.00010919,0.00030411,0.00015403,-0.00003231,0.00005854,
 0.00015665,0.00004962,0.00043393,-0.00031007,-0.00023577,0.00056096,-0
 .00014311,-0.00002449,-0.00001108,-0.01134410,-0.01780889,0.04791652,0
 .00784338,0.07092261,0.00677627,0.00617749,-0.01552561,-0.00035343,-0.
 00012778,-0.00045398,0.00070434,0.00104378,0.00024246,0.04055538,-0.00
 335536,-0.25964433,0.00042812,-0.00300905,-0.00133229,0.00045647,-0.00
 077445,0.00063260,0.00043116,-0.00049943,0.00066328,0.00004583,-0.0000
 8103,-0.00006976,-0.00040979,-0.00026072,0.00035863,-0.00072975,-0.000
 76091,0.00032632,-0.00014361,-0.00005303,-0.00006450,0.00815346,0.0305
 3085,-0.01381091,-0.05591445,-0.02883038,0.28867810\\0.00000003,-0.000
 00094,-0.00000052,-0.00000019,-0.00000030,0.00000175,-0.00000052,-0.00
 000029,0.00000167,0.00000088,0.00000031,-0.00000413,0.00000014,-0.0000
 0443,-0.00000153,-0.00000040,0.00000293,0.00000247,-0.00000102,-0.0000
 0173,0.00000449,0.00000006,-0.00000090,0.00000013,-0.00000097,-0.00000
 174,0.00000451,-0.00000039,0.00000293,0.00000248,-0.00000017,-0.000000
 89,0.00000008,0.00000159,0.00000047,-0.00000762,0.00000095,0.00000458,
 -0.00000377\\\@


 IF YOU'RE NOT PART OF THE SOLUTION,
 THEN YOU'RE PART OF THE PRECIPITATE.
 Job cpu time:  0 days  1 hours 16 minutes 20.1 seconds.
 File lengths (MBytes):  RWF=   1312 Int=      0 D2E=      0 Chk=     32 Scr=     32
 Normal termination of Gaussian 09 at Fri Feb 17 00:51:24 2017.
