 Entering Gaussian System, Link 0=/shared/apps/gaussian/G09_LINUX_LINDA/g09/g09
 Input=/gss_gpfs_scratch/westgroup/QMscratch/ANSFBARPVZWVPJ-UHFFFAOYSA-u2.gjf
 Output=/gss_gpfs_scratch/westgroup/QMscratch/ANSFBARPVZWVPJ-UHFFFAOYSA-u2.log
 Initial command:
 /shared/apps/gaussian/G09_LINUX_LINDA/g09/l1.exe /gss_gpfs_scratch/westgroup/rwest-autotst-1/Gau-11667.inp -scrdir=/gss_gpfs_scratch/westgroup/rwest-autotst-1/
 Entering Link 1 = /shared/apps/gaussian/G09_LINUX_LINDA/g09/l1.exe PID=     11668.
  
 Copyright (c) 1988,1990,1992,1993,1995,1998,2003,2009,2010,
            Gaussian, Inc.  All Rights Reserved.
  
 This is part of the Gaussian(R) 09 program.  It is based on
 the Gaussian(R) 03 system (copyright 2003, Gaussian, Inc.),
 the Gaussian(R) 98 system (copyright 1998, Gaussian, Inc.),
 the Gaussian(R) 94 system (copyright 1995, Gaussian, Inc.),
 the Gaussian 92(TM) system (copyright 1992, Gaussian, Inc.),
 the Gaussian 90(TM) system (copyright 1990, Gaussian, Inc.),
 the Gaussian 88(TM) system (copyright 1988, Gaussian, Inc.),
 the Gaussian 86(TM) system (copyright 1986, Carnegie Mellon
 University), and the Gaussian 82(TM) system (copyright 1983,
 Carnegie Mellon University). Gaussian is a federally registered
 trademark of Gaussian, Inc.
  
 This software contains proprietary and confidential information,
 including trade secrets, belonging to Gaussian, Inc.
  
 This software is provided under written license and may be
 used, copied, transmitted, or stored only in accord with that
 written license.
  
 The following legend is applicable only to US Government
 contracts under FAR:
  
                    RESTRICTED RIGHTS LEGEND
  
 Use, reproduction and disclosure by the US Government is
 subject to restrictions as set forth in subparagraphs (a)
 and (c) of the Commercial Computer Software - Restricted
 Rights clause in FAR 52.227-19.
  
 Gaussian, Inc.
 340 Quinnipiac St., Bldg. 40, Wallingford CT 06492
  
  
 ---------------------------------------------------------------
 Warning -- This program may not be used in any manner that
 competes with the business of Gaussian, Inc. or will provide
 assistance to any competitor of Gaussian, Inc.  The licensee
 of this program is prohibited from giving any competitor of
 Gaussian, Inc. access to this program.  By using this program,
 the user acknowledges that Gaussian, Inc. is engaged in the
 business of creating and licensing software in the field of
 computational chemistry and represents and warrants to the
 licensee that it is not a competitor of Gaussian, Inc. and that
 it will not use this program in any manner prohibited above.
 ---------------------------------------------------------------
  

 Cite this work as:
 Gaussian 09, Revision B.01,
 M. J. Frisch, G. W. Trucks, H. B. Schlegel, G. E. Scuseria, 
 M. A. Robb, J. R. Cheeseman, G. Scalmani, V. Barone, B. Mennucci, 
 G. A. Petersson, H. Nakatsuji, M. Caricato, X. Li, H. P. Hratchian, 
 A. F. Izmaylov, J. Bloino, G. Zheng, J. L. Sonnenberg, M. Hada, 
 M. Ehara, K. Toyota, R. Fukuda, J. Hasegawa, M. Ishida, T. Nakajima, 
 Y. Honda, O. Kitao, H. Nakai, T. Vreven, J. A. Montgomery, Jr., 
 J. E. Peralta, F. Ogliaro, M. Bearpark, J. J. Heyd, E. Brothers, 
 K. N. Kudin, V. N. Staroverov, T. Keith, R. Kobayashi, J. Normand, 
 K. Raghavachari, A. Rendell, J. C. Burant, S. S. Iyengar, J. Tomasi, 
 M. Cossi, N. Rega, J. M. Millam, M. Klene, J. E. Knox, J. B. Cross, 
 V. Bakken, C. Adamo, J. Jaramillo, R. Gomperts, R. E. Stratmann, 
 O. Yazyev, A. J. Austin, R. Cammi, C. Pomelli, J. W. Ochterski, 
 R. L. Martin, K. Morokuma, V. G. Zakrzewski, G. A. Voth, 
 P. Salvador, J. J. Dannenberg, S. Dapprich, A. D. Daniels, 
 O. Farkas, J. B. Foresman, J. V. Ortiz, J. Cioslowski, 
 and D. J. Fox, Gaussian, Inc., Wallingford CT, 2010.
 
 ******************************************
 Gaussian 09:  EM64L-G09RevB.01 12-Aug-2010
                 7-Mar-2017 
 ******************************************
 %nprocshared=20
 Will use up to   20 processors via shared memory.
 %mem=5GB
 --------------------------------------------------------------
 # m062x/6-311+g(2df,2p) opt=(verytight,gdiis) freq IOP(2/16=3)
 --------------------------------------------------------------

 Warning!  Use of Opt=GDIIS is deprecated since it is seldom a good choice.

 1/7=1,14=-1,18=20,19=11,26=3,38=1/1,3;
 2/9=110,12=2,16=3,17=6,18=5,40=1/2;
 3/5=4,6=6,7=214,11=2,16=1,25=1,30=1,71=1,74=-55/1,2,3;
 4//1;
 5/5=2,38=5/2;
 6/7=2,8=2,9=2,10=2,28=1/1;
 7//1,2,3,16;
 1/7=1,14=-1,18=20,19=11/3(2);
 2/9=110,16=3/2;
 99//99;
 2/9=110,16=3/2;
 3/5=4,6=6,7=214,11=2,16=1,25=1,30=1,71=1,74=-55/1,2,3;
 4/5=5,16=3/1;
 5/5=2,38=5/2;
 7//1,2,3,16;
 1/7=1,14=-1,18=20,19=11/3(-5);
 2/9=110,16=3/2;
 6/7=2,8=2,9=2,10=2,19=2,28=1/1;
 99/9=1/99;
 ------------------------------------------
 InChI=1S/C5H7O/c1-3-5(6)4-2/h3H,1-2,4H2/u2
 ------------------------------------------
 Symbolic Z-matrix:
 Charge =  0 Multiplicity = 2
 C                     1.3213   -0.3206   -0.4056 
 C                    -0.0436    0.2025   -0.7391 
 C                    -1.2249   -0.2865   -0.0008 
 C                     1.7219    0.0901    1.0042 
 C                    -2.4574    0.1499   -0.2537 
 H                     1.3178   -1.4288   -0.4811 
 H                     2.0709    0.075    -1.1253 
 O                    -0.1715    1.052    -1.6627 
 H                    -1.0856   -1.0283    0.7763 
 H                     1.7889    1.1964    1.0815 
 H                     2.7058   -0.3543    1.2637 
 H                    -2.65      0.8906   -1.0194 
 H                    -3.2936   -0.2378    0.3138 
 

 GradGradGradGradGradGradGradGradGradGradGradGradGradGradGradGradGradGrad
 Berny optimization.
 Initialization pass.
                           ----------------------------
                           !    Initial Parameters    !
                           ! (Angstroms and Degrees)  !
 --------------------------                            --------------------------
 ! Name  Definition              Value          Derivative Info.                !
 --------------------------------------------------------------------------------
 ! R1    R(1,2)                  1.4993         estimate D2E/DX2                !
 ! R2    R(1,4)                  1.5221         estimate D2E/DX2                !
 ! R3    R(1,6)                  1.1108         estimate D2E/DX2                !
 ! R4    R(1,7)                  1.1119         estimate D2E/DX2                !
 ! R5    R(2,3)                  1.4764         estimate D2E/DX2                !
 ! R6    R(2,8)                  1.2614         estimate D2E/DX2                !
 ! R7    R(3,5)                  1.3317         estimate D2E/DX2                !
 ! R8    R(3,9)                  1.0833         estimate D2E/DX2                !
 ! R9    R(4,10)                 1.111          estimate D2E/DX2                !
 ! R10   R(4,11)                 1.1104         estimate D2E/DX2                !
 ! R11   R(5,12)                 1.0826         estimate D2E/DX2                !
 ! R12   R(5,13)                 1.0824         estimate D2E/DX2                !
 ! A1    A(2,1,4)              110.5788         estimate D2E/DX2                !
 ! A2    A(2,1,6)              109.2752         estimate D2E/DX2                !
 ! A3    A(2,1,7)              110.2196         estimate D2E/DX2                !
 ! A4    A(4,1,6)              109.4504         estimate D2E/DX2                !
 ! A5    A(4,1,7)              109.0312         estimate D2E/DX2                !
 ! A6    A(6,1,7)              108.2453         estimate D2E/DX2                !
 ! A7    A(1,2,3)              120.1076         estimate D2E/DX2                !
 ! A8    A(1,2,8)              119.3514         estimate D2E/DX2                !
 ! A9    A(3,2,8)              120.5375         estimate D2E/DX2                !
 ! A10   A(2,3,5)              122.481          estimate D2E/DX2                !
 ! A11   A(2,3,9)              118.858          estimate D2E/DX2                !
 ! A12   A(5,3,9)              118.6611         estimate D2E/DX2                !
 ! A13   A(1,4,10)             110.4262         estimate D2E/DX2                !
 ! A14   A(1,4,11)             109.9802         estimate D2E/DX2                !
 ! A15   A(10,4,11)            109.198          estimate D2E/DX2                !
 ! A16   A(3,5,12)             121.5453         estimate D2E/DX2                !
 ! A17   A(3,5,13)             119.8706         estimate D2E/DX2                !
 ! A18   A(12,5,13)            118.5841         estimate D2E/DX2                !
 ! D1    D(4,1,2,3)            -65.2125         estimate D2E/DX2                !
 ! D2    D(4,1,2,8)            115.4676         estimate D2E/DX2                !
 ! D3    D(6,1,2,3)             55.3255         estimate D2E/DX2                !
 ! D4    D(6,1,2,8)           -123.9943         estimate D2E/DX2                !
 ! D5    D(7,1,2,3)            174.1589         estimate D2E/DX2                !
 ! D6    D(7,1,2,8)             -5.1609         estimate D2E/DX2                !
 ! D7    D(2,1,4,10)           -62.8959         estimate D2E/DX2                !
 ! D8    D(2,1,4,11)           176.5219         estimate D2E/DX2                !
 ! D9    D(6,1,4,10)           176.6706         estimate D2E/DX2                !
 ! D10   D(6,1,4,11)            56.0884         estimate D2E/DX2                !
 ! D11   D(7,1,4,10)            58.4384         estimate D2E/DX2                !
 ! D12   D(7,1,4,11)           -62.1438         estimate D2E/DX2                !
 ! D13   D(1,2,3,5)            179.6906         estimate D2E/DX2                !
 ! D14   D(1,2,3,9)             -0.3095         estimate D2E/DX2                !
 ! D15   D(8,2,3,5)             -0.9978         estimate D2E/DX2                !
 ! D16   D(8,2,3,9)            179.0022         estimate D2E/DX2                !
 ! D17   D(2,3,5,12)            -0.0314         estimate D2E/DX2                !
 ! D18   D(2,3,5,13)           179.9986         estimate D2E/DX2                !
 ! D19   D(9,3,5,12)           179.9687         estimate D2E/DX2                !
 ! D20   D(9,3,5,13)            -0.0014         estimate D2E/DX2                !
 --------------------------------------------------------------------------------
 Trust Radius=3.00D-01 FncErr=1.00D-07 GrdErr=1.00D-06
 Number of steps in this run=     60 maximum allowed number of steps=    100.
 GradGradGradGradGradGradGradGradGradGradGradGradGradGradGradGradGradGrad

                          Input orientation:                          
 ---------------------------------------------------------------------
 Center     Atomic      Atomic             Coordinates (Angstroms)
 Number     Number       Type             X           Y           Z
 ---------------------------------------------------------------------
      1          6           0        1.321300   -0.320600   -0.405600
      2          6           0       -0.043600    0.202500   -0.739100
      3          6           0       -1.224900   -0.286500   -0.000800
      4          6           0        1.721900    0.090100    1.004200
      5          6           0       -2.457400    0.149900   -0.253700
      6          1           0        1.317800   -1.428800   -0.481100
      7          1           0        2.070900    0.075000   -1.125300
      8          8           0       -0.171500    1.052000   -1.662700
      9          1           0       -1.085600   -1.028300    0.776300
     10          1           0        1.788900    1.196400    1.081500
     11          1           0        2.705800   -0.354300    1.263700
     12          1           0       -2.650000    0.890600   -1.019400
     13          1           0       -3.293600   -0.237800    0.313800
 ---------------------------------------------------------------------
                    Distance matrix (angstroms):
                    1          2          3          4          5
     1  C    0.000000
     2  C    1.499269   0.000000
     3  C    2.578403   1.476373   0.000000
     4  C    1.522068   2.483691   3.136157   0.000000
     5  C    3.810908   2.462684   1.331713   4.364910   0.000000
     6  H    1.110774   2.140354   2.828579   2.162515   4.098309
     7  H    1.111921   2.153257   3.501068   2.157962   4.612027
     8  O    2.385955   1.261367   2.379736   3.409189   2.832738
     9  H    2.773246   2.212932   1.083308   3.030646   2.081079
    10  H    2.175179   2.767757   3.528931   1.111019   4.572634
    11  H    2.168995   3.446801   4.129644   1.110356   5.405123
    12  H    4.197020   2.710234   2.110455   4.883571   1.082602
    13  H    4.671370   3.444555   2.093051   5.073402   1.082404
                    6          7          8          9         10
     6  H    0.000000
     7  H    1.800991   0.000000
     8  O    3.125470   2.504333   0.000000
     9  H    2.741858   3.846667   3.333459   0.000000
    10  H    3.091170   2.491391   3.375597   3.647628   0.000000
    11  H    2.474959   2.508928   4.338243   3.881565   1.810683
    12  H    4.627399   4.792005   2.565706   3.058441   4.920480
    13  H    4.828598   5.562977   3.913776   2.390410   5.336488
                   11         12         13
    11  H    0.000000
    12  H    5.953731   0.000000
    13  H    6.075252   1.861432   0.000000
 Stoichiometry    C5H7O(2)
 Framework group  C1[X(C5H7O)]
 Deg. of freedom    33
 Full point group                 C1      NOp   1
 Largest Abelian subgroup         C1      NOp   1
 Largest concise Abelian subgroup C1      NOp   1
                         Standard orientation:                         
 ---------------------------------------------------------------------
 Center     Atomic      Atomic             Coordinates (Angstroms)
 Number     Number       Type             X           Y           Z
 ---------------------------------------------------------------------
      1          6           0       -1.406197    0.146145    0.501344
      2          6           0        0.026602    0.393420    0.135625
      3          6           0        1.007065   -0.708747    0.195593
      4          6           0       -2.052219   -0.815071   -0.486284
      5          6           0        2.289178   -0.543580   -0.124352
      6          1           0       -1.454407   -0.285980    1.523481
      7          1           0       -1.973565    1.102420    0.500550
      8          8           0        0.385372    1.552275   -0.209896
      9          1           0        0.672574   -1.689474    0.511580
     10          1           0       -2.066609   -0.372449   -1.505225
     11          1           0       -3.092883   -1.040136   -0.171236
     12          1           0        2.673499    0.415891   -0.446442
     13          1           0        2.971843   -1.381467   -0.065096
 ---------------------------------------------------------------------
 Rotational constants (GHZ):      6.4498933      2.5139483      1.9912695
 Standard basis: 6-311+G(2df,2p) (5D, 7F)
 There are   267 symmetry adapted basis functions of A   symmetry.
 Integral buffers will be    131072 words long.
 Raffenetti 2 integral format.
 Two-electron integral symmetry is turned on.
   267 basis functions,   389 primitive gaussians,   297 cartesian basis functions
    23 alpha electrons       22 beta electrons
       nuclear repulsion energy       211.8515433393 Hartrees.
 NAtoms=   13 NActive=   13 NUniq=   13 SFac= 1.00D+00 NAtFMM=   50 NAOKFM=F Big=F
 One-electron integrals computed using PRISM.
 NBasis=   267 RedAO= T  NBF=   267
 NBsUse=   267 1.00D-06 NBFU=   267
 Harris functional with IExCor= 1009 diagonalized for initial guess.
 ExpMin= 4.38D-02 ExpMax= 8.59D+03 ExpMxC= 1.30D+03 IAcc=2 IRadAn=         0 AccDes= 0.00D+00
 HarFok:  IExCor= 1009 AccDes= 0.00D+00 IRadAn=         0 IDoV= 1
 ScaDFX=  1.000000  1.000000  1.000000  1.000000
 FoFCou: FMM=F IPFlag=           0 FMFlag=      100000 FMFlg1=           0
         NFxFlg=           0 DoJE=T BraDBF=F KetDBF=T FulRan=T
         Omega=  0.000000  0.000000  1.000000  0.000000  0.000000 ICntrl=     500 IOpCl=  0
         NMat0=    1 NMatS0=    1 NMatT0=    0 NMatD0=    1 NMtDS0=    0 NMtDT0=    0
         I1Cent=           4 NGrid=           0.
 Petite list used in FoFCou.
 Initial guess orbital symmetries:
 Alpha Orbitals:
       Occupied  (A) (A) (A) (A) (A) (A) (A) (A) (A) (A) (A) (A)
                 (A) (A) (A) (A) (A) (A) (A) (A) (A) (A) (A)
       Virtual   (A) (A) (A) (A) (A) (A) (A) (A) (A) (A) (A) (A)
                 (A) (A) (A) (A) (A) (A) (A) (A) (A) (A) (A) (A)
                 (A) (A) (A) (A) (A) (A) (A) (A) (A) (A) (A) (A)
                 (A) (A) (A) (A) (A) (A) (A) (A) (A) (A) (A) (A)
                 (A) (A) (A) (A) (A) (A) (A) (A) (A) (A) (A) (A)
                 (A) (A) (A) (A) (A) (A) (A) (A) (A) (A) (A) (A)
                 (A) (A) (A) (A) (A) (A) (A) (A) (A) (A) (A) (A)
                 (A) (A) (A) (A) (A) (A) (A) (A) (A) (A) (A) (A)
                 (A) (A) (A) (A) (A) (A) (A) (A) (A) (A) (A) (A)
                 (A) (A) (A) (A) (A) (A) (A) (A) (A) (A) (A) (A)
                 (A) (A) (A) (A) (A) (A) (A) (A) (A) (A) (A) (A)
                 (A) (A) (A) (A) (A) (A) (A) (A) (A) (A) (A) (A)
                 (A) (A) (A) (A) (A) (A) (A) (A) (A) (A) (A) (A)
                 (A) (A) (A) (A) (A) (A) (A) (A) (A) (A) (A) (A)
                 (A) (A) (A) (A) (A) (A) (A) (A) (A) (A) (A) (A)
                 (A) (A) (A) (A) (A) (A) (A) (A) (A) (A) (A) (A)
                 (A) (A) (A) (A) (A) (A) (A) (A) (A) (A) (A) (A)
                 (A) (A) (A) (A) (A) (A) (A) (A) (A) (A) (A) (A)
                 (A) (A) (A) (A) (A) (A) (A) (A) (A) (A) (A) (A)
                 (A) (A) (A) (A) (A) (A) (A) (A) (A) (A) (A) (A)
                 (A) (A) (A) (A)
 Beta  Orbitals:
       Occupied  (A) (A) (A) (A) (A) (A) (A) (A) (A) (A) (A) (A)
                 (A) (A) (A) (A) (A) (A) (A) (A) (A) (A)
       Virtual   (A) (A) (A) (A) (A) (A) (A) (A) (A) (A) (A) (A)
                 (A) (A) (A) (A) (A) (A) (A) (A) (A) (A) (A) (A)
                 (A) (A) (A) (A) (A) (A) (A) (A) (A) (A) (A) (A)
                 (A) (A) (A) (A) (A) (A) (A) (A) (A) (A) (A) (A)
                 (A) (A) (A) (A) (A) (A) (A) (A) (A) (A) (A) (A)
                 (A) (A) (A) (A) (A) (A) (A) (A) (A) (A) (A) (A)
                 (A) (A) (A) (A) (A) (A) (A) (A) (A) (A) (A) (A)
                 (A) (A) (A) (A) (A) (A) (A) (A) (A) (A) (A) (A)
                 (A) (A) (A) (A) (A) (A) (A) (A) (A) (A) (A) (A)
                 (A) (A) (A) (A) (A) (A) (A) (A) (A) (A) (A) (A)
                 (A) (A) (A) (A) (A) (A) (A) (A) (A) (A) (A) (A)
                 (A) (A) (A) (A) (A) (A) (A) (A) (A) (A) (A) (A)
                 (A) (A) (A) (A) (A) (A) (A) (A) (A) (A) (A) (A)
                 (A) (A) (A) (A) (A) (A) (A) (A) (A) (A) (A) (A)
                 (A) (A) (A) (A) (A) (A) (A) (A) (A) (A) (A) (A)
                 (A) (A) (A) (A) (A) (A) (A) (A) (A) (A) (A) (A)
                 (A) (A) (A) (A) (A) (A) (A) (A) (A) (A) (A) (A)
                 (A) (A) (A) (A) (A) (A) (A) (A) (A) (A) (A) (A)
                 (A) (A) (A) (A) (A) (A) (A) (A) (A) (A) (A) (A)
                 (A) (A) (A) (A) (A) (A) (A) (A) (A) (A) (A) (A)
                 (A) (A) (A) (A) (A)
 The electronic state of the initial guess is 2-A.
 Initial guess <Sx>= 0.0000 <Sy>= 0.0000 <Sz>= 0.5000 <S**2>= 0.7500 S= 0.5000
 Requested convergence on RMS density matrix=1.00D-08 within 128 cycles.
 Requested convergence on MAX density matrix=1.00D-06.
 Requested convergence on             energy=1.00D-06.
 No special actions if energy rises.
 SCF Done:  E(UM062X) =  -269.825694174     A.U. after   18 cycles
             Convg  =    0.4126D-08             -V/T =  2.0048
 <Sx>= 0.0000 <Sy>= 0.0000 <Sz>= 0.5000 <S**2>= 0.7546 S= 0.5023
 <L.S>= 0.000000000000E+00
 Annihilation of the first spin contaminant:
 S**2 before annihilation     0.7546,   after     0.7500

 **********************************************************************

            Population analysis using the SCF density.

 **********************************************************************

 Orbital symmetries:
 Alpha Orbitals:
       Occupied  (A) (A) (A) (A) (A) (A) (A) (A) (A) (A) (A) (A)
                 (A) (A) (A) (A) (A) (A) (A) (A) (A) (A) (A)
       Virtual   (A) (A) (A) (A) (A) (A) (A) (A) (A) (A) (A) (A)
                 (A) (A) (A) (A) (A) (A) (A) (A) (A) (A) (A) (A)
                 (A) (A) (A) (A) (A) (A) (A) (A) (A) (A) (A) (A)
                 (A) (A) (A) (A) (A) (A) (A) (A) (A) (A) (A) (A)
                 (A) (A) (A) (A) (A) (A) (A) (A) (A) (A) (A) (A)
                 (A) (A) (A) (A) (A) (A) (A) (A) (A) (A) (A) (A)
                 (A) (A) (A) (A) (A) (A) (A) (A) (A) (A) (A) (A)
                 (A) (A) (A) (A) (A) (A) (A) (A) (A) (A) (A) (A)
                 (A) (A) (A) (A) (A) (A) (A) (A) (A) (A) (A) (A)
                 (A) (A) (A) (A) (A) (A) (A) (A) (A) (A) (A) (A)
                 (A) (A) (A) (A) (A) (A) (A) (A) (A) (A) (A) (A)
                 (A) (A) (A) (A) (A) (A) (A) (A) (A) (A) (A) (A)
                 (A) (A) (A) (A) (A) (A) (A) (A) (A) (A) (A) (A)
                 (A) (A) (A) (A) (A) (A) (A) (A) (A) (A) (A) (A)
                 (A) (A) (A) (A) (A) (A) (A) (A) (A) (A) (A) (A)
                 (A) (A) (A) (A) (A) (A) (A) (A) (A) (A) (A) (A)
                 (A) (A) (A) (A) (A) (A) (A) (A) (A) (A) (A) (A)
                 (A) (A) (A) (A) (A) (A) (A) (A) (A) (A) (A) (A)
                 (A) (A) (A) (A) (A) (A) (A) (A) (A) (A) (A) (A)
                 (A) (A) (A) (A) (A) (A) (A) (A) (A) (A) (A) (A)
                 (A) (A) (A) (A)
 Beta  Orbitals:
       Occupied  (A) (A) (A) (A) (A) (A) (A) (A) (A) (A) (A) (A)
                 (A) (A) (A) (A) (A) (A) (A) (A) (A) (A)
       Virtual   (A) (A) (A) (A) (A) (A) (A) (A) (A) (A) (A) (A)
                 (A) (A) (A) (A) (A) (A) (A) (A) (A) (A) (A) (A)
                 (A) (A) (A) (A) (A) (A) (A) (A) (A) (A) (A) (A)
                 (A) (A) (A) (A) (A) (A) (A) (A) (A) (A) (A) (A)
                 (A) (A) (A) (A) (A) (A) (A) (A) (A) (A) (A) (A)
                 (A) (A) (A) (A) (A) (A) (A) (A) (A) (A) (A) (A)
                 (A) (A) (A) (A) (A) (A) (A) (A) (A) (A) (A) (A)
                 (A) (A) (A) (A) (A) (A) (A) (A) (A) (A) (A) (A)
                 (A) (A) (A) (A) (A) (A) (A) (A) (A) (A) (A) (A)
                 (A) (A) (A) (A) (A) (A) (A) (A) (A) (A) (A) (A)
                 (A) (A) (A) (A) (A) (A) (A) (A) (A) (A) (A) (A)
                 (A) (A) (A) (A) (A) (A) (A) (A) (A) (A) (A) (A)
                 (A) (A) (A) (A) (A) (A) (A) (A) (A) (A) (A) (A)
                 (A) (A) (A) (A) (A) (A) (A) (A) (A) (A) (A) (A)
                 (A) (A) (A) (A) (A) (A) (A) (A) (A) (A) (A) (A)
                 (A) (A) (A) (A) (A) (A) (A) (A) (A) (A) (A) (A)
                 (A) (A) (A) (A) (A) (A) (A) (A) (A) (A) (A) (A)
                 (A) (A) (A) (A) (A) (A) (A) (A) (A) (A) (A) (A)
                 (A) (A) (A) (A) (A) (A) (A) (A) (A) (A) (A) (A)
                 (A) (A) (A) (A) (A) (A) (A) (A) (A) (A) (A) (A)
                 (A) (A) (A) (A) (A)
 The electronic state is 2-A.
 Alpha  occ. eigenvalues --  -19.61468 -10.63630 -10.57494 -10.56109 -10.55995
 Alpha  occ. eigenvalues --  -10.55629  -1.14145  -0.90856  -0.88019  -0.75425
 Alpha  occ. eigenvalues --   -0.69830  -0.61087  -0.57437  -0.54245  -0.52038
 Alpha  occ. eigenvalues --   -0.48756  -0.47792  -0.45658  -0.43962  -0.42435
 Alpha  occ. eigenvalues --   -0.34657  -0.33163  -0.31262
 Alpha virt. eigenvalues --   -0.03884   0.01228   0.02198   0.03680   0.04056
 Alpha virt. eigenvalues --    0.05295   0.05654   0.06817   0.07564   0.07815
 Alpha virt. eigenvalues --    0.09078   0.09804   0.09928   0.11576   0.12157
 Alpha virt. eigenvalues --    0.12402   0.14747   0.15736   0.16557   0.16879
 Alpha virt. eigenvalues --    0.17304   0.19422   0.20691   0.21825   0.22400
 Alpha virt. eigenvalues --    0.22779   0.24989   0.25988   0.26827   0.29114
 Alpha virt. eigenvalues --    0.30087   0.30681   0.32147   0.33717   0.35755
 Alpha virt. eigenvalues --    0.36797   0.40696   0.42726   0.44913   0.46197
 Alpha virt. eigenvalues --    0.48358   0.50121   0.51085   0.52749   0.53173
 Alpha virt. eigenvalues --    0.54135   0.54975   0.55234   0.57531   0.58286
 Alpha virt. eigenvalues --    0.58570   0.60757   0.62124   0.62509   0.63296
 Alpha virt. eigenvalues --    0.64803   0.66195   0.67326   0.67918   0.69261
 Alpha virt. eigenvalues --    0.70533   0.74111   0.75174   0.76435   0.77359
 Alpha virt. eigenvalues --    0.78832   0.83014   0.83479   0.86826   0.89715
 Alpha virt. eigenvalues --    0.92311   0.93082   0.94623   0.95684   0.97938
 Alpha virt. eigenvalues --    1.01353   1.03011   1.04650   1.06512   1.09046
 Alpha virt. eigenvalues --    1.11702   1.14956   1.16568   1.18789   1.19054
 Alpha virt. eigenvalues --    1.20670   1.20892   1.22313   1.25399   1.26293
 Alpha virt. eigenvalues --    1.29661   1.30083   1.32619   1.33571   1.34505
 Alpha virt. eigenvalues --    1.35114   1.39481   1.39741   1.40742   1.43267
 Alpha virt. eigenvalues --    1.44316   1.45961   1.46231   1.50435   1.51437
 Alpha virt. eigenvalues --    1.54898   1.56037   1.57772   1.58329   1.62536
 Alpha virt. eigenvalues --    1.66870   1.71196   1.73672   1.82287   1.84423
 Alpha virt. eigenvalues --    1.94470   2.07613   2.09661   2.35017   2.43511
 Alpha virt. eigenvalues --    2.45957   2.47386   2.52076   2.53439   2.58324
 Alpha virt. eigenvalues --    2.61032   2.65069   2.70605   2.71486   2.72478
 Alpha virt. eigenvalues --    2.75881   2.76345   2.78031   2.81064   2.83111
 Alpha virt. eigenvalues --    2.84914   2.86369   2.86528   2.89704   2.90968
 Alpha virt. eigenvalues --    2.93024   2.95280   2.97997   2.99250   3.01545
 Alpha virt. eigenvalues --    3.03580   3.04087   3.06667   3.10075   3.12002
 Alpha virt. eigenvalues --    3.15545   3.16992   3.17884   3.19925   3.22634
 Alpha virt. eigenvalues --    3.22873   3.25254   3.27453   3.28606   3.30060
 Alpha virt. eigenvalues --    3.31440   3.32430   3.36680   3.39094   3.41308
 Alpha virt. eigenvalues --    3.44827   3.45846   3.46492   3.47439   3.53082
 Alpha virt. eigenvalues --    3.56356   3.58017   3.59562   3.60351   3.67413
 Alpha virt. eigenvalues --    3.70522   3.72304   3.73079   3.77108   3.78264
 Alpha virt. eigenvalues --    3.81326   3.82131   3.83198   3.86517   3.90029
 Alpha virt. eigenvalues --    3.94261   3.97759   4.00132   4.02924   4.05263
 Alpha virt. eigenvalues --    4.08898   4.09202   4.12679   4.14375   4.16737
 Alpha virt. eigenvalues --    4.19925   4.24776   4.26576   4.29298   4.31214
 Alpha virt. eigenvalues --    4.36466   4.38154   4.39977   4.46313   4.49264
 Alpha virt. eigenvalues --    4.50750   4.53345   4.55612   4.59705   4.62544
 Alpha virt. eigenvalues --    4.65547   4.76780   4.83799   4.99068   5.11664
 Alpha virt. eigenvalues --    5.12677   5.13378   5.20801   5.22052   5.33910
 Alpha virt. eigenvalues --    5.36087   5.41827   5.44676   5.47224   5.52577
 Alpha virt. eigenvalues --    5.53503   5.57069   5.64066   5.66276   5.94431
 Alpha virt. eigenvalues --    6.13415   6.58965   6.86604   6.91369   6.99736
 Alpha virt. eigenvalues --    7.25362   7.48909   7.64961  24.10333  24.13809
 Alpha virt. eigenvalues --   24.37506  24.63250  24.89329  50.25091
  Beta  occ. eigenvalues --  -19.61481 -10.63614 -10.56622 -10.56103 -10.56023
  Beta  occ. eigenvalues --  -10.55630  -1.14167  -0.90380  -0.87103  -0.74004
  Beta  occ. eigenvalues --   -0.68327  -0.60927  -0.57112  -0.53569  -0.51467
  Beta  occ. eigenvalues --   -0.48079  -0.46897  -0.45122  -0.43464  -0.41916
  Beta  occ. eigenvalues --   -0.34522  -0.33083
  Beta virt. eigenvalues --   -0.06745  -0.03283   0.01075   0.02228   0.03539
  Beta virt. eigenvalues --    0.04029   0.05266   0.05637   0.06784   0.07520
  Beta virt. eigenvalues --    0.07632   0.09339   0.09639   0.09790   0.11121
  Beta virt. eigenvalues --    0.12026   0.12626   0.14675   0.15325   0.15952
  Beta virt. eigenvalues --    0.16610   0.17369   0.19429   0.20604   0.21689
  Beta virt. eigenvalues --    0.22456   0.23002   0.25342   0.25847   0.27364
  Beta virt. eigenvalues --    0.29501   0.30173   0.30766   0.32119   0.33863
  Beta virt. eigenvalues --    0.35719   0.36811   0.40721   0.42832   0.44793
  Beta virt. eigenvalues --    0.46216   0.48759   0.50033   0.52425   0.52891
  Beta virt. eigenvalues --    0.53380   0.54199   0.55209   0.55721   0.57530
  Beta virt. eigenvalues --    0.58331   0.58541   0.61002   0.61876   0.62767
  Beta virt. eigenvalues --    0.63084   0.65201   0.66278   0.67561   0.67718
  Beta virt. eigenvalues --    0.68839   0.70677   0.74424   0.74605   0.76491
  Beta virt. eigenvalues --    0.77191   0.78658   0.82420   0.83753   0.86435
  Beta virt. eigenvalues --    0.89596   0.92081   0.93380   0.94480   0.95592
  Beta virt. eigenvalues --    0.97230   1.01291   1.02907   1.04672   1.06653
  Beta virt. eigenvalues --    1.08851   1.11698   1.14883   1.16780   1.19020
  Beta virt. eigenvalues --    1.19211   1.20667   1.20969   1.22535   1.25391
  Beta virt. eigenvalues --    1.26305   1.29427   1.30587   1.32836   1.33765
  Beta virt. eigenvalues --    1.34714   1.34956   1.39435   1.39770   1.40819
  Beta virt. eigenvalues --    1.43690   1.44303   1.45983   1.46406   1.50490
  Beta virt. eigenvalues --    1.51553   1.55032   1.56463   1.57818   1.58648
  Beta virt. eigenvalues --    1.62566   1.66718   1.71155   1.73594   1.82366
  Beta virt. eigenvalues --    1.84425   1.94518   2.07630   2.09845   2.35228
  Beta virt. eigenvalues --    2.43871   2.46407   2.48008   2.52447   2.53524
  Beta virt. eigenvalues --    2.58556   2.61712   2.65400   2.71196   2.72078
  Beta virt. eigenvalues --    2.74669   2.76371   2.77615   2.78781   2.81603
  Beta virt. eigenvalues --    2.83760   2.85954   2.87002   2.88095   2.90417
  Beta virt. eigenvalues --    2.91402   2.94084   2.97003   2.99827   3.01315
  Beta virt. eigenvalues --    3.02811   3.03910   3.04892   3.07974   3.10793
  Beta virt. eigenvalues --    3.13776   3.16042   3.18047   3.18933   3.22033
  Beta virt. eigenvalues --    3.23208   3.23873   3.27289   3.28302   3.29365
  Beta virt. eigenvalues --    3.30926   3.32575   3.33984   3.38038   3.39879
  Beta virt. eigenvalues --    3.42317   3.45724   3.46868   3.48066   3.49663
  Beta virt. eigenvalues --    3.53738   3.57229   3.59894   3.60900   3.63036
  Beta virt. eigenvalues --    3.68263   3.71390   3.72729   3.74259   3.77381
  Beta virt. eigenvalues --    3.78766   3.82134   3.82533   3.83590   3.87244
  Beta virt. eigenvalues --    3.91212   3.95471   3.97966   4.01229   4.04422
  Beta virt. eigenvalues --    4.05948   4.09216   4.10318   4.13459   4.15032
  Beta virt. eigenvalues --    4.17012   4.20196   4.26106   4.27955   4.30098
  Beta virt. eigenvalues --    4.32324   4.36973   4.39081   4.40881   4.46923
  Beta virt. eigenvalues --    4.51012   4.51722   4.54069   4.57001   4.60230
  Beta virt. eigenvalues --    4.62692   4.65700   4.77368   4.83980   5.00208
  Beta virt. eigenvalues --    5.11802   5.12691   5.13614   5.20841   5.23774
  Beta virt. eigenvalues --    5.35906   5.37511   5.41899   5.46711   5.49728
  Beta virt. eigenvalues --    5.52600   5.53695   5.57122   5.64157   5.66291
  Beta virt. eigenvalues --    5.94463   6.13410   6.58956   6.86487   6.91272
  Beta virt. eigenvalues --    6.99754   7.25277   7.48890   7.64922  24.11654
  Beta virt. eigenvalues --   24.13861  24.37689  24.63268  24.89347  50.25107
          Condensed to atoms (all electrons):
              1          2          3          4          5          6
     1  C    6.008559  -0.412669  -0.066076   0.087359  -0.264571   0.450468
     2  C   -0.412669   5.827394  -0.051022  -0.115784   0.209479  -0.023314
     3  C   -0.066076  -0.051022   5.345278   0.114039   0.420295  -0.008953
     4  C    0.087359  -0.115784   0.114039   5.607142   0.005068  -0.069781
     5  C   -0.264571   0.209479   0.420295   0.005068   5.275350   0.000118
     6  H    0.450468  -0.023314  -0.008953  -0.069781   0.000118   0.521296
     7  H    0.473203  -0.075655   0.006889  -0.029639  -0.001455  -0.028107
     8  O   -0.034053   0.426753  -0.053411  -0.034166  -0.072176   0.002548
     9  H    0.030578  -0.000474   0.323546   0.004581  -0.001278  -0.003010
    10  H   -0.010478  -0.028249   0.004355   0.396608  -0.003614   0.005486
    11  H   -0.081897   0.046973  -0.003328   0.405077   0.001851  -0.005374
    12  H    0.005609   0.011308  -0.016662   0.000086   0.379847  -0.000054
    13  H    0.008028   0.003887  -0.002364  -0.000020   0.373169  -0.000004
              7          8          9         10         11         12
     1  C    0.473203  -0.034053   0.030578  -0.010478  -0.081897   0.005609
     2  C   -0.075655   0.426753  -0.000474  -0.028249   0.046973   0.011308
     3  C    0.006889  -0.053411   0.323546   0.004355  -0.003328  -0.016662
     4  C   -0.029639  -0.034166   0.004581   0.396608   0.405077   0.000086
     5  C   -0.001455  -0.072176  -0.001278  -0.003614   0.001851   0.379847
     6  H   -0.028107   0.002548  -0.003010   0.005486  -0.005374  -0.000054
     7  H    0.486998  -0.007046   0.000021  -0.005092  -0.002317  -0.000005
     8  O   -0.007046   8.164641   0.004249   0.002114  -0.000989   0.002124
     9  H    0.000021   0.004249   0.485526  -0.000065  -0.000063   0.003675
    10  H   -0.005092   0.002114  -0.000065   0.510327  -0.030014  -0.000013
    11  H   -0.002317  -0.000989  -0.000063  -0.030014   0.520941   0.000001
    12  H   -0.000005   0.002124   0.003675  -0.000013   0.000001   0.464127
    13  H    0.000004   0.000520  -0.008527   0.000004   0.000000  -0.017313
             13
     1  C    0.008028
     2  C    0.003887
     3  C   -0.002364
     4  C   -0.000020
     5  C    0.373169
     6  H   -0.000004
     7  H    0.000004
     8  O    0.000520
     9  H   -0.008527
    10  H    0.000004
    11  H    0.000000
    12  H   -0.017313
    13  H    0.500748
 Mulliken atomic charges:
              1
     1  C   -0.194060
     2  C    0.181373
     3  C   -0.012585
     4  C   -0.370570
     5  C   -0.322084
     6  H    0.158682
     7  H    0.182201
     8  O   -0.401108
     9  H    0.161242
    10  H    0.158630
    11  H    0.149139
    12  H    0.167272
    13  H    0.141868
 Sum of Mulliken atomic charges =   0.00000
 Mulliken charges with hydrogens summed into heavy atoms:
              1
     1  C    0.146823
     2  C    0.181373
     3  C    0.148657
     4  C   -0.062801
     5  C   -0.012943
     8  O   -0.401108
 Sum of Mulliken charges with hydrogens summed into heavy atoms =   0.00000
          Atomic-Atomic Spin Densities.
              1          2          3          4          5          6
     1  C    0.076705  -0.111461   0.051561  -0.039812  -0.016953  -0.011176
     2  C   -0.111461   0.188805  -0.072718  -0.051619   0.025426   0.027992
     3  C    0.051561  -0.072718   0.029989   0.026303  -0.013747  -0.006981
     4  C   -0.039812  -0.051619   0.026303   1.152874  -0.007737  -0.014126
     5  C   -0.016953   0.025426  -0.013747  -0.007737   0.023033   0.000458
     6  H   -0.011176   0.027992  -0.006981  -0.014126   0.000458   0.013832
     7  H    0.049699  -0.051031   0.012052  -0.019154  -0.000843  -0.006104
     8  O    0.003136  -0.003152   0.001266   0.002184  -0.002576  -0.000078
     9  H    0.001686   0.009422   0.008695  -0.007939  -0.010454  -0.000320
    10  H   -0.000173   0.014145  -0.005383  -0.017678   0.000785   0.000435
    11  H   -0.000763   0.010247  -0.000957  -0.013643   0.000138   0.001091
    12  H   -0.000486   0.002132   0.004075  -0.000638  -0.004767  -0.000005
    13  H    0.000240  -0.000807  -0.003366   0.000318   0.003385  -0.000002
              7          8          9         10         11         12
     1  C    0.049699   0.003136   0.001686  -0.000173  -0.000763  -0.000486
     2  C   -0.051031  -0.003152   0.009422   0.014145   0.010247   0.002132
     3  C    0.012052   0.001266   0.008695  -0.005383  -0.000957   0.004075
     4  C   -0.019154   0.002184  -0.007939  -0.017678  -0.013643  -0.000638
     5  C   -0.000843  -0.002576  -0.010454   0.000785   0.000138  -0.004767
     6  H   -0.006104  -0.000078  -0.000320   0.000435   0.001091  -0.000005
     7  H    0.060590   0.000091   0.000129  -0.002986  -0.001825   0.000006
     8  O    0.000091  -0.006375  -0.000145  -0.000173  -0.000115  -0.000035
     9  H    0.000129  -0.000145  -0.012421   0.000048   0.000043  -0.000225
    10  H   -0.002986  -0.000173   0.000048  -0.019186   0.004085   0.000004
    11  H   -0.001825  -0.000115   0.000043   0.004085  -0.025409   0.000000
    12  H    0.000006  -0.000035  -0.000225   0.000004   0.000000  -0.000857
    13  H    0.000000   0.000012   0.000398  -0.000002   0.000000   0.000205
             13
     1  C    0.000240
     2  C   -0.000807
     3  C   -0.003366
     4  C    0.000318
     5  C    0.003385
     6  H   -0.000002
     7  H    0.000000
     8  O    0.000012
     9  H    0.000398
    10  H   -0.000002
    11  H    0.000000
    12  H    0.000205
    13  H   -0.001051
 Mulliken atomic spin densities:
              1
     1  C    0.002203
     2  C   -0.012619
     3  C    0.030788
     4  C    1.009332
     5  C   -0.003853
     6  H    0.005017
     7  H    0.040625
     8  O   -0.005960
     9  H   -0.011083
    10  H   -0.026079
    11  H   -0.027109
    12  H   -0.000590
    13  H   -0.000670
 Sum of Mulliken atomic spin densities =   1.00000
 Electronic spatial extent (au):  <R**2>=            644.5228
 Charge=              0.0000 electrons
 Dipole moment (field-independent basis, Debye):
    X=             -0.7008    Y=             -2.3614    Z=              0.8207  Tot=              2.5963
 Quadrupole moment (field-independent basis, Debye-Ang):
   XX=            -30.2326   YY=            -41.8381   ZZ=            -37.1975
   XY=             -2.8791   XZ=             -0.9072   YZ=             -0.2521
 Traceless Quadrupole moment (field-independent basis, Debye-Ang):
   XX=              6.1901   YY=             -5.4154   ZZ=             -0.7748
   XY=             -2.8791   XZ=             -0.9072   YZ=             -0.2521
 Octapole moment (field-independent basis, Debye-Ang**2):
  XXX=              6.1340  YYY=             -2.3243  ZZZ=             -0.0747  XYY=              2.6885
  XXY=              0.2554  XXZ=             -1.7836  XZZ=             -2.8945  YZZ=              3.0675
  YYZ=              3.4943  XYZ=              0.3076
 Hexadecapole moment (field-independent basis, Debye-Ang**3):
 XXXX=           -535.6542 YYYY=           -224.1108 ZZZZ=            -81.3726 XXXY=             -8.0253
 XXXZ=            -10.1017 YYYX=            -13.8704 YYYZ=             -3.4538 ZZZX=             -1.6295
 ZZZY=             -3.5634 XXYY=           -127.7038 XXZZ=           -116.2047 YYZZ=            -51.1250
 XXYZ=             -2.7610 YYXZ=             -1.9385 ZZXY=              1.2880
 N-N= 2.118515433393D+02 E-N=-1.572269535013D+03  KE= 4.021237198688D+02
                          Isotropic Fermi Contact Couplings
        Atom                 a.u.       MegaHertz       Gauss      10(-4) cm-1
     1  C(13)             -0.01790     -20.12814      -7.18222      -6.71403
     2  C(13)              0.01123      12.63010       4.50673       4.21295
     3  C(13)             -0.00079      -0.89366      -0.31888      -0.29809
     4  C(13)              0.38319     430.78044     153.71317     143.69289
     5  C(13)              0.00103       1.16114       0.41433       0.38732
     6  H(1)               0.00370      16.53173       5.89893       5.51439
     7  H(1)               0.02441     109.12143      38.93724      36.39899
     8  O(17)             -0.00160       0.96888       0.34572       0.32318
     9  H(1)               0.00052       2.33482       0.83312       0.77881
    10  H(1)              -0.00489     -21.86073      -7.80045      -7.29195
    11  H(1)              -0.00687     -30.71638     -10.96037     -10.24588
    12  H(1)               0.00001       0.03876       0.01383       0.01293
    13  H(1)              -0.00005      -0.23238      -0.08292      -0.07751
 --------------------------------------------------------
       Center         ----  Spin Dipole Couplings  ----
                      3XX-RR        3YY-RR        3ZZ-RR
 --------------------------------------------------------
     1   Atom       -0.022420      0.032628     -0.010208
     2   Atom        0.010425     -0.004203     -0.006222
     3   Atom        0.008646      0.002317     -0.010963
     4   Atom       -0.094258      0.592389     -0.498131
     5   Atom       -0.001367     -0.006974      0.008341
     6   Atom       -0.009046     -0.006290      0.015336
     7   Atom       -0.005704      0.010363     -0.004659
     8   Atom        0.014226      0.014274     -0.028500
     9   Atom        0.009713     -0.005360     -0.004353
    10   Atom       -0.044704     -0.009680      0.054384
    11   Atom        0.062540     -0.013767     -0.048773
    12   Atom        0.001657     -0.000227     -0.001430
    13   Atom        0.002329     -0.000908     -0.001420
 --------------------------------------------------------
                        XY            XZ            YZ
 --------------------------------------------------------
     1   Atom        0.001750      0.003401      0.025379
     2   Atom        0.012977      0.000950      0.004512
     3   Atom        0.003114      0.002540     -0.000499
     4   Atom       -0.661994     -0.017119      0.022067
     5   Atom        0.001350      0.003862      0.002405
     6   Atom        0.000945      0.005963      0.008784
     7   Atom       -0.002230      0.003112      0.009052
     8   Atom        0.003387     -0.001566     -0.005707
     9   Atom       -0.002355      0.006040     -0.001648
    10   Atom       -0.021100     -0.005196     -0.039948
    11   Atom        0.008863     -0.034948     -0.009892
    12   Atom        0.001753     -0.000016     -0.000070
    13   Atom       -0.000945      0.000368      0.000253
 --------------------------------------------------------


 ---------------------------------------------------------------------------------
              Anisotropic Spin Dipole Couplings in Principal Axis System
 ---------------------------------------------------------------------------------

       Atom             a.u.   MegaHertz   Gauss  10(-4) cm-1        Axes

              Baa    -0.0246    -3.306    -1.180    -1.103  0.7470  0.2502 -0.6160
     1 C(13)  Bbb    -0.0199    -2.673    -0.954    -0.892  0.6633 -0.3433  0.6650
              Bcc     0.0446     5.979     2.133     1.994  0.0451  0.9053  0.4224
 
              Baa    -0.0135    -1.807    -0.645    -0.603 -0.4147  0.7958 -0.4412
     2 C(13)  Bbb    -0.0049    -0.662    -0.236    -0.221 -0.3271  0.3221  0.8884
              Bcc     0.0184     2.469     0.881     0.824  0.8491  0.5128  0.1267
 
              Baa    -0.0113    -1.523    -0.543    -0.508 -0.1360  0.0671  0.9884
     3 C(13)  Bbb     0.0012     0.161     0.058     0.054 -0.3509  0.9298 -0.1114
              Bcc     0.0101     1.361     0.486     0.454  0.9265  0.3620  0.1029
 
              Baa    -0.5010   -67.226   -23.988   -22.424  0.5135  0.2947  0.8059
     4 C(13)  Bbb    -0.4943   -66.335   -23.670   -22.127  0.6830  0.4281 -0.5918
              Bcc     0.9953   133.561    47.658    44.551 -0.5194  0.8543  0.0186
 
              Baa    -0.0075    -1.000    -0.357    -0.334 -0.1457  0.9827 -0.1140
     5 C(13)  Bbb    -0.0027    -0.358    -0.128    -0.119  0.9322  0.0978 -0.3484
              Bcc     0.0101     1.358     0.485     0.453  0.3312  0.1570  0.9304
 
              Baa    -0.0110    -5.872    -2.095    -1.959  0.8114  0.4741 -0.3418
     6 H(1)   Bbb    -0.0087    -4.630    -1.652    -1.544 -0.5482  0.8201 -0.1639
              Bcc     0.0197    10.502     3.747     3.503  0.2026  0.3203  0.9254
 
              Baa    -0.0114    -6.085    -2.171    -2.030 -0.5523 -0.3677  0.7482
     7 H(1)   Bbb    -0.0032    -1.726    -0.616    -0.576  0.8329 -0.2055  0.5138
              Bcc     0.0146     7.811     2.787     2.605 -0.0352  0.9070  0.4197
 
              Baa    -0.0293     2.118     0.756     0.707  0.0257  0.1279  0.9914
     8 O(17)  Bbb     0.0111    -0.800    -0.285    -0.267  0.7438 -0.6651  0.0665
              Bcc     0.0182    -1.318    -0.470    -0.440  0.6679  0.7357 -0.1123
 
              Baa    -0.0070    -3.743    -1.336    -1.248 -0.2301  0.5025  0.8334
     9 H(1)   Bbb    -0.0054    -2.866    -1.023    -0.956  0.3045  0.8505 -0.4288
              Bcc     0.0124     6.609     2.358     2.204  0.9243 -0.1550  0.3487
 
              Baa    -0.0596   -31.788   -11.343   -10.603  0.8219  0.5248  0.2215
    10 H(1)   Bbb    -0.0142    -7.551    -2.694    -2.519 -0.5683  0.7289  0.3818
              Bcc     0.0737    39.339    14.037    13.122  0.0390 -0.4396  0.8973
 
              Baa    -0.0599   -31.979   -11.411   -10.667  0.2608  0.1541  0.9530
    11 H(1)   Bbb    -0.0141    -7.531    -2.687    -2.512 -0.1649  0.9798 -0.1133
              Bcc     0.0741    39.510    14.098    13.179  0.9512  0.1276 -0.2809
 
              Baa    -0.0014    -0.772    -0.275    -0.257 -0.1383  0.2536  0.9574
    12 H(1)   Bbb    -0.0013    -0.672    -0.240    -0.224 -0.4944  0.8199 -0.2886
              Bcc     0.0027     1.444     0.515     0.482  0.8582  0.5132 -0.0119
 
              Baa    -0.0017    -0.891    -0.318    -0.297 -0.2000 -0.5235  0.8282
    13 H(1)   Bbb    -0.0009    -0.499    -0.178    -0.167  0.1727  0.8133  0.5557
              Bcc     0.0026     1.390     0.496     0.464  0.9645 -0.2541  0.0722
 

 ---------------------------------------------------------------------------------

 Calling FoFJK, ICntrl=      2127 FMM=F ISym2X=0 I1Cent= 0 IOpClX= 1 NMat=1 NMatS=1 NMatT=0.
 ***** Axes restored to original set *****
 -------------------------------------------------------------------
 Center     Atomic                   Forces (Hartrees/Bohr)
 Number     Number              X              Y              Z
 -------------------------------------------------------------------
      1        6           0.000035398   -0.013443211    0.011899411
      2        6          -0.005070348    0.050711109   -0.064820475
      3        6          -0.007036618   -0.001276614    0.004951285
      4        6           0.037716061    0.016689968   -0.026646638
      5        6           0.004497592   -0.001823690    0.001068386
      6        1          -0.000444226    0.010063540   -0.000253809
      7        1          -0.010931607   -0.003249438    0.006445875
      8        8           0.005007652   -0.044204758    0.050951329
      9        1           0.004055063   -0.000252239   -0.000050971
     10        1          -0.010510369   -0.014594874    0.009404918
     11        1          -0.018543977    0.000500853    0.008221346
     12        1           0.001543910   -0.000064492    0.000142528
     13        1          -0.000318532    0.000943845   -0.001313186
 -------------------------------------------------------------------
 Cartesian Forces:  Max     0.064820475 RMS     0.019823837

 GradGradGradGradGradGradGradGradGradGradGradGradGradGradGradGradGradGrad
 Berny optimization.
 Internal  Forces:  Max     0.067589001 RMS     0.011430675
 Search for a local minimum.
 Step number   1 out of a maximum of   60
 All quantities printed in internal units (Hartrees-Bohrs-Radians)
 Swaping is turned off.
 Second derivative matrix not updated -- first step.
 ITU=  0
     Eigenvalues ---    0.00474   0.00776   0.00899   0.01078   0.02033
     Eigenvalues ---    0.02992   0.02992   0.03868   0.05171   0.06530
     Eigenvalues ---    0.09622   0.13061   0.16000   0.16000   0.16000
     Eigenvalues ---    0.16000   0.16000   0.21996   0.22000   0.24999
     Eigenvalues ---    0.25000   0.30168   0.32398   0.32454   0.32492
     Eigenvalues ---    0.32518   0.32562   0.34988   0.35598   0.35682
     Eigenvalues ---    0.35705   0.59103   0.79175
 Quadratic step=6.897D-01 exceeds max=3.000D-01 adjusted using Lamda=-5.245D-02.
 Angle between NR and scaled steps=  22.12 degrees.
 Angle between quadratic step and forces=  48.06 degrees.
 Linear search not attempted -- option 19 set.
 Iteration  1 RMS(Cart)=  0.04971788 RMS(Int)=  0.00478528
 Iteration  2 RMS(Cart)=  0.00407903 RMS(Int)=  0.00297989
 Iteration  3 RMS(Cart)=  0.00003332 RMS(Int)=  0.00297978
 Iteration  4 RMS(Cart)=  0.00000041 RMS(Int)=  0.00297978
 Variable       Old X    -DE/DX   Delta X   Delta X   Delta X     New X
                                 (Linear)    (Quad)   (Total)
    R1        2.83321   0.00099   0.00000   0.00263   0.00263   2.83583
    R2        2.87629  -0.00538   0.00000  -0.01519  -0.01519   2.86110
    R3        2.09906  -0.01002   0.00000  -0.02652  -0.02652   2.07254
    R4        2.10123  -0.01270   0.00000  -0.03375  -0.03375   2.06748
    R5        2.78994   0.00102   0.00000   0.00253   0.00253   2.79247
    R6        2.38364  -0.06759   0.00000  -0.08006  -0.08006   2.30357
    R7        2.51657  -0.00558   0.00000  -0.00867  -0.00867   2.50790
    R8        2.04716   0.00066   0.00000   0.00161   0.00161   2.04876
    R9        2.09952  -0.01451   0.00000  -0.03844  -0.03844   2.06108
   R10        2.09827  -0.01471   0.00000  -0.03892  -0.03892   2.05935
   R11        2.04582  -0.00042   0.00000  -0.00102  -0.00102   2.04481
   R12        2.04545  -0.00078   0.00000  -0.00191  -0.00191   2.04353
    A1        1.92996   0.00346   0.00000   0.01291   0.01290   1.94287
    A2        1.90721  -0.00071   0.00000  -0.00122  -0.00133   1.90588
    A3        1.92369  -0.00418   0.00000  -0.02506  -0.02508   1.89861
    A4        1.91027  -0.00019   0.00000   0.00511   0.00507   1.91534
    A5        1.90295   0.00090   0.00000   0.00630   0.00637   1.90932
    A6        1.88924   0.00068   0.00000   0.00189   0.00177   1.89101
    A7        2.09627  -0.01106   0.00000  -0.03651  -0.03659   2.05968
    A8        2.08308   0.00800   0.00000   0.02652   0.02644   2.10951
    A9        2.10378   0.00308   0.00000   0.01024   0.01016   2.11393
   A10        2.13770  -0.00390   0.00000  -0.01431  -0.01431   2.12339
   A11        2.07446  -0.00214   0.00000  -0.01210  -0.01210   2.06236
   A12        2.07103   0.00604   0.00000   0.02641   0.02641   2.09743
   A13        1.92730   0.01448   0.00000   0.09620   0.08649   2.01379
   A14        1.91952   0.01629   0.00000   0.10494   0.09523   2.01475
   A15        1.90587  -0.00260   0.00000   0.04214   0.02805   1.93392
   A16        2.12137  -0.00300   0.00000  -0.01412  -0.01412   2.10725
   A17        2.09214   0.00297   0.00000   0.01398   0.01398   2.10612
   A18        2.06968   0.00003   0.00000   0.00013   0.00013   2.06981
    D1       -1.13817   0.00050   0.00000   0.00815   0.00816  -1.13002
    D2        2.01529  -0.00092   0.00000  -0.01504  -0.01512   2.00017
    D3        0.96561   0.00197   0.00000   0.02181   0.02181   0.98742
    D4       -2.16411   0.00056   0.00000  -0.00139  -0.00147  -2.16558
    D5        3.03965  -0.00014   0.00000   0.00829   0.00840   3.04805
    D6       -0.09007  -0.00155   0.00000  -0.01491  -0.01487  -0.10495
    D7       -1.09774   0.00977   0.00000   0.10541   0.10850  -0.98924
    D8        3.08089  -0.00684   0.00000  -0.07683  -0.07988   3.00100
    D9        3.08348   0.00859   0.00000   0.09550   0.09855  -3.10115
   D10        0.97893  -0.00801   0.00000  -0.08674  -0.08983   0.88909
   D11        1.01994   0.00735   0.00000   0.08655   0.08963   1.10957
   D12       -1.08461  -0.00925   0.00000  -0.09568  -0.09876  -1.18337
   D13        3.13619  -0.00068   0.00000  -0.01102  -0.01096   3.12524
   D14       -0.00540  -0.00068   0.00000  -0.01096  -0.01090  -0.01630
   D15       -0.01741   0.00078   0.00000   0.01256   0.01249  -0.00492
   D16        3.12418   0.00078   0.00000   0.01262   0.01255   3.13673
   D17       -0.00055  -0.00020   0.00000  -0.00238  -0.00237  -0.00292
   D18        3.14157  -0.00020   0.00000  -0.00239  -0.00239   3.13918
   D19        3.14105  -0.00020   0.00000  -0.00243  -0.00243   3.13861
   D20       -0.00002  -0.00020   0.00000  -0.00244  -0.00245  -0.00247
         Item               Value     Threshold  Converged?
 Maximum Force            0.067589     0.000002     NO 
 RMS     Force            0.011431     0.000001     NO 
 Maximum Displacement     0.137942     0.000006     NO 
 RMS     Displacement     0.049405     0.000004     NO 
 Predicted change in Energy=-1.072352D-02
 GradGradGradGradGradGradGradGradGradGradGradGradGradGradGradGradGradGrad

                          Input orientation:                          
 ---------------------------------------------------------------------
 Center     Atomic      Atomic             Coordinates (Angstroms)
 Number     Number       Type             X           Y           Z
 ---------------------------------------------------------------------
      1          6           0        1.316587   -0.321030   -0.433420
      2          6           0       -0.043673    0.207782   -0.782744
      3          6           0       -1.199704   -0.281404   -0.003049
      4          6           0        1.729755    0.100738    0.960744
      5          6           0       -2.431981    0.151521   -0.238261
      6          1           0        1.306457   -1.415603   -0.501575
      7          1           0        2.040518    0.062481   -1.158554
      8          8           0       -0.186460    1.025540   -1.675404
      9          1           0       -1.018470   -1.012200    0.777010
     10          1           0        1.732408    1.176192    1.142319
     11          1           0        2.644205   -0.357545    1.336696
     12          1           0       -2.622864    0.882761   -1.012675
     13          1           0       -3.266776   -0.219035    0.340715
 ---------------------------------------------------------------------
                    Distance matrix (angstroms):
                    1          2          3          4          5
     1  C    0.000000
     2  C    1.500659   0.000000
     3  C    2.553138   1.477713   0.000000
     4  C    1.514031   2.489228   3.107517   0.000000
     5  C    3.783273   2.450233   1.327123   4.331309   0.000000
     6  H    1.096740   2.130091   2.795672   2.148686   4.062158
     7  H    1.094064   2.122781   3.457237   2.142303   4.567069
     8  O    2.369583   1.218999   2.351923   3.387686   2.805647
     9  H    2.719439   2.207129   1.084159   2.970712   2.093570
    10  H    2.213037   2.792516   3.468968   1.090678   4.505339
    11  H    2.212965   3.469338   4.071406   1.089762   5.339223
    12  H    4.159798   2.675947   2.097620   4.842647   1.082065
    13  H    4.649398   3.439873   2.096389   5.044998   1.081392
                    6          7          8          9         10
     6  H    0.000000
     7  H    1.776288   0.000000
     8  O    3.092872   2.480736   0.000000
     9  H    2.683803   3.776077   3.295294   0.000000
    10  H    3.098584   2.574743   3.412377   3.534097   0.000000
    11  H    2.507648   2.601371   4.358708   3.762580   1.794856
    12  H    4.580749   4.737222   2.528964   3.060707   4.868110
    13  H    4.801634   5.522176   3.886136   2.423704   5.251768
                   11         12         13
    11  H    0.000000
    12  H    5.899145   0.000000
    13  H    5.995903   1.860173   0.000000
 Stoichiometry    C5H7O(2)
 Framework group  C1[X(C5H7O)]
 Deg. of freedom    33
 Full point group                 C1      NOp   1
 Largest Abelian subgroup         C1      NOp   1
 Largest concise Abelian subgroup C1      NOp   1
                         Standard orientation:                         
 ---------------------------------------------------------------------
 Center     Atomic      Atomic             Coordinates (Angstroms)
 Number     Number       Type             X           Y           Z
 ---------------------------------------------------------------------
      1          6           0       -1.396538    0.170850    0.498141
      2          6           0        0.036368    0.425690    0.132336
      3          6           0        0.983391   -0.706256    0.206365
      4          6           0       -2.048450   -0.793932   -0.469586
      5          6           0        2.262600   -0.566646   -0.118271
      6          1           0       -1.442063   -0.237161    1.515143
      7          1           0       -1.938148    1.121339    0.483845
      8          8           0        0.403058    1.531458   -0.226515
      9          1           0        0.606696   -1.667888    0.536162
     10          1           0       -2.019116   -0.495561   -1.518248
     11          1           0       -3.045953   -1.133393   -0.191491
     12          1           0        2.647654    0.388226   -0.451165
     13          1           0        2.942242   -1.405467   -0.056039
 ---------------------------------------------------------------------
 Rotational constants (GHZ):      6.4927670      2.5575070      2.0217818
 Standard basis: 6-311+G(2df,2p) (5D, 7F)
 There are   267 symmetry adapted basis functions of A   symmetry.
 Integral buffers will be    131072 words long.
 Raffenetti 2 integral format.
 Two-electron integral symmetry is turned on.
   267 basis functions,   389 primitive gaussians,   297 cartesian basis functions
    23 alpha electrons       22 beta electrons
       nuclear repulsion energy       213.6020177368 Hartrees.
 NAtoms=   13 NActive=   13 NUniq=   13 SFac= 1.00D+00 NAtFMM=   50 NAOKFM=F Big=F
 One-electron integrals computed using PRISM.
 NBasis=   267 RedAO= T  NBF=   267
 NBsUse=   267 1.00D-06 NBFU=   267
 Initial guess read from the read-write file.
 B after Tr=     0.000000    0.000000    0.000000
         Rot=    1.000000    0.000000    0.000000    0.000000 Ang=   0.00 deg.
 Initial guess orbital symmetries:
 Alpha Orbitals:
       Occupied  (A) (A) (A) (A) (A) (A) (A) (A) (A) (A) (A) (A)
                 (A) (A) (A) (A) (A) (A) (A) (A) (A) (A) (A)
       Virtual   (A) (A) (A) (A) (A) (A) (A) (A) (A) (A) (A) (A)
                 (A) (A) (A) (A) (A) (A) (A) (A) (A) (A) (A) (A)
                 (A) (A) (A) (A) (A) (A) (A) (A) (A) (A) (A) (A)
                 (A) (A) (A) (A) (A) (A) (A) (A) (A) (A) (A) (A)
                 (A) (A) (A) (A) (A) (A) (A) (A) (A) (A) (A) (A)
                 (A) (A) (A) (A) (A) (A) (A) (A) (A) (A) (A) (A)
                 (A) (A) (A) (A) (A) (A) (A) (A) (A) (A) (A) (A)
                 (A) (A) (A) (A) (A) (A) (A) (A) (A) (A) (A) (A)
                 (A) (A) (A) (A) (A) (A) (A) (A) (A) (A) (A) (A)
                 (A) (A) (A) (A) (A) (A) (A) (A) (A) (A) (A) (A)
                 (A) (A) (A) (A) (A) (A) (A) (A) (A) (A) (A) (A)
                 (A) (A) (A) (A) (A) (A) (A) (A) (A) (A) (A) (A)
                 (A) (A) (A) (A) (A) (A) (A) (A) (A) (A) (A) (A)
                 (A) (A) (A) (A) (A) (A) (A) (A) (A) (A) (A) (A)
                 (A) (A) (A) (A) (A) (A) (A) (A) (A) (A) (A) (A)
                 (A) (A) (A) (A) (A) (A) (A) (A) (A) (A) (A) (A)
                 (A) (A) (A) (A) (A) (A) (A) (A) (A) (A) (A) (A)
                 (A) (A) (A) (A) (A) (A) (A) (A) (A) (A) (A) (A)
                 (A) (A) (A) (A) (A) (A) (A) (A) (A) (A) (A) (A)
                 (A) (A) (A) (A) (A) (A) (A) (A) (A) (A) (A) (A)
                 (A) (A) (A) (A)
 Beta  Orbitals:
       Occupied  (A) (A) (A) (A) (A) (A) (A) (A) (A) (A) (A) (A)
                 (A) (A) (A) (A) (A) (A) (A) (A) (A) (A)
       Virtual   (A) (A) (A) (A) (A) (A) (A) (A) (A) (A) (A) (A)
                 (A) (A) (A) (A) (A) (A) (A) (A) (A) (A) (A) (A)
                 (A) (A) (A) (A) (A) (A) (A) (A) (A) (A) (A) (A)
                 (A) (A) (A) (A) (A) (A) (A) (A) (A) (A) (A) (A)
                 (A) (A) (A) (A) (A) (A) (A) (A) (A) (A) (A) (A)
                 (A) (A) (A) (A) (A) (A) (A) (A) (A) (A) (A) (A)
                 (A) (A) (A) (A) (A) (A) (A) (A) (A) (A) (A) (A)
                 (A) (A) (A) (A) (A) (A) (A) (A) (A) (A) (A) (A)
                 (A) (A) (A) (A) (A) (A) (A) (A) (A) (A) (A) (A)
                 (A) (A) (A) (A) (A) (A) (A) (A) (A) (A) (A) (A)
                 (A) (A) (A) (A) (A) (A) (A) (A) (A) (A) (A) (A)
                 (A) (A) (A) (A) (A) (A) (A) (A) (A) (A) (A) (A)
                 (A) (A) (A) (A) (A) (A) (A) (A) (A) (A) (A) (A)
                 (A) (A) (A) (A) (A) (A) (A) (A) (A) (A) (A) (A)
                 (A) (A) (A) (A) (A) (A) (A) (A) (A) (A) (A) (A)
                 (A) (A) (A) (A) (A) (A) (A) (A) (A) (A) (A) (A)
                 (A) (A) (A) (A) (A) (A) (A) (A) (A) (A) (A) (A)
                 (A) (A) (A) (A) (A) (A) (A) (A) (A) (A) (A) (A)
                 (A) (A) (A) (A) (A) (A) (A) (A) (A) (A) (A) (A)
                 (A) (A) (A) (A) (A) (A) (A) (A) (A) (A) (A) (A)
                 (A) (A) (A) (A) (A)
 Initial guess <Sx>= 0.0000 <Sy>= 0.0000 <Sz>= 0.5000 <S**2>= 0.7547 S= 0.5023
 Harris functional with IExCor= 1009 diagonalized for initial guess.
 ExpMin= 4.38D-02 ExpMax= 8.59D+03 ExpMxC= 1.30D+03 IAcc=2 IRadAn=         0 AccDes= 0.00D+00
 HarFok:  IExCor= 1009 AccDes= 0.00D+00 IRadAn=         0 IDoV= 1
 ScaDFX=  1.000000  1.000000  1.000000  1.000000
 FoFCou: FMM=F IPFlag=           0 FMFlag=      100000 FMFlg1=           0
         NFxFlg=           0 DoJE=T BraDBF=F KetDBF=T FulRan=T
         Omega=  0.000000  0.000000  1.000000  0.000000  0.000000 ICntrl=     500 IOpCl=  0
         NMat0=    1 NMatS0=    1 NMatT0=    0 NMatD0=    1 NMtDS0=    0 NMtDT0=    0
         I1Cent=           4 NGrid=           0.
 Petite list used in FoFCou.
 Requested convergence on RMS density matrix=1.00D-08 within 128 cycles.
 Requested convergence on MAX density matrix=1.00D-06.
 Requested convergence on             energy=1.00D-06.
 No special actions if energy rises.
 SCF Done:  E(UM062X) =  -269.836677656     A.U. after   14 cycles
             Convg  =    0.8932D-08             -V/T =  2.0039
 <Sx>= 0.0000 <Sy>= 0.0000 <Sz>= 0.5000 <S**2>= 0.7547 S= 0.5024
 <L.S>= 0.000000000000E+00
 Annihilation of the first spin contaminant:
 S**2 before annihilation     0.7547,   after     0.7500
 Calling FoFJK, ICntrl=      2127 FMM=F ISym2X=0 I1Cent= 0 IOpClX= 1 NMat=1 NMatS=1 NMatT=0.
 ***** Axes restored to original set *****
 -------------------------------------------------------------------
 Center     Atomic                   Forces (Hartrees/Bohr)
 Number     Number              X              Y              Z
 -------------------------------------------------------------------
      1        6           0.003129882   -0.005428647    0.013930710
      2        6          -0.001625184    0.018228929   -0.021836883
      3        6          -0.005896648   -0.003910373    0.006272166
      4        6           0.017848395    0.008145709   -0.014357410
      5        6           0.000921959   -0.001291843    0.001080294
      6        1           0.000045248    0.001956656   -0.000120203
      7        1          -0.001893455   -0.000353477   -0.000887600
      8        8           0.001855551   -0.009876776    0.011225891
      9        1           0.001729689    0.000108136   -0.000230549
     10        1          -0.008254162   -0.004070677    0.002740041
     11        1          -0.007891691   -0.004432751    0.003106862
     12        1           0.000622580    0.000294264   -0.000226653
     13        1          -0.000592163    0.000630848   -0.000696667
 -------------------------------------------------------------------
 Cartesian Forces:  Max     0.021836883 RMS     0.007430394

 GradGradGradGradGradGradGradGradGradGradGradGradGradGradGradGradGradGrad
 Berny optimization.
 Using GDIIS optimizer.
 Internal  Forces:  Max     0.015067902 RMS     0.003655997
 Search for a local minimum.
 Step number   2 out of a maximum of   60
 All quantities printed in internal units (Hartrees-Bohrs-Radians)
 Swaping is turned off.
 Update second derivatives using D2CorX and points    1    2
 DE= -1.10D-02 DEPred=-1.07D-02 R= 1.02D+00
 SS=  1.41D+00  RLast= 2.98D-01 DXNew= 5.0454D-01 8.9360D-01
 Trust test= 1.02D+00 RLast= 2.98D-01 DXMaxT set to 5.05D-01
 ITU=  1  0
     Eigenvalues ---    0.00474   0.00776   0.00904   0.01078   0.02054
     Eigenvalues ---    0.02947   0.02992   0.02995   0.05132   0.06509
     Eigenvalues ---    0.09695   0.13063   0.15720   0.16000   0.16000
     Eigenvalues ---    0.16000   0.16903   0.21826   0.22117   0.23279
     Eigenvalues ---    0.25050   0.29109   0.31621   0.32430   0.32508
     Eigenvalues ---    0.32540   0.33266   0.35591   0.35669   0.35700
     Eigenvalues ---    0.36014   0.59051   0.70251
 DIIS coeff's:      1.60385     -0.60385
 Cosine:  0.999 >  0.970
 Length:  0.974
 GDIIS step was calculated using  2 of the last  2 vectors.
 Iteration  1 RMS(Cart)=  0.06986342 RMS(Int)=  0.00938274
 Iteration  2 RMS(Cart)=  0.00720768 RMS(Int)=  0.00626374
 Iteration  3 RMS(Cart)=  0.00008086 RMS(Int)=  0.00626335
 Iteration  4 RMS(Cart)=  0.00000109 RMS(Int)=  0.00626335
 Iteration  5 RMS(Cart)=  0.00000002 RMS(Int)=  0.00626335
 Variable       Old X    -DE/DX   Delta X   Delta X   Delta X     New X
                                  (DIIS)     (GDIIS)  (Total)
    R1        2.83583   0.00520   0.00159   0.02384   0.02542   2.86126
    R2        2.86110  -0.00746  -0.00917  -0.02877  -0.03794   2.82316
    R3        2.07254  -0.00194  -0.01601   0.00923  -0.00679   2.06575
    R4        2.06748  -0.00079  -0.02038   0.02001  -0.00037   2.06711
    R5        2.79247   0.00716   0.00153   0.03103   0.03256   2.82503
    R6        2.30357  -0.01507  -0.04835   0.02165  -0.02669   2.27688
    R7        2.50790  -0.00103  -0.00524   0.00297  -0.00227   2.50563
    R8        2.04876   0.00005   0.00097  -0.00090   0.00007   2.04884
    R9        2.06108  -0.00356  -0.02321   0.00967  -0.01354   2.04754
   R10        2.05935  -0.00369  -0.02350   0.00940  -0.01410   2.04525
   R11        2.04481   0.00025  -0.00061   0.00186   0.00124   2.04605
   R12        2.04353  -0.00014  -0.00115   0.00073  -0.00042   2.04311
    A1        1.94287  -0.00051   0.00779  -0.01340  -0.00561   1.93726
    A2        1.90588   0.00036  -0.00080  -0.00092  -0.00183   1.90405
    A3        1.89861  -0.00147  -0.01515   0.00280  -0.01235   1.88626
    A4        1.91534  -0.00008   0.00306  -0.00686  -0.00387   1.91147
    A5        1.90932   0.00189   0.00384   0.02173   0.02562   1.93494
    A6        1.89101  -0.00019   0.00107  -0.00305  -0.00213   1.88888
    A7        2.05968  -0.00695  -0.02210  -0.01746  -0.03969   2.01999
    A8        2.10951   0.00341   0.01596   0.00248   0.01831   2.12782
    A9        2.11393   0.00354   0.00613   0.01537   0.02137   2.13530
   A10        2.12339  -0.00126  -0.00864   0.00165  -0.00699   2.11640
   A11        2.06236  -0.00115  -0.00731  -0.00307  -0.01038   2.05199
   A12        2.09743   0.00241   0.01595   0.00142   0.01736   2.11480
   A13        2.01379   0.00287   0.05223   0.02384   0.05225   2.06604
   A14        2.01475   0.00382   0.05751   0.02641   0.06013   2.07488
   A15        1.93392   0.00199   0.01694   0.10270   0.09245   2.02636
   A16        2.10725  -0.00167  -0.00852  -0.00526  -0.01379   2.09346
   A17        2.10612   0.00196   0.00844   0.00835   0.01679   2.12292
   A18        2.06981  -0.00030   0.00008  -0.00309  -0.00301   2.06680
    D1       -1.13002   0.00069   0.00493   0.01068   0.01561  -1.11441
    D2        2.00017   0.00036  -0.00913   0.04894   0.03974   2.03991
    D3        0.98742   0.00050   0.01317  -0.00718   0.00599   0.99341
    D4       -2.16558   0.00017  -0.00089   0.03108   0.03012  -2.13546
    D5        3.04805  -0.00037   0.00507  -0.00977  -0.00460   3.04346
    D6       -0.10495  -0.00070  -0.00898   0.02849   0.01953  -0.08541
    D7       -0.98924   0.00540   0.06552   0.07787   0.14727  -0.84197
    D8        3.00100  -0.00466  -0.04824  -0.13177  -0.18383   2.81718
    D9       -3.10115   0.00534   0.05951   0.09239   0.15575  -2.94540
   D10        0.88909  -0.00472  -0.05425  -0.11725  -0.17535   0.71374
   D11        1.10957   0.00449   0.05412   0.08713   0.14508   1.25465
   D12       -1.18337  -0.00558  -0.05964  -0.12251  -0.18602  -1.36939
   D13        3.12524  -0.00012  -0.00662   0.02372   0.01716  -3.14079
   D14       -0.01630  -0.00010  -0.00658   0.02460   0.01807   0.00177
   D15       -0.00492   0.00021   0.00754  -0.01455  -0.00706  -0.01198
   D16        3.13673   0.00022   0.00758  -0.01367  -0.00615   3.13058
   D17       -0.00292  -0.00011  -0.00143  -0.00158  -0.00301  -0.00593
   D18        3.13918  -0.00006  -0.00144   0.00099  -0.00045   3.13873
   D19        3.13861  -0.00012  -0.00147  -0.00248  -0.00395   3.13466
   D20       -0.00247  -0.00007  -0.00148   0.00009  -0.00139  -0.00386
         Item               Value     Threshold  Converged?
 Maximum Force            0.015068     0.000002     NO 
 RMS     Force            0.003656     0.000001     NO 
 Maximum Displacement     0.228331     0.000006     NO 
 RMS     Displacement     0.069793     0.000004     NO 
 Predicted change in Energy=-4.252067D-03
 GradGradGradGradGradGradGradGradGradGradGradGradGradGradGradGradGradGrad

                          Input orientation:                          
 ---------------------------------------------------------------------
 Center     Atomic      Atomic             Coordinates (Angstroms)
 Number     Number       Type             X           Y           Z
 ---------------------------------------------------------------------
      1          6           0        1.335850   -0.307780   -0.464508
      2          6           0       -0.030341    0.237667   -0.823041
      3          6           0       -1.167331   -0.260659    0.009891
      4          6           0        1.736500    0.114228    0.911459
      5          6           0       -2.410534    0.144688   -0.209689
      6          1           0        1.310680   -1.399280   -0.518980
      7          1           0        2.051931    0.055405   -1.207390
      8          8           0       -0.188222    1.013293   -1.731445
      9          1           0       -0.938430   -0.965425    0.801340
     10          1           0        1.629995    1.158161    1.181385
     11          1           0        2.523377   -0.430433    1.416972
     12          1           0       -2.615840    0.854088   -1.001452
     13          1           0       -3.237635   -0.213754    0.387259
 ---------------------------------------------------------------------
                    Distance matrix (angstroms):
                    1          2          3          4          5
     1  C    0.000000
     2  C    1.514112   0.000000
     3  C    2.548174   1.494942   0.000000
     4  C    1.493953   2.479003   3.063593   0.000000
     5  C    3.782202   2.459709   1.325924   4.296020   0.000000
     6  H    1.093148   2.137845   2.777895   2.125603   4.040659
     7  H    1.093869   2.125276   3.456200   2.143007   4.573508
     8  O    2.381839   1.204873   2.369358   3.390843   2.829998
     9  H    2.684626   2.216003   1.084197   2.886698   2.102765
    10  H    2.223615   2.760751   3.348206   1.083512   4.391821
    11  H    2.228279   3.462007   3.953483   1.082300   5.226879
    12  H    4.153806   2.663947   2.088936   4.811392   1.082723
    13  H    4.653076   3.457650   2.104939   5.012423   1.081168
                    6          7          8          9         10
     6  H    0.000000
     7  H    1.771855   0.000000
     8  O    3.088249   2.492081   0.000000
     9  H    2.643854   3.744242   3.300475   0.000000
    10  H    3.087670   2.664647   3.436783   3.354230   0.000000
    11  H    2.481372   2.710272   4.398823   3.556589   1.837733
    12  H    4.552802   4.740084   2.539993   3.061763   4.783760
    13  H    4.786848   5.531263   3.910687   2.454143   5.119240
                   11         12         13
    11  H    0.000000
    12  H    5.823257   0.000000
    13  H    5.856323   1.858880   0.000000
 Stoichiometry    C5H7O(2)
 Framework group  C1[X(C5H7O)]
 Deg. of freedom    33
 Full point group                 C1      NOp   1
 Largest Abelian subgroup         C1      NOp   1
 Largest concise Abelian subgroup C1      NOp   1
                         Standard orientation:                         
 ---------------------------------------------------------------------
 Center     Atomic      Atomic             Coordinates (Angstroms)
 Number     Number       Type             X           Y           Z
 ---------------------------------------------------------------------
      1          6           0       -1.406983    0.190869    0.483308
      2          6           0        0.035251    0.459868    0.108960
      3          6           0        0.960151   -0.710638    0.205540
      4          6           0       -2.030051   -0.789292   -0.456355
      5          6           0        2.246505   -0.597823   -0.095525
      6          1           0       -1.444264   -0.204946    1.501598
      7          1           0       -1.945239    1.142995    0.466442
      8          8           0        0.411817    1.552607   -0.231392
      9          1           0        0.540630   -1.656246    0.530058
     10          1           0       -1.907327   -0.631278   -1.521235
     11          1           0       -2.932109   -1.304233   -0.152215
     12          1           0        2.643267    0.354612   -0.423755
     13          1           0        2.921273   -1.439656   -0.025322
 ---------------------------------------------------------------------
 Rotational constants (GHZ):      6.3279740      2.6060726      2.0268515
 Standard basis: 6-311+G(2df,2p) (5D, 7F)
 There are   267 symmetry adapted basis functions of A   symmetry.
 Integral buffers will be    131072 words long.
 Raffenetti 2 integral format.
 Two-electron integral symmetry is turned on.
   267 basis functions,   389 primitive gaussians,   297 cartesian basis functions
    23 alpha electrons       22 beta electrons
       nuclear repulsion energy       213.8539051735 Hartrees.
 NAtoms=   13 NActive=   13 NUniq=   13 SFac= 1.00D+00 NAtFMM=   50 NAOKFM=F Big=F
 One-electron integrals computed using PRISM.
 NBasis=   267 RedAO= T  NBF=   267
 NBsUse=   267 1.00D-06 NBFU=   267
 Initial guess read from the read-write file.
 B after Tr=     0.000000    0.000000    0.000000
         Rot=    1.000000    0.000000    0.000000    0.000000 Ang=   0.00 deg.
 Initial guess orbital symmetries:
 Alpha Orbitals:
       Occupied  (A) (A) (A) (A) (A) (A) (A) (A) (A) (A) (A) (A)
                 (A) (A) (A) (A) (A) (A) (A) (A) (A) (A) (A)
       Virtual   (A) (A) (A) (A) (A) (A) (A) (A) (A) (A) (A) (A)
                 (A) (A) (A) (A) (A) (A) (A) (A) (A) (A) (A) (A)
                 (A) (A) (A) (A) (A) (A) (A) (A) (A) (A) (A) (A)
                 (A) (A) (A) (A) (A) (A) (A) (A) (A) (A) (A) (A)
                 (A) (A) (A) (A) (A) (A) (A) (A) (A) (A) (A) (A)
                 (A) (A) (A) (A) (A) (A) (A) (A) (A) (A) (A) (A)
                 (A) (A) (A) (A) (A) (A) (A) (A) (A) (A) (A) (A)
                 (A) (A) (A) (A) (A) (A) (A) (A) (A) (A) (A) (A)
                 (A) (A) (A) (A) (A) (A) (A) (A) (A) (A) (A) (A)
                 (A) (A) (A) (A) (A) (A) (A) (A) (A) (A) (A) (A)
                 (A) (A) (A) (A) (A) (A) (A) (A) (A) (A) (A) (A)
                 (A) (A) (A) (A) (A) (A) (A) (A) (A) (A) (A) (A)
                 (A) (A) (A) (A) (A) (A) (A) (A) (A) (A) (A) (A)
                 (A) (A) (A) (A) (A) (A) (A) (A) (A) (A) (A) (A)
                 (A) (A) (A) (A) (A) (A) (A) (A) (A) (A) (A) (A)
                 (A) (A) (A) (A) (A) (A) (A) (A) (A) (A) (A) (A)
                 (A) (A) (A) (A) (A) (A) (A) (A) (A) (A) (A) (A)
                 (A) (A) (A) (A) (A) (A) (A) (A) (A) (A) (A) (A)
                 (A) (A) (A) (A) (A) (A) (A) (A) (A) (A) (A) (A)
                 (A) (A) (A) (A) (A) (A) (A) (A) (A) (A) (A) (A)
                 (A) (A) (A) (A)
 Beta  Orbitals:
       Occupied  (A) (A) (A) (A) (A) (A) (A) (A) (A) (A) (A) (A)
                 (A) (A) (A) (A) (A) (A) (A) (A) (A) (A)
       Virtual   (A) (A) (A) (A) (A) (A) (A) (A) (A) (A) (A) (A)
                 (A) (A) (A) (A) (A) (A) (A) (A) (A) (A) (A) (A)
                 (A) (A) (A) (A) (A) (A) (A) (A) (A) (A) (A) (A)
                 (A) (A) (A) (A) (A) (A) (A) (A) (A) (A) (A) (A)
                 (A) (A) (A) (A) (A) (A) (A) (A) (A) (A) (A) (A)
                 (A) (A) (A) (A) (A) (A) (A) (A) (A) (A) (A) (A)
                 (A) (A) (A) (A) (A) (A) (A) (A) (A) (A) (A) (A)
                 (A) (A) (A) (A) (A) (A) (A) (A) (A) (A) (A) (A)
                 (A) (A) (A) (A) (A) (A) (A) (A) (A) (A) (A) (A)
                 (A) (A) (A) (A) (A) (A) (A) (A) (A) (A) (A) (A)
                 (A) (A) (A) (A) (A) (A) (A) (A) (A) (A) (A) (A)
                 (A) (A) (A) (A) (A) (A) (A) (A) (A) (A) (A) (A)
                 (A) (A) (A) (A) (A) (A) (A) (A) (A) (A) (A) (A)
                 (A) (A) (A) (A) (A) (A) (A) (A) (A) (A) (A) (A)
                 (A) (A) (A) (A) (A) (A) (A) (A) (A) (A) (A) (A)
                 (A) (A) (A) (A) (A) (A) (A) (A) (A) (A) (A) (A)
                 (A) (A) (A) (A) (A) (A) (A) (A) (A) (A) (A) (A)
                 (A) (A) (A) (A) (A) (A) (A) (A) (A) (A) (A) (A)
                 (A) (A) (A) (A) (A) (A) (A) (A) (A) (A) (A) (A)
                 (A) (A) (A) (A) (A) (A) (A) (A) (A) (A) (A) (A)
                 (A) (A) (A) (A) (A)
 Initial guess <Sx>= 0.0000 <Sy>= 0.0000 <Sz>= 0.5000 <S**2>= 0.7549 S= 0.5024
 Harris functional with IExCor= 1009 diagonalized for initial guess.
 ExpMin= 4.38D-02 ExpMax= 8.59D+03 ExpMxC= 1.30D+03 IAcc=2 IRadAn=         0 AccDes= 0.00D+00
 HarFok:  IExCor= 1009 AccDes= 0.00D+00 IRadAn=         0 IDoV= 1
 ScaDFX=  1.000000  1.000000  1.000000  1.000000
 FoFCou: FMM=F IPFlag=           0 FMFlag=      100000 FMFlg1=           0
         NFxFlg=           0 DoJE=T BraDBF=F KetDBF=T FulRan=T
         Omega=  0.000000  0.000000  1.000000  0.000000  0.000000 ICntrl=     500 IOpCl=  0
         NMat0=    1 NMatS0=    1 NMatT0=    0 NMatD0=    1 NMtDS0=    0 NMtDT0=    0
         I1Cent=           4 NGrid=           0.
 Petite list used in FoFCou.
 Requested convergence on RMS density matrix=1.00D-08 within 128 cycles.
 Requested convergence on MAX density matrix=1.00D-06.
 Requested convergence on             energy=1.00D-06.
 No special actions if energy rises.
 SCF Done:  E(UM062X) =  -269.841166833     A.U. after   14 cycles
             Convg  =    0.7247D-08             -V/T =  2.0038
 <Sx>= 0.0000 <Sy>= 0.0000 <Sz>= 0.5000 <S**2>= 0.7551 S= 0.5025
 <L.S>= 0.000000000000E+00
 Annihilation of the first spin contaminant:
 S**2 before annihilation     0.7551,   after     0.7500
 Calling FoFJK, ICntrl=      2127 FMM=F ISym2X=0 I1Cent= 0 IOpClX= 1 NMat=1 NMatS=1 NMatT=0.
 ***** Axes restored to original set *****
 -------------------------------------------------------------------
 Center     Atomic                   Forces (Hartrees/Bohr)
 Number     Number              X              Y              Z
 -------------------------------------------------------------------
      1        6           0.000957110    0.000419237    0.004785865
      2        6          -0.001015797   -0.003717860   -0.002411603
      3        6          -0.000992001    0.000849864    0.001366918
      4        6           0.006816462    0.003217507   -0.002882231
      5        6           0.001004366   -0.000072530   -0.000006278
      6        1          -0.000465675   -0.000088426   -0.001140976
      7        1          -0.000701850   -0.000290830   -0.001167180
[...]
 Vib (Bot)    8  0.306952D+00         -0.512929         -1.181063
 Vib (Bot)    9  0.240734D+00         -0.618462         -1.424062
 Vib (V=0)       0.999252D+02          1.999675          4.604422
 Vib (V=0)    1  0.366454D+01          0.564020          1.298704
 Vib (V=0)    2  0.322248D+01          0.508190          1.170152
 Vib (V=0)    3  0.256164D+01          0.408517          0.940646
 Vib (V=0)    4  0.152480D+01          0.183214          0.421866
 Vib (V=0)    5  0.132687D+01          0.122830          0.282826
 Vib (V=0)    6  0.115538D+01          0.062725          0.144430
 Vib (V=0)    7  0.110294D+01          0.042551          0.097978
 Vib (V=0)    8  0.108670D+01          0.036111          0.083148
 Vib (V=0)    9  0.105494D+01          0.023226          0.053479
 Electronic      0.200000D+01          0.301030          0.693147
 Translational   0.297483D+08          7.473462         17.208283
 Rotational      0.148792D+06          5.172580         11.910305
 ***** Axes restored to original set *****
 -------------------------------------------------------------------
 Center     Atomic                   Forces (Hartrees/Bohr)
 Number     Number              X              Y              Z
 -------------------------------------------------------------------
      1        6          -0.000000850    0.000004692   -0.000006065
      2        6          -0.000001548    0.000007758    0.000002897
      3        6           0.000000265   -0.000001260   -0.000000913
      4        6           0.000001843   -0.000009784   -0.000001751
      5        6          -0.000000084    0.000000424    0.000006007
      6        1          -0.000000799    0.000005124   -0.000017781
      7        1          -0.000002528    0.000013323   -0.000003432
      8        8          -0.000003380    0.000016984    0.000012278
      9        1           0.000001876   -0.000009307   -0.000009548
     10        1           0.000002089   -0.000011356    0.000009016
     11        1           0.000003810   -0.000019208   -0.000008613
     12        1          -0.000001803    0.000008594    0.000014548
     13        1           0.000001108   -0.000005984    0.000003357
 -------------------------------------------------------------------
 Cartesian Forces:  Max     0.000019208 RMS     0.000007928

 GradGradGradGradGradGradGradGradGradGradGradGradGradGradGradGradGradGrad
 Berny optimization.
 Internal  Forces:  Max     0.000000110 RMS     0.000000029
 Search for a local minimum.
 Step number   1 out of a maximum of    2
 All quantities printed in internal units (Hartrees-Bohrs-Radians)
 Swaping is turned off.
 Second derivative matrix not updated -- analytic derivatives used.
 ITU=  0
     Eigenvalues ---    0.00028   0.00189   0.00361   0.00770   0.02227
     Eigenvalues ---    0.02997   0.03561   0.04616   0.04713   0.04918
     Eigenvalues ---    0.07268   0.09702   0.10103   0.10221   0.10671
     Eigenvalues ---    0.12895   0.12987   0.14211   0.17126   0.20131
     Eigenvalues ---    0.21319   0.28660   0.32159   0.33159   0.34343
     Eigenvalues ---    0.34578   0.35953   0.36213   0.36505   0.36647
     Eigenvalues ---    0.36836   0.63923   0.88853
 Angle between quadratic step and forces=  77.71 degrees.
 Linear search not attempted -- option 19 set.
 Iteration  1 RMS(Cart)=  0.00002003 RMS(Int)=  0.00000000
 Iteration  2 RMS(Cart)=  0.00000000 RMS(Int)=  0.00000000
 Variable       Old X    -DE/DX   Delta X   Delta X   Delta X     New X
                                 (Linear)    (Quad)   (Total)
    R1        2.88885   0.00000   0.00000   0.00000   0.00000   2.88885
    R2        2.81059   0.00000   0.00000   0.00000   0.00000   2.81059
    R3        2.06272   0.00000   0.00000   0.00000   0.00000   2.06272
    R4        2.05938   0.00000   0.00000   0.00000   0.00000   2.05938
    R5        2.82279   0.00000   0.00000   0.00000   0.00000   2.82279
    R6        2.27587   0.00000   0.00000   0.00000   0.00000   2.27587
    R7        2.50426   0.00000   0.00000   0.00000   0.00000   2.50426
    R8        2.04757   0.00000   0.00000   0.00000   0.00000   2.04757
    R9        2.03955   0.00000   0.00000   0.00000   0.00000   2.03955
   R10        2.03800   0.00000   0.00000   0.00000   0.00000   2.03800
   R11        2.04649   0.00000   0.00000   0.00000   0.00000   2.04649
   R12        2.04294   0.00000   0.00000   0.00000   0.00000   2.04294
    A1        1.90439   0.00000   0.00000   0.00000   0.00000   1.90439
    A2        1.89857   0.00000   0.00000   0.00000   0.00000   1.89857
    A3        1.86601   0.00000   0.00000   0.00000   0.00000   1.86600
    A4        1.93354   0.00000   0.00000   0.00000   0.00000   1.93354
    A5        1.95262   0.00000   0.00000   0.00000   0.00000   1.95262
    A6        1.90681   0.00000   0.00000   0.00000   0.00000   1.90681
    A7        2.02058   0.00000   0.00000   0.00000   0.00000   2.02058
    A8        2.12559   0.00000   0.00000   0.00000   0.00000   2.12559
    A9        2.13659   0.00000   0.00000   0.00000   0.00000   2.13659
   A10        2.11153   0.00000   0.00000   0.00000   0.00000   2.11153
   A11        2.04835   0.00000   0.00000   0.00000   0.00000   2.04835
   A12        2.12321   0.00000   0.00000   0.00000   0.00000   2.12321
   A13        2.08739   0.00000   0.00000   0.00000   0.00000   2.08739
   A14        2.12333   0.00000   0.00000   0.00000   0.00000   2.12333
   A15        2.06484   0.00000   0.00000   0.00000   0.00000   2.06484
   A16        2.09076   0.00000   0.00000   0.00000   0.00000   2.09076
   A17        2.12695   0.00000   0.00000   0.00000   0.00000   2.12695
   A18        2.06548   0.00000   0.00000   0.00000   0.00000   2.06548
    D1       -1.18638   0.00000   0.00000   0.00000   0.00000  -1.18638
    D2        1.92447   0.00000   0.00000   0.00001   0.00001   1.92448
    D3        0.92484   0.00000   0.00000   0.00001   0.00001   0.92485
    D4       -2.24749   0.00000   0.00000   0.00001   0.00001  -2.24748
    D5        2.98201   0.00000   0.00000   0.00000   0.00000   2.98201
    D6       -0.19032   0.00000   0.00000   0.00000   0.00000  -0.19032
    D7       -1.23820   0.00000   0.00000   0.00004   0.00004  -1.23816
    D8        1.76877   0.00000   0.00000   0.00007   0.00007   1.76883
    D9        2.95524   0.00000   0.00000   0.00003   0.00003   2.95528
   D10       -0.32097   0.00000   0.00000   0.00006   0.00006  -0.32091
   D11        0.82297   0.00000   0.00000   0.00004   0.00004   0.82301
   D12       -2.45325   0.00000   0.00000   0.00007   0.00007  -2.45318
   D13       -3.13989   0.00000   0.00000   0.00001   0.00001  -3.13988
   D14       -0.01284   0.00000   0.00000   0.00001   0.00001  -0.01283
   D15        0.03265   0.00000   0.00000   0.00001   0.00001   0.03266
   D16       -3.12348   0.00000   0.00000   0.00001   0.00001  -3.12347
   D17       -0.01720   0.00000   0.00000   0.00000   0.00000  -0.01720
   D18        3.12557   0.00000   0.00000   0.00000   0.00000   3.12556
   D19        3.13956   0.00000   0.00000   0.00000   0.00000   3.13956
   D20       -0.00086   0.00000   0.00000   0.00000   0.00000  -0.00085
         Item               Value     Threshold  Converged?
 Maximum Force            0.000000     0.000002     YES
 RMS     Force            0.000000     0.000001     YES
 Maximum Displacement     0.000106     0.000006     NO 
 RMS     Displacement     0.000020     0.000004     NO 
 Predicted change in Energy=-2.845666D-12
 GradGradGradGradGradGradGradGradGradGradGradGradGradGradGradGradGradGrad


 Test job not archived.
 1\1\GINC-COMPUTE-3-041\Freq\UM062X\6-311+G(2df,2p)\C5H7O1(2)\ROOT\07-M
 ar-2017\0\\#N Geom=AllCheck Guess=TCheck SCRF=Check Test GenChk UM062X
 /6-311+G(2df,2p) Freq\\InChI=1S/C5H7O/c1-3-5(6)4-2/h3H,1-2,4H2/u2\\0,2
 \C,1.3792463492,-0.2902699367,-0.5182234521\C,-0.0173155054,0.25208899
 91,-0.8222486505\C,-1.1246835087,-0.2995973796,0.0148257134\C,1.804098
 2038,0.1844055725,0.8257431139\C,-2.3765830137,0.0972202393,-0.1624652
 97\H,1.3476701151,-1.3808442091,-0.5516956237\H,2.0392198856,0.0744159
 489,-1.3050252328\O,-0.2014690279,1.0950974367,-1.6623996957\H,-0.8638
 425759,-1.043222181,0.7584757403\H,2.0510067313,1.2251096438,0.9700624
 249\H,1.7566331853,-0.4549507967,1.692952151\H,-2.6031136777,0.8439469
 738,-0.9133825139\H,-3.1908671611,-0.3032003109,0.4251813223\\Version=
 EM64L-G09RevB.01\State=2-A\HF=-269.8427355\S2=0.756659\S2-1=0.\S2A=0.7
 50036\RMSD=5.017e-09\RMSF=7.928e-06\ZeroPoint=0.1038448\Thermal=0.1113
 048\Dipole=-0.0290391,-0.7328778,0.7769763\DipoleDeriv=-0.2877403,0.11
 9871,-0.1732629,0.0473476,0.0271185,0.0479592,-0.182415,0.072711,-0.09
 28469,1.4616454,-0.108285,0.0650304,-0.053715,0.5733034,-0.6015232,-0.
 1908166,-0.4390459,0.7636841,-0.6053321,-0.080796,0.1693628,0.0309889,
 -0.0861859,-0.0707582,0.1490118,-0.0871833,-0.0912411,-0.4300556,0.117
 06,0.0128263,0.160751,0.0505364,0.0099626,0.1216247,-0.0315619,0.11579
 59,0.0634374,-0.0056447,-0.0650528,-0.0950227,-0.0836211,-0.1131021,0.
 0278488,-0.1221358,-0.0660536,0.0606657,-0.0306268,-0.0124424,-0.02377
 4,-0.0702965,-0.0306376,-0.0082719,-0.0096954,0.0575083,0.0205787,-0.0
 070897,0.0392304,-0.0459122,0.0572183,0.0255592,0.0462027,0.008311,-0.
 0291852,-0.6770263,0.0512814,-0.0557362,0.0378213,-0.6667053,0.5090911
 ,0.0762704,0.3633964,-0.8074287,0.0293029,0.0362657,-0.0135565,0.03152
 88,0.04508,0.0947715,-0.003303,0.0997326,0.0371733,0.1250118,-0.027239
 7,-0.0259765,-0.0459978,-0.0258334,-0.0250275,-0.0380118,0.006586,0.01
 14068,0.1476094,-0.0403451,0.0000513,-0.0417652,0.0126844,0.040707,-0.
 0337942,0.0203697,-0.0331747,0.0837138,-0.0080485,0.0236872,0.0395643,
 0.0799629,0.0611774,-0.0140545,0.0675028,0.0717629,0.0081892,-0.016402
 8,0.035839,-0.0418152,0.0867384,0.0518205,0.0497084,0.0510127,0.062599
 \Polar=82.6171586,-2.423806,51.5646265,3.4077997,-6.1851696,57.8618785
 \PG=C01 [X(C5H7O1)]\NImag=0\\0.41817688,0.04851737,0.56438424,-0.07577
 609,-0.03276100,0.50954011,-0.15124898,0.02003726,0.01726289,0.4992406
 5,0.01033195,-0.08607108,-0.00970017,-0.07705431,0.59317236,0.00298168
 ,0.00130730,-0.06529984,0.01877806,-0.36992454,0.60285655,-0.02489575,
 -0.00624976,0.01570971,-0.16497517,-0.00985846,0.02846268,0.77848018,0
 .01058854,0.01423364,-0.00005166,-0.02827704,-0.09813175,0.02754648,-0
 .15765351,0.39504568,-0.00381574,0.00478327,0.01046453,0.05292397,0.02
 218849,-0.11435674,0.03404311,-0.26631040,0.39684618,-0.04926299,-0.03
 245872,-0.04531394,-0.01409666,-0.00695648,-0.02523859,0.00048185,0.00
 092093,0.00182450,0.09880741,-0.02313519,-0.09718716,-0.03802019,-0.00
 605098,0.00525729,0.00557421,0.00029407,-0.00047728,-0.00056575,0.1271
 8048,0.59194145,-0.03360381,-0.05296891,-0.20681135,-0.02415729,0.0056
 9427,-0.02042800,0.00315902,0.00045812,0.00256608,0.07276699,-0.057498
 44,0.54882106,-0.00151145,-0.00268218,0.00288393,-0.03471414,-0.003202
 32,0.01095464,-0.50879227,0.13880818,-0.05834485,0.00011298,0.00029120
 ,0.00006713,0.83512101,-0.00249262,-0.00104188,0.00155313,-0.00866889,
 0.01330960,-0.00699607,0.13176584,-0.12633404,0.05138632,-0.00007584,0
 .00023825,0.00043167,-0.10396079,0.39228789,0.00372870,0.00128750,-0.0
 0134099,0.01692468,-0.00720489,0.01026554,-0.05152575,0.04986360,-0.09
 696025,-0.00082159,-0.00014276,-0.00098334,-0.02907598,-0.26547991,0.4
 1326238,-0.04705988,-0.00458409,0.00751793,0.00564895,0.03201894,0.001
 30824,-0.00067354,-0.00253419,-0.00127752,-0.00119434,-0.01345992,-0.0
 0098059,0.00064863,-0.00013555,0.00013063,0.04811840,-0.00816627,-0.30
 737103,-0.00553628,-0.00211994,-0.01238876,0.00149048,-0.00044320,0.00
 093459,0.00085282,-0.00117295,-0.00965501,-0.00086035,0.00033225,0.000
 27014,-0.00010152,0.00746668,0.33377532,0.00605463,-0.00150089,-0.0446
 5259,0.00088254,0.00828054,-0.00134584,0.00049136,-0.00090383,-0.00003
 529,-0.00341234,-0.03354613,-0.00235057,-0.00021588,0.00013941,-0.0001
 4321,0.00141025,0.00648622,0.05051785,-0.13840009,-0.05516422,0.116211
 63,-0.02665867,-0.01197188,0.02486705,-0.00428764,0.00349227,-0.002268
 82,0.00675561,0.00569217,-0.01026933,-0.00096682,-0.00079764,0.0009297
 3,0.00025477,0.00038261,-0.00179117,0.15776434,-0.05731232,-0.08369371
 ,0.06275153,0.00926477,0.00286592,-0.00699163,0.00133097,0.00013419,0.
 00166959,0.00573002,0.00570831,-0.00594878,0.00024859,0.00041368,-0.00
 032031,-0.01926556,-0.00770059,0.02156152,0.06022926,0.08181281,0.1237
 6732,0.06477789,-0.18019844,-0.00480141,-0.00025229,0.00378857,-0.0009
 0476,0.00068545,0.00014045,0.01114380,0.01021083,-0.02477905,-0.000327
 03,-0.00004937,0.00014095,-0.00253513,-0.00078576,0.00208600,-0.125209
 74,-0.07040251,0.19981136,-0.00677627,0.03604714,-0.03178745,-0.122650
 71,0.07754043,-0.07018965,0.01564230,-0.02185564,0.02289284,0.00023286
 ,0.00369580,0.00176308,-0.00217559,-0.00089100,0.00170402,-0.00618246,
 0.00352044,-0.00316488,0.00607362,-0.00072471,-0.00060168,0.11898241,0
 .02251194,-0.00781157,0.03319183,0.08226110,-0.41191167,0.33957851,-0.
 01863487,-0.01520198,0.03839139,0.00327004,-0.00433234,-0.00148482,0.0
 0728388,-0.00295593,0.00190711,-0.00010964,-0.00019554,-0.00013373,-0.
 00151727,0.00020222,-0.00133591,-0.09143289,0.44002497,-0.01912784,0.0
 2776944,-0.00711141,-0.07232170,0.34101869,-0.40795064,0.02007737,0.03
 994526,-0.02817766,0.00183184,0.00130780,0.00467189,-0.00704226,0.0035
 7245,-0.00200103,-0.00416246,0.00036022,-0.00101202,-0.00070011,-0.001
 08841,0.00065078,0.07506121,-0.41370423,0.44286695,-0.00083042,0.00024
 364,-0.00056628,0.01129055,-0.01456548,0.01303150,-0.07127769,0.045739
 06,-0.04161700,-0.00037865,-0.00017945,0.00037840,-0.00427966,0.023383
 69,-0.02290196,-0.00054015,0.00012303,0.00026241,0.00048511,0.00009023
 ,-0.00016700,-0.00472991,-0.00319105,0.00503458,0.07421855,-0.00037465
 ,0.00009877,-0.00078196,0.00766847,-0.00468908,0.00423022,0.04564307,-
 0.17938390,0.14205210,0.00005530,-0.00013988,0.00007539,0.00083980,-0.
 00089749,0.00752263,0.00000828,0.00017052,-0.00004762,0.00008961,0.000
 02962,0.00001006,-0.00251971,0.00002199,0.00297916,-0.05251204,0.18206
 680,0.00020669,-0.00025219,0.00020033,-0.00957837,0.00921373,-0.006814
 90,-0.04160563,0.14159699,-0.18209986,-0.00029787,-0.00029284,0.000062
 92,0.00095325,0.00305642,0.00276622,0.00053572,-0.00035705,-0.00009757
 ,-0.00018489,-0.00027215,-0.00006275,0.00391459,0.00312315,-0.00191393
 ,0.04624745,-0.15668753,0.18525643,-0.00222860,-0.00783459,0.00028359,
 0.00206836,-0.00171854,0.00030615,-0.00009836,-0.00016901,-0.00008701,
 -0.02945868,-0.07254622,-0.01479218,-0.00013471,0.00012032,0.00006032,
 0.00076867,0.00041440,-0.00123054,0.00056481,0.00073805,-0.00058316,-0
 .00040643,0.00098805,-0.00021089,0.00003140,-0.00009942,-0.00005935,0.
 02610985,0.00015075,-0.00361830,0.00059451,0.00053886,0.00001961,0.000
 07708,-0.00019157,-0.00012226,0.00010312,-0.07714342,-0.32891712,-0.03
 300731,-0.00000452,0.00003409,-0.00002059,-0.00043841,0.00092151,-0.00
 105929,-0.00012880,0.00028762,-0.00012792,-0.00048696,0.00016441,-0.00
 031667,0.00006934,0.00004352,-0.00004583,0.08071791,0.34070493,-0.0063
 8956,-0.02553215,-0.00060141,0.00183755,-0.00219811,0.00106582,-0.0001
 9525,0.00026000,-0.00007747,-0.01528579,-0.03225897,-0.05875833,0.0000
 3338,-0.00010734,0.00012086,-0.00247849,-0.00166939,-0.00463240,0.0007
 0337,0.00030183,0.00142157,-0.00013977,0.00116291,-0.00044715,-0.00005
 780,-0.00002419,-0.00006057,0.01678205,0.03864137,0.05532186,0.0044216
 6,0.00514118,-0.00777679,-0.00041369,-0.00044231,-0.00036552,-0.000203
 40,0.00030954,-0.00011264,-0.01217784,-0.02169098,0.00563200,-0.000003
 94,-0.00011485,0.00018500,-0.00001504,-0.00022430,0.00071495,-0.001057
 95,-0.00041410,0.00029833,-0.00014048,0.00029081,0.00026944,-0.0003798
 2,-0.00018018,-0.00015674,0.00281885,-0.00306840,0.00520069,0.00713773
 ,-0.00107338,0.00839191,-0.01063448,0.00106825,-0.00094309,-0.00094249
 ,-0.00014915,-0.00003585,-0.00004259,-0.01931691,-0.16247499,0.1453735
 5,-0.00005427,-0.00002385,-0.00001446,0.00086497,0.00134222,0.00069511
 ,-0.00044002,0.00005803,-0.00266161,-0.00069466,0.00109576,-0.00021488
 ,-0.00002908,0.00009625,-0.00000058,-0.00060604,-0.00951539,0.02142235
 ,0.02044372,0.16199760,0.00266504,0.01345991,-0.01391965,0.00258448,-0
 .00096593,-0.00197030,-0.00027810,0.00058717,-0.00018722,0.00265773,0.
 14518595,-0.24204176,-0.00011183,-0.00023199,0.00033054,0.00045819,0.0
 0024142,0.00161390,-0.00218805,-0.00113879,-0.00299530,-0.00134049,0.0
 0093087,0.00013679,-0.00019693,-0.00021967,0.00015585,-0.00043394,-0.0
 0483147,0.00666831,-0.00385764,-0.15300264,0.25225177,0.00054291,-0.00
 012405,0.00045853,-0.00014393,0.00099749,-0.00273772,-0.00200532,0.023
 21249,-0.02290670,0.00005227,-0.00011781,-0.00011545,-0.06891671,0.038
 59332,-0.03630211,0.00013626,-0.00012632,-0.00001578,-0.00007964,-0.00
 003506,0.00000964,0.00077444,-0.00116716,0.00128048,-0.00465647,0.0021
 0835,0.00103667,-0.00001660,-0.00001081,0.00002070,0.00004472,-0.00000
 280,0.00009302,0.06661832,-0.00002048,0.00044277,0.00027969,-0.0011942
 2,-0.00588923,-0.00325636,0.00321941,-0.00127092,0.00873348,0.00040745
 ,0.00007551,0.00019539,0.04250447,-0.18473351,0.14363062,-0.00007544,-
 0.00005534,0.00001898,0.00002636,0.00002600,-0.00001588,-0.00120335,0.
 00077768,-0.00000005,0.00201479,0.00636900,0.00515341,0.,-0.00000393,-
 0.00000743,-0.00003220,0.00002063,-0.00004050,-0.04890196,0.18580858,-
 0.00047659,0.00064986,0.00019705,-0.00013994,-0.00396778,-0.00511947,-
 0.00166636,0.00498976,0.00246884,0.00052047,0.00008541,0.00031848,-0.0
 4047399,0.14432845,-0.18858034,-0.00021359,-0.00006167,0.00000856,0.00
 002597,-0.00000378,0.00001589,0.00115071,-0.00017977,0.00050851,0.0010
 0494,0.00532903,0.00580820,-0.00002516,-0.00001327,-0.00000957,-0.0000
 1012,0.00003470,-0.00005548,0.04436485,-0.16061899,0.18904515,-0.00092
 703,-0.00088898,0.00089234,-0.00334657,0.00488097,-0.00215852,-0.01739
 518,-0.01258162,0.01874586,0.00012618,0.00002683,0.00015204,-0.2143873
 2,-0.07672599,0.11696432,0.00008972,0.00001357,0.00001445,-0.00044744,
 0.00011987,-0.00008916,0.00135621,-0.00055294,0.00001037,0.00104715,-0
 .00072689,-0.00101152,-0.00001855,-0.00000396,-0.00003107,-0.00003081,
 -0.00001064,-0.00005147,0.00764973,0.00325517,-0.00406120,0.22628391,0
 .00047436,-0.00075659,-0.00088494,0.00252668,0.00539988,0.00830680,0.0
 1092716,0.01060988,-0.00324185,-0.00043990,-0.00003704,-0.00045978,-0.
 08040429,-0.09056694,0.06907297,0.00024392,-0.00004803,0.00000973,0.00
 010755,-0.00014410,-0.00005298,-0.00099490,0.00012200,-0.00162877,-0.0
 0118667,-0.00378612,-0.00423555,-0.00000491,0.00000129,0.00000912,-0.0
 0001794,-0.00000923,0.00002566,-0.01442569,-0.00156725,0.00942807,0.08
 319462,0.08078224,-0.00021443,-0.00102002,-0.00046634,-0.00019545,0.00
 781800,0.00530925,-0.00576738,0.00133306,0.00940841,-0.00037520,-0.000
 03913,-0.00028802,0.12069949,0.06839683,-0.13687735,0.00028683,-0.0000
 5914,0.00004317,-0.00012564,-0.00011810,-0.00002002,0.00073748,-0.0014
 4731,-0.00022108,-0.00045231,-0.00443761,-0.00320038,-0.00000988,0.000
 00627,-0.00001153,-0.00002095,-0.00001198,0.00001256,0.01481387,0.0059
 2763,-0.00460582,-0.12937643,-0.07634850,0.13091715\\0.00000085,-0.000
 00469,0.00000607,0.00000155,-0.00000776,-0.00000290,-0.00000027,0.0000
 0126,0.00000091,-0.00000184,0.00000978,0.00000175,0.00000008,-0.000000
 42,-0.00000601,0.00000080,-0.00000512,0.00001778,0.00000253,-0.0000133
 2,0.00000343,0.00000338,-0.00001698,-0.00001228,-0.00000188,0.00000931
 ,0.00000955,-0.00000209,0.00001136,-0.00000902,-0.00000381,0.00001921,
 0.00000861,0.00000180,-0.00000859,-0.00001455,-0.00000111,0.00000598,-
 0.00000336\\\@


 ART, GLORY, FREEDOM FAIL, BUT NATURE STILL IS FAIR.

                                           -- BYRON
 Job cpu time:  0 days  2 hours 29 minutes 15.3 seconds.
 File lengths (MBytes):  RWF=   2544 Int=      0 D2E=      0 Chk=     32 Scr=     32
 Normal termination of Gaussian 09 at Tue Mar  7 21:18:11 2017.
