 Entering Gaussian System, Link 0=/shared/apps/gaussian/G09_LINUX_LINDA/g09/g09
 Input=/gss_gpfs_scratch/harms.n/QMscratch/ANULSIHYRBSZSF-UHFFFAOYSA.gjf
 Output=/gss_gpfs_scratch/harms.n/QMscratch/ANULSIHYRBSZSF-UHFFFAOYSA.log
 Initial command:
 /shared/apps/gaussian/G09_LINUX_LINDA/g09/l1.exe /gss_gpfs_scratch/harms.n/comparerTST/Gau-20762.inp -scrdir=/gss_gpfs_scratch/harms.n/comparerTST/
 Entering Link 1 = /shared/apps/gaussian/G09_LINUX_LINDA/g09/l1.exe PID=     20763.
  
 Copyright (c) 1988,1990,1992,1993,1995,1998,2003,2009,2010,
            Gaussian, Inc.  All Rights Reserved.
  
 This is part of the Gaussian(R) 09 program.  It is based on
 the Gaussian(R) 03 system (copyright 2003, Gaussian, Inc.),
 the Gaussian(R) 98 system (copyright 1998, Gaussian, Inc.),
 the Gaussian(R) 94 system (copyright 1995, Gaussian, Inc.),
 the Gaussian 92(TM) system (copyright 1992, Gaussian, Inc.),
 the Gaussian 90(TM) system (copyright 1990, Gaussian, Inc.),
 the Gaussian 88(TM) system (copyright 1988, Gaussian, Inc.),
 the Gaussian 86(TM) system (copyright 1986, Carnegie Mellon
 University), and the Gaussian 82(TM) system (copyright 1983,
 Carnegie Mellon University). Gaussian is a federally registered
 trademark of Gaussian, Inc.
  
 This software contains proprietary and confidential information,
 including trade secrets, belonging to Gaussian, Inc.
  
 This software is provided under written license and may be
 used, copied, transmitted, or stored only in accord with that
 written license.
  
 The following legend is applicable only to US Government
 contracts under FAR:
  
                    RESTRICTED RIGHTS LEGEND
  
 Use, reproduction and disclosure by the US Government is
 subject to restrictions as set forth in subparagraphs (a)
 and (c) of the Commercial Computer Software - Restricted
 Rights clause in FAR 52.227-19.
  
 Gaussian, Inc.
 340 Quinnipiac St., Bldg. 40, Wallingford CT 06492
  
  
 ---------------------------------------------------------------
 Warning -- This program may not be used in any manner that
 competes with the business of Gaussian, Inc. or will provide
 assistance to any competitor of Gaussian, Inc.  The licensee
 of this program is prohibited from giving any competitor of
 Gaussian, Inc. access to this program.  By using this program,
 the user acknowledges that Gaussian, Inc. is engaged in the
 business of creating and licensing software in the field of
 computational chemistry and represents and warrants to the
 licensee that it is not a competitor of Gaussian, Inc. and that
 it will not use this program in any manner prohibited above.
 ---------------------------------------------------------------
  

 Cite this work as:
 Gaussian 09, Revision B.01,
 M. J. Frisch, G. W. Trucks, H. B. Schlegel, G. E. Scuseria, 
 M. A. Robb, J. R. Cheeseman, G. Scalmani, V. Barone, B. Mennucci, 
 G. A. Petersson, H. Nakatsuji, M. Caricato, X. Li, H. P. Hratchian, 
 A. F. Izmaylov, J. Bloino, G. Zheng, J. L. Sonnenberg, M. Hada, 
 M. Ehara, K. Toyota, R. Fukuda, J. Hasegawa, M. Ishida, T. Nakajima, 
 Y. Honda, O. Kitao, H. Nakai, T. Vreven, J. A. Montgomery, Jr., 
 J. E. Peralta, F. Ogliaro, M. Bearpark, J. J. Heyd, E. Brothers, 
 K. N. Kudin, V. N. Staroverov, T. Keith, R. Kobayashi, J. Normand, 
 K. Raghavachari, A. Rendell, J. C. Burant, S. S. Iyengar, J. Tomasi, 
 M. Cossi, N. Rega, J. M. Millam, M. Klene, J. E. Knox, J. B. Cross, 
 V. Bakken, C. Adamo, J. Jaramillo, R. Gomperts, R. E. Stratmann, 
 O. Yazyev, A. J. Austin, R. Cammi, C. Pomelli, J. W. Ochterski, 
 R. L. Martin, K. Morokuma, V. G. Zakrzewski, G. A. Voth, 
 P. Salvador, J. J. Dannenberg, S. Dapprich, A. D. Daniels, 
 O. Farkas, J. B. Foresman, J. V. Ortiz, J. Cioslowski, 
 and D. J. Fox, Gaussian, Inc., Wallingford CT, 2010.
 
 ******************************************
 Gaussian 09:  EM64L-G09RevB.01 12-Aug-2010
                19-Sep-2017 
 ******************************************
 %nprocshared=20
 Will use up to   20 processors via shared memory.
 %mem=5GB
 --------------------------------------------------------------
 # m062x/6-311+g(2df,2p) opt=(verytight,gdiis) freq IOP(2/16=3)
 --------------------------------------------------------------

 Warning!  Use of Opt=GDIIS is deprecated since it is seldom a good choice.

 1/7=1,14=-1,18=20,19=11,26=3,38=1/1,3;
 2/9=110,12=2,16=3,17=6,18=5,40=1/2;
 3/5=4,6=6,7=214,11=2,16=1,25=1,30=1,71=1,74=-55/1,2,3;
 4//1;
 5/5=2,38=5/2;
 6/7=2,8=2,9=2,10=2,28=1/1;
 7//1,2,3,16;
 1/7=1,14=-1,18=20,19=11/3(2);
 2/9=110,16=3/2;
 99//99;
 2/9=110,16=3/2;
 3/5=4,6=6,7=214,11=2,16=1,25=1,30=1,71=1,74=-55/1,2,3;
 4/5=5,16=3/1;
 5/5=2,38=5/2;
 7//1,2,3,16;
 1/7=1,14=-1,18=20,19=11/3(-5);
 2/9=110,16=3/2;
 6/7=2,8=2,9=2,10=2,19=2,28=1/1;
 99/9=1/99;
 --------------------------------------------------
 InChI=1S/C6H12O/c1-3-6-5(2)4-7-6/h5-6H,3-4H2,1-2H3
 --------------------------------------------------
 Symbolic Z-matrix:
 Charge =  0 Multiplicity = 1
 C                    -0.8427    0.3312    0.3607 
 C                     0.1149   -0.017    -0.7662 
 C                     1.5907    0.2742   -0.4551 
 C                    -1.3586    1.3506   -0.631 
 C                    -1.8424   -0.7794    0.6913 
 C                     2.1738   -0.7653    0.4985 
 O                    -0.4248    0.9698   -1.6153 
 H                    -0.3712    0.7965    1.2547 
 H                    -0.035    -1.0318   -1.2013 
 H                     2.1677    0.2501   -1.4045 
 H                     1.7028    1.2886   -0.0129 
 H                    -2.4006    1.1717   -0.9782 
 H                    -1.1813    2.3973   -0.2993 
 H                     2.0934   -1.7813    0.0566 
 H                     1.6375   -0.746     1.4707 
 H                     3.2458   -0.5412    0.6813 
 H                    -1.3201   -1.5953    1.2334 
 H                    -2.6434   -0.3739    1.3443 
 H                    -2.3065   -1.1988   -0.2278 
 

 GradGradGradGradGradGradGradGradGradGradGradGradGradGradGradGradGradGrad
 Berny optimization.
 Initialization pass.
                           ----------------------------
                           !    Initial Parameters    !
                           ! (Angstroms and Degrees)  !
 --------------------------                            --------------------------
 ! Name  Definition              Value          Derivative Info.                !
 --------------------------------------------------------------------------------
 ! R1    R(1,2)                  1.5193         estimate D2E/DX2                !
 ! R2    R(1,4)                  1.5129         estimate D2E/DX2                !
 ! R3    R(1,5)                  1.5304         estimate D2E/DX2                !
 ! R4    R(1,8)                  1.1127         estimate D2E/DX2                !
 ! R5    R(2,3)                  1.5361         estimate D2E/DX2                !
 ! R6    R(2,7)                  1.4093         estimate D2E/DX2                !
 ! R7    R(2,9)                  1.1143         estimate D2E/DX2                !
 ! R8    R(3,6)                  1.5264         estimate D2E/DX2                !
 ! R9    R(3,10)                 1.1112         estimate D2E/DX2                !
 ! R10   R(3,11)                 1.1123         estimate D2E/DX2                !
 ! R11   R(4,7)                  1.4092         estimate D2E/DX2                !
 ! R12   R(4,12)                 1.1128         estimate D2E/DX2                !
 ! R13   R(4,13)                 1.1122         estimate D2E/DX2                !
 ! R14   R(5,17)                 1.1101         estimate D2E/DX2                !
 ! R15   R(5,18)                 1.1102         estimate D2E/DX2                !
 ! R16   R(5,19)                 1.1118         estimate D2E/DX2                !
 ! R17   R(6,14)                 1.1109         estimate D2E/DX2                !
 ! R18   R(6,15)                 1.1105         estimate D2E/DX2                !
 ! R19   R(6,16)                 1.1103         estimate D2E/DX2                !
 ! A1    A(2,1,4)               83.2899         estimate D2E/DX2                !
 ! A2    A(2,1,5)              113.9316         estimate D2E/DX2                !
 ! A3    A(2,1,8)              115.1326         estimate D2E/DX2                !
 ! A4    A(4,1,5)              114.0687         estimate D2E/DX2                !
 ! A5    A(4,1,8)              112.9174         estimate D2E/DX2                !
 ! A6    A(5,1,8)              113.9984         estimate D2E/DX2                !
 ! A7    A(1,2,3)              114.3241         estimate D2E/DX2                !
 ! A8    A(1,2,7)               92.5814         estimate D2E/DX2                !
 ! A9    A(1,2,9)              114.4295         estimate D2E/DX2                !
 ! A10   A(3,2,7)              110.9294         estimate D2E/DX2                !
 ! A11   A(3,2,9)              112.3944         estimate D2E/DX2                !
 ! A12   A(7,2,9)              110.544          estimate D2E/DX2                !
 ! A13   A(2,3,6)              111.3731         estimate D2E/DX2                !
 ! A14   A(2,3,10)             108.7667         estimate D2E/DX2                !
 ! A15   A(2,3,11)             110.5022         estimate D2E/DX2                !
 ! A16   A(6,3,10)             108.7007         estimate D2E/DX2                !
 ! A17   A(6,3,11)             109.525          estimate D2E/DX2                !
 ! A18   A(10,3,11)            107.8854         estimate D2E/DX2                !
 ! A19   A(1,4,7)               92.8552         estimate D2E/DX2                !
 ! A20   A(1,4,12)             114.5512         estimate D2E/DX2                !
 ! A21   A(1,4,13)             112.5982         estimate D2E/DX2                !
 ! A22   A(7,4,12)             111.0458         estimate D2E/DX2                !
 ! A23   A(7,4,13)             110.915          estimate D2E/DX2                !
 ! A24   A(12,4,13)            113.1795         estimate D2E/DX2                !
 ! A25   A(1,5,17)             109.3605         estimate D2E/DX2                !
 ! A26   A(1,5,18)             109.47           estimate D2E/DX2                !
 ! A27   A(1,5,19)             111.5835         estimate D2E/DX2                !
 ! A28   A(17,5,18)            108.7046         estimate D2E/DX2                !
 ! A29   A(17,5,19)            108.8351         estimate D2E/DX2                !
 ! A30   A(18,5,19)            108.8365         estimate D2E/DX2                !
 ! A31   A(3,6,14)             110.2851         estimate D2E/DX2                !
 ! A32   A(3,6,15)             110.5251         estimate D2E/DX2                !
 ! A33   A(3,6,16)             109.5255         estimate D2E/DX2                !
 ! A34   A(14,6,15)            109.2208         estimate D2E/DX2                !
 ! A35   A(14,6,16)            108.6611         estimate D2E/DX2                !
 ! A36   A(15,6,16)            108.5802         estimate D2E/DX2                !
 ! A37   A(2,7,4)               91.2689         estimate D2E/DX2                !
 ! D1    D(4,1,2,3)            114.8818         estimate D2E/DX2                !
 ! D2    D(4,1,2,7)              0.5013         estimate D2E/DX2                !
 ! D3    D(4,1,2,9)           -113.4716         estimate D2E/DX2                !
 ! D4    D(5,1,2,3)           -131.724          estimate D2E/DX2                !
 ! D5    D(5,1,2,7)            113.8954         estimate D2E/DX2                !
 ! D6    D(5,1,2,9)             -0.0775         estimate D2E/DX2                !
 ! D7    D(8,1,2,3)              2.6784         estimate D2E/DX2                !
 ! D8    D(8,1,2,7)           -111.7022         estimate D2E/DX2                !
 ! D9    D(8,1,2,9)            134.3249         estimate D2E/DX2                !
 ! D10   D(2,1,4,7)             -0.5014         estimate D2E/DX2                !
 ! D11   D(2,1,4,12)           114.2121         estimate D2E/DX2                !
 ! D12   D(2,1,4,13)          -114.575          estimate D2E/DX2                !
 ! D13   D(5,1,4,7)           -113.7539         estimate D2E/DX2                !
 ! D14   D(5,1,4,12)             0.9596         estimate D2E/DX2                !
 ! D15   D(5,1,4,13)           132.1725         estimate D2E/DX2                !
 ! D16   D(8,1,4,7)            113.9897         estimate D2E/DX2                !
 ! D17   D(8,1,4,12)          -131.2968         estimate D2E/DX2                !
 ! D18   D(8,1,4,13)            -0.0839         estimate D2E/DX2                !
 ! D19   D(2,1,5,17)            74.0297         estimate D2E/DX2                !
 ! D20   D(2,1,5,18)          -166.9741         estimate D2E/DX2                !
 ! D21   D(2,1,5,19)           -46.4349         estimate D2E/DX2                !
 ! D22   D(4,1,5,17)           167.3674         estimate D2E/DX2                !
 ! D23   D(4,1,5,18)           -73.6364         estimate D2E/DX2                !
 ! D24   D(4,1,5,19)            46.9028         estimate D2E/DX2                !
 ! D25   D(8,1,5,17)           -60.8973         estimate D2E/DX2                !
 ! D26   D(8,1,5,18)            58.0989         estimate D2E/DX2                !
 ! D27   D(8,1,5,19)           178.6381         estimate D2E/DX2                !
 ! D28   D(1,2,3,6)             75.2084         estimate D2E/DX2                !
 ! D29   D(1,2,3,10)          -165.0157         estimate D2E/DX2                !
 ! D30   D(1,2,3,11)           -46.764          estimate D2E/DX2                !
 ! D31   D(7,2,3,6)            178.2581         estimate D2E/DX2                !
 ! D32   D(7,2,3,10)           -61.966          estimate D2E/DX2                !
 ! D33   D(7,2,3,11)            56.2857         estimate D2E/DX2                !
 ! D34   D(9,2,3,6)            -57.4123         estimate D2E/DX2                !
 ! D35   D(9,2,3,10)            62.3636         estimate D2E/DX2                !
 ! D36   D(9,2,3,11)          -179.3847         estimate D2E/DX2                !
 ! D37   D(1,2,7,4)             -0.5346         estimate D2E/DX2                !
 ! D38   D(3,2,7,4)           -117.8369         estimate D2E/DX2                !
 ! D39   D(9,2,7,4)            116.7884         estimate D2E/DX2                !
 ! D40   D(2,3,6,14)            59.0027         estimate D2E/DX2                !
 ! D41   D(2,3,6,15)           -61.8708         estimate D2E/DX2                !
 ! D42   D(2,3,6,16)           178.5416         estimate D2E/DX2                !
 ! D43   D(10,3,6,14)          -60.8123         estimate D2E/DX2                !
 ! D44   D(10,3,6,15)          178.3141         estimate D2E/DX2                !
 ! D45   D(10,3,6,16)           58.7265         estimate D2E/DX2                !
 ! D46   D(11,3,6,14)         -178.4609         estimate D2E/DX2                !
 ! D47   D(11,3,6,15)           60.6656         estimate D2E/DX2                !
 ! D48   D(11,3,6,16)          -58.922          estimate D2E/DX2                !
 ! D49   D(1,4,7,2)              0.537          estimate D2E/DX2                !
 ! D50   D(12,4,7,2)          -117.1699         estimate D2E/DX2                !
 ! D51   D(13,4,7,2)           116.0644         estimate D2E/DX2                !
 --------------------------------------------------------------------------------
 Trust Radius=3.00D-01 FncErr=1.00D-07 GrdErr=1.00D-06
 Number of steps in this run=    114 maximum allowed number of steps=    114.
 GradGradGradGradGradGradGradGradGradGradGradGradGradGradGradGradGradGrad

                          Input orientation:                          
 ---------------------------------------------------------------------
 Center     Atomic      Atomic             Coordinates (Angstroms)
 Number     Number       Type             X           Y           Z
 ---------------------------------------------------------------------
      1          6           0       -0.842700    0.331200    0.360700
      2          6           0        0.114900   -0.017000   -0.766200
      3          6           0        1.590700    0.274200   -0.455100
      4          6           0       -1.358600    1.350600   -0.631000
      5          6           0       -1.842400   -0.779400    0.691300
      6          6           0        2.173800   -0.765300    0.498500
      7          8           0       -0.424800    0.969800   -1.615300
      8          1           0       -0.371200    0.796500    1.254700
      9          1           0       -0.035000   -1.031800   -1.201300
     10          1           0        2.167700    0.250100   -1.404500
     11          1           0        1.702800    1.288600   -0.012900
     12          1           0       -2.400600    1.171700   -0.978200
     13          1           0       -1.181300    2.397300   -0.299300
     14          1           0        2.093400   -1.781300    0.056600
     15          1           0        1.637500   -0.746000    1.470700
     16          1           0        3.245800   -0.541200    0.681300
     17          1           0       -1.320100   -1.595300    1.233400
     18          1           0       -2.643400   -0.373900    1.344300
     19          1           0       -2.306500   -1.198800   -0.227800
 ---------------------------------------------------------------------
                    Distance matrix (angstroms):
                    1          2          3          4          5
     1  C    0.000000
     2  C    1.519258   0.000000
     3  C    2.567141   1.536088   0.000000
     4  C    1.512877   2.014897   3.144511   0.000000
     5  C    1.530402   2.556674   3.769679   2.553319   0.000000
     6  C    3.212565   2.529523   1.526407   4.269737   4.020850
     7  O    2.118260   1.409263   2.427378   1.409197   3.223305
     8  H    1.112678   2.232065   2.654292   2.199511   2.228298
     9  H    2.224858   1.114272   2.214803   2.784419   2.629132
    10  H    3.490704   2.166277   1.111247   3.774148   4.640383
    11  H    2.745134   2.189401   1.112257   3.123790   4.164248
    12  H    2.219492   2.790285   4.124272   1.112797   2.627852
    13  H    2.195226   2.779744   3.495112   1.112223   3.392604
    14  H    3.629851   2.775647   2.177068   4.711464   4.110617
    15  H    2.922987   2.802405   2.179840   4.217759   3.566270
    16  H    4.192815   3.488922   2.166942   5.147964   5.093782
    17  H    2.168160   2.923808   3.849522   3.486516   1.110118
    18  H    2.169598   3.491390   4.646017   2.920004   1.110153
    19  H    2.197713   2.747672   4.172477   2.749641   1.111769
                    6          7          8          9         10
     6  C    0.000000
     7  O    3.772459   0.000000
     8  H    3.080273   2.875727   0.000000
     9  H    2.799846   2.080803   3.080202   0.000000
    10  H    2.156962   2.698789   3.716976   2.556647   0.000000
    11  H    2.168381   2.682536   2.480010   3.133129   1.797544
    12  H    5.182446   2.085772   3.040573   3.240563   4.679791
    13  H    4.679233   2.083724   2.373550   3.726437   4.128890
    14  H    1.110854   4.087191   3.762280   2.583437   2.503382
    15  H    1.110479   4.089064   2.541818   3.165205   3.088706
    16  H    1.110325   4.585935   3.898835   3.814252   2.477704
    17  H    3.665558   3.936546   2.573242   2.810121   4.746448
    18  H    4.906525   3.935346   2.557490   3.703601   5.576017
    19  H    4.559443   3.188852   3.150304   2.476954   4.847927
                   11         12         13         14         15
    11  H    0.000000
    12  H    4.217032   0.000000
    13  H    3.103107   1.857335   0.000000
    14  H    3.095430   5.476044   5.320810   0.000000
    15  H    2.518914   5.097150   4.578086   1.810903   0.000000
    16  H    2.492174   6.129421   5.403293   1.804473   1.803254
    17  H    4.359824   3.703369   4.278936   3.615444   3.086263
    18  H    4.847200   2.800328   3.538178   5.106488   4.298900
    19  H    4.723116   2.488217   3.768703   4.447394   4.317993
                   16         17         18         19
    16  H    0.000000
    17  H    4.718409   0.000000
    18  H    5.928763   1.804228   0.000000
    19  H    5.664533   1.807015   1.807058   0.000000
 Stoichiometry    C6H12O
 Framework group  C1[X(C6H12O)]
 Deg. of freedom    51
 Full point group                 C1      NOp   1
 Largest Abelian subgroup         C1      NOp   1
 Largest concise Abelian subgroup C1      NOp   1
                         Standard orientation:                         
 ---------------------------------------------------------------------
 Center     Atomic      Atomic             Coordinates (Angstroms)
 Number     Number       Type             X           Y           Z
 ---------------------------------------------------------------------
      1          6           0        0.747371    0.467810    0.448591
      2          6           0       -0.175551   -0.307332   -0.476350
      3          6           0       -1.567959   -0.587602    0.108641
      4          6           0        1.552069   -0.813153    0.428794
      5          6           0        1.445072    1.653610   -0.221649
      6          6           0       -2.439563    0.665411    0.095062
      7          8           0        0.634158   -1.459522   -0.422960
      8          1           0        0.325560    0.699047    1.451914
      9          1           0       -0.224042    0.088653   -1.516756
     10          1           0       -2.061983   -1.371922   -0.504265
     11          1           0       -1.483367   -0.970325    1.149546
     12          1           0        2.550843   -0.724352   -0.053785
     13          1           0        1.588921   -1.310139    1.423122
     14          1           0       -2.555337    1.042778   -0.943295
     15          1           0       -1.987890    1.460728    0.724845
     16          1           0       -3.444897    0.422541    0.498965
     17          1           0        0.713814    2.475841   -0.368480
     18          1           0        2.264608    2.018578    0.432262
     19          1           0        1.871871    1.372279   -1.208931
 ---------------------------------------------------------------------
 Rotational constants (GHZ):      3.8426184      2.1200605      1.5554924
 Standard basis: 6-311+G(2df,2p) (5D, 7F)
 There are   346 symmetry adapted basis functions of A   symmetry.
 Integral buffers will be    131072 words long.
 Raffenetti 2 integral format.
 Two-electron integral symmetry is turned on.
   346 basis functions,   496 primitive gaussians,   381 cartesian basis functions
    28 alpha electrons       28 beta electrons
       nuclear repulsion energy       327.8143761863 Hartrees.
 NAtoms=   19 NActive=   19 NUniq=   19 SFac= 1.00D+00 NAtFMM=   50 NAOKFM=F Big=F
 One-electron integrals computed using PRISM.
 NBasis=   346 RedAO= T  NBF=   346
 NBsUse=   346 1.00D-06 NBFU=   346
 Harris functional with IExCor= 1009 diagonalized for initial guess.
 ExpMin= 4.38D-02 ExpMax= 8.59D+03 ExpMxC= 1.30D+03 IAcc=2 IRadAn=         0 AccDes= 0.00D+00
 HarFok:  IExCor= 1009 AccDes= 0.00D+00 IRadAn=         0 IDoV= 1
 ScaDFX=  1.000000  1.000000  1.000000  1.000000
 FoFCou: FMM=F IPFlag=           0 FMFlag=      100000 FMFlg1=           0
         NFxFlg=           0 DoJE=T BraDBF=F KetDBF=T FulRan=T
         Omega=  0.000000  0.000000  1.000000  0.000000  0.000000 ICntrl=     500 IOpCl=  0
         NMat0=    1 NMatS0=    1 NMatT0=    0 NMatD0=    1 NMtDS0=    0 NMtDT0=    0
         I1Cent=           4 NGrid=           0.
 Petite list used in FoFCou.
 Initial guess orbital symmetries:
       Occupied  (A) (A) (A) (A) (A) (A) (A) (A) (A) (A) (A) (A)
                 (A) (A) (A) (A) (A) (A) (A) (A) (A) (A) (A) (A)
                 (A) (A) (A) (A)
       Virtual   (A) (A) (A) (A) (A) (A) (A) (A) (A) (A) (A) (A)
                 (A) (A) (A) (A) (A) (A) (A) (A) (A) (A) (A) (A)
                 (A) (A) (A) (A) (A) (A) (A) (A) (A) (A) (A) (A)
                 (A) (A) (A) (A) (A) (A) (A) (A) (A) (A) (A) (A)
                 (A) (A) (A) (A) (A) (A) (A) (A) (A) (A) (A) (A)
                 (A) (A) (A) (A) (A) (A) (A) (A) (A) (A) (A) (A)
                 (A) (A) (A) (A) (A) (A) (A) (A) (A) (A) (A) (A)
                 (A) (A) (A) (A) (A) (A) (A) (A) (A) (A) (A) (A)
                 (A) (A) (A) (A) (A) (A) (A) (A) (A) (A) (A) (A)
                 (A) (A) (A) (A) (A) (A) (A) (A) (A) (A) (A) (A)
                 (A) (A) (A) (A) (A) (A) (A) (A) (A) (A) (A) (A)
                 (A) (A) (A) (A) (A) (A) (A) (A) (A) (A) (A) (A)
                 (A) (A) (A) (A) (A) (A) (A) (A) (A) (A) (A) (A)
                 (A) (A) (A) (A) (A) (A) (A) (A) (A) (A) (A) (A)
                 (A) (A) (A) (A) (A) (A) (A) (A) (A) (A) (A) (A)
                 (A) (A) (A) (A) (A) (A) (A) (A) (A) (A) (A) (A)
                 (A) (A) (A) (A) (A) (A) (A) (A) (A) (A) (A) (A)
                 (A) (A) (A) (A) (A) (A) (A) (A) (A) (A) (A) (A)
                 (A) (A) (A) (A) (A) (A) (A) (A) (A) (A) (A) (A)
                 (A) (A) (A) (A) (A) (A) (A) (A) (A) (A) (A) (A)
                 (A) (A) (A) (A) (A) (A) (A) (A) (A) (A) (A) (A)
                 (A) (A) (A) (A) (A) (A) (A) (A) (A) (A) (A) (A)
                 (A) (A) (A) (A) (A) (A) (A) (A) (A) (A) (A) (A)
                 (A) (A) (A) (A) (A) (A) (A) (A) (A) (A) (A) (A)
                 (A) (A) (A) (A) (A) (A) (A) (A) (A) (A) (A) (A)
                 (A) (A) (A) (A) (A) (A) (A) (A) (A) (A) (A) (A)
                 (A) (A) (A) (A) (A) (A)
 The electronic state of the initial guess is 1-A.
 Requested convergence on RMS density matrix=1.00D-08 within 128 cycles.
 Requested convergence on MAX density matrix=1.00D-06.
 Requested convergence on             energy=1.00D-06.
 No special actions if energy rises.
 SCF Done:  E(RM062X) =  -311.003336147     A.U. after   11 cycles
             Convg  =    0.9315D-08             -V/T =  2.0046

 **********************************************************************

            Population analysis using the SCF density.

 **********************************************************************

 Orbital symmetries:
       Occupied  (A) (A) (A) (A) (A) (A) (A) (A) (A) (A) (A) (A)
                 (A) (A) (A) (A) (A) (A) (A) (A) (A) (A) (A) (A)
                 (A) (A) (A) (A)
       Virtual   (A) (A) (A) (A) (A) (A) (A) (A) (A) (A) (A) (A)
                 (A) (A) (A) (A) (A) (A) (A) (A) (A) (A) (A) (A)
                 (A) (A) (A) (A) (A) (A) (A) (A) (A) (A) (A) (A)
                 (A) (A) (A) (A) (A) (A) (A) (A) (A) (A) (A) (A)
                 (A) (A) (A) (A) (A) (A) (A) (A) (A) (A) (A) (A)
                 (A) (A) (A) (A) (A) (A) (A) (A) (A) (A) (A) (A)
                 (A) (A) (A) (A) (A) (A) (A) (A) (A) (A) (A) (A)
                 (A) (A) (A) (A) (A) (A) (A) (A) (A) (A) (A) (A)
                 (A) (A) (A) (A) (A) (A) (A) (A) (A) (A) (A) (A)
                 (A) (A) (A) (A) (A) (A) (A) (A) (A) (A) (A) (A)
                 (A) (A) (A) (A) (A) (A) (A) (A) (A) (A) (A) (A)
                 (A) (A) (A) (A) (A) (A) (A) (A) (A) (A) (A) (A)
                 (A) (A) (A) (A) (A) (A) (A) (A) (A) (A) (A) (A)
                 (A) (A) (A) (A) (A) (A) (A) (A) (A) (A) (A) (A)
                 (A) (A) (A) (A) (A) (A) (A) (A) (A) (A) (A) (A)
                 (A) (A) (A) (A) (A) (A) (A) (A) (A) (A) (A) (A)
                 (A) (A) (A) (A) (A) (A) (A) (A) (A) (A) (A) (A)
                 (A) (A) (A) (A) (A) (A) (A) (A) (A) (A) (A) (A)
                 (A) (A) (A) (A) (A) (A) (A) (A) (A) (A) (A) (A)
                 (A) (A) (A) (A) (A) (A) (A) (A) (A) (A) (A) (A)
                 (A) (A) (A) (A) (A) (A) (A) (A) (A) (A) (A) (A)
                 (A) (A) (A) (A) (A) (A) (A) (A) (A) (A) (A) (A)
                 (A) (A) (A) (A) (A) (A) (A) (A) (A) (A) (A) (A)
                 (A) (A) (A) (A) (A) (A) (A) (A) (A) (A) (A) (A)
                 (A) (A) (A) (A) (A) (A) (A) (A) (A) (A) (A) (A)
                 (A) (A) (A) (A) (A) (A) (A) (A) (A) (A) (A) (A)
                 (A) (A) (A) (A) (A) (A)
 The electronic state is 1-A.
 Alpha  occ. eigenvalues --  -19.61270 -10.58519 -10.58087 -10.54218 -10.53747
 Alpha  occ. eigenvalues --  -10.53376 -10.53248  -1.18449  -0.89182  -0.86578
 Alpha  occ. eigenvalues --   -0.77628  -0.75521  -0.68453  -0.62459  -0.56579
 Alpha  occ. eigenvalues --   -0.55185  -0.54383  -0.50833  -0.48573  -0.46717
 Alpha  occ. eigenvalues --   -0.45653  -0.43291  -0.42767  -0.41581  -0.40646
 Alpha  occ. eigenvalues --   -0.36516  -0.35397  -0.31616
 Alpha virt. eigenvalues --    0.01095   0.02384   0.02584   0.03059   0.04688
 Alpha virt. eigenvalues --    0.05143   0.05638   0.05901   0.06483   0.07525
 Alpha virt. eigenvalues --    0.08867   0.08942   0.09427   0.09461   0.11199
 Alpha virt. eigenvalues --    0.11422   0.13450   0.13819   0.14825   0.15802
 Alpha virt. eigenvalues --    0.16155   0.16468   0.16679   0.17904   0.19325
 Alpha virt. eigenvalues --    0.19720   0.20580   0.21743   0.22929   0.24060
 Alpha virt. eigenvalues --    0.24068   0.24919   0.25852   0.26080   0.27381
 Alpha virt. eigenvalues --    0.28003   0.28725   0.29082   0.30243   0.31152
 Alpha virt. eigenvalues --    0.32534   0.33956   0.34708   0.36063   0.37330
 Alpha virt. eigenvalues --    0.39198   0.41593   0.42330   0.42558   0.43600
 Alpha virt. eigenvalues --    0.45399   0.47119   0.48118   0.49345   0.51944
 Alpha virt. eigenvalues --    0.53090   0.54395   0.55203   0.56775   0.57175
 Alpha virt. eigenvalues --    0.57917   0.58623   0.59818   0.60529   0.61487
 Alpha virt. eigenvalues --    0.62068   0.62580   0.63768   0.64349   0.64487
 Alpha virt. eigenvalues --    0.65352   0.65688   0.68167   0.68489   0.68981
 Alpha virt. eigenvalues --    0.70110   0.70975   0.72015   0.73919   0.79050
 Alpha virt. eigenvalues --    0.79667   0.80588   0.81103   0.85228   0.86465
 Alpha virt. eigenvalues --    0.88048   0.90969   0.91534   0.93360   0.93863
 Alpha virt. eigenvalues --    0.97284   0.98540   1.00927   1.03312   1.04543
 Alpha virt. eigenvalues --    1.06700   1.06908   1.07804   1.09398   1.11927
 Alpha virt. eigenvalues --    1.12617   1.13960   1.15970   1.16650   1.17845
 Alpha virt. eigenvalues --    1.18112   1.20024   1.20362   1.22265   1.22756
 Alpha virt. eigenvalues --    1.24101   1.25094   1.26752   1.28044   1.28984
 Alpha virt. eigenvalues --    1.30334   1.31192   1.32860   1.34056   1.35093
 Alpha virt. eigenvalues --    1.35374   1.37469   1.38948   1.40500   1.40849
 Alpha virt. eigenvalues --    1.41196   1.44252   1.45576   1.46390   1.47675
 Alpha virt. eigenvalues --    1.48067   1.48753   1.49640   1.50714   1.51480
 Alpha virt. eigenvalues --    1.51926   1.55306   1.56151   1.57570   1.58492
 Alpha virt. eigenvalues --    1.59110   1.60410   1.61469   1.62404   1.65329
 Alpha virt. eigenvalues --    1.67520   1.68637   1.70749   1.71877   1.73301
 Alpha virt. eigenvalues --    1.75539   1.78327   2.00833   2.13371   2.17208
 Alpha virt. eigenvalues --    2.17885   2.26084   2.38198   2.41206   2.46160
 Alpha virt. eigenvalues --    2.50110   2.50746   2.54520   2.58153   2.62926
 Alpha virt. eigenvalues --    2.64172   2.69206   2.71112   2.73855   2.74811
 Alpha virt. eigenvalues --    2.78883   2.79181   2.81246   2.82584   2.83880
 Alpha virt. eigenvalues --    2.86727   2.87547   2.90613   2.92980   2.97038
 Alpha virt. eigenvalues --    2.97346   2.98814   3.00267   3.02057   3.04765
 Alpha virt. eigenvalues --    3.07759   3.10249   3.11335   3.12303   3.13914
 Alpha virt. eigenvalues --    3.15414   3.16856   3.18136   3.19786   3.20957
 Alpha virt. eigenvalues --    3.23802   3.25080   3.26251   3.28375   3.30600
 Alpha virt. eigenvalues --    3.33114   3.33311   3.34284   3.35767   3.37696
 Alpha virt. eigenvalues --    3.40187   3.41178   3.42130   3.44285   3.45173
 Alpha virt. eigenvalues --    3.51354   3.52033   3.54615   3.55491   3.57080
 Alpha virt. eigenvalues --    3.58026   3.59292   3.62842   3.65498   3.65847
 Alpha virt. eigenvalues --    3.67155   3.69206   3.70720   3.71068   3.73063
 Alpha virt. eigenvalues --    3.75348   3.77360   3.79049   3.80976   3.82061
 Alpha virt. eigenvalues --    3.85054   3.86693   3.88904   3.90961   3.92389
 Alpha virt. eigenvalues --    3.94156   3.95130   3.95535   3.97297   3.98623
 Alpha virt. eigenvalues --    4.01266   4.01754   4.03047   4.04605   4.08655
 Alpha virt. eigenvalues --    4.10043   4.11186   4.13831   4.16643   4.18086
 Alpha virt. eigenvalues --    4.20308   4.21534   4.22414   4.23518   4.24792
 Alpha virt. eigenvalues --    4.26709   4.28831   4.31364   4.34175   4.35321
 Alpha virt. eigenvalues --    4.36191   4.37100   4.39249   4.41133   4.43809
 Alpha virt. eigenvalues --    4.44869   4.46294   4.48194   4.48771   4.49935
 Alpha virt. eigenvalues --    4.51969   4.53330   4.54996   4.58010   4.59505
 Alpha virt. eigenvalues --    4.63168   4.63756   4.71408   4.74938   4.82008
 Alpha virt. eigenvalues --    4.85209   4.91408   5.00949   5.13006   5.23402
 Alpha virt. eigenvalues --    5.26303   5.35955   5.36880   5.40734   5.41011
 Alpha virt. eigenvalues --    5.43072   5.44433   5.47186   5.49576   5.51160
 Alpha virt. eigenvalues --    5.57020   5.58074   5.60436   5.61697   5.65130
 Alpha virt. eigenvalues --    5.82138   5.91219   5.93155   5.95380   6.48942
 Alpha virt. eigenvalues --    6.73774   7.32523   7.35786   7.39342   7.56682
 Alpha virt. eigenvalues --    7.81485  24.24570  24.31130  24.36240  24.39493
 Alpha virt. eigenvalues --   24.49816  24.51572  50.30963
          Condensed to atoms (all electrons):
              1          2          3          4          5          6
     1  C    6.488498  -0.747369   0.264797  -0.030452  -0.181646   0.000356
     2  C   -0.747369   6.851668  -0.532487  -0.298908   0.226843   0.040230
     3  C    0.264797  -0.532487   5.958656   0.110859  -0.150390  -0.085687
     4  C   -0.030452  -0.298908   0.110859   5.496305  -0.024888   0.000109
     5  C   -0.181646   0.226843  -0.150390  -0.024888   5.333416   0.054525
     6  C    0.000356   0.040230  -0.085687   0.000109   0.054525   5.318791
     7  O    0.136148   0.227862  -0.249143   0.018460  -0.019763   0.046988
     8  H    0.414971  -0.040951   0.033048  -0.039191  -0.008101  -0.012902
     9  H   -0.124412   0.514729  -0.043906   0.024276   0.024521  -0.004567
    10  H    0.026944  -0.043758   0.451109  -0.013439  -0.000479  -0.034383
    11  H   -0.029864   0.012336   0.435317   0.003973   0.002254  -0.052242
    12  H   -0.128581   0.046783  -0.013778   0.451738   0.050927   0.000929
    13  H   -0.053923   0.004476   0.019691   0.457440  -0.008323  -0.000380
    14  H   -0.005334  -0.014390  -0.025686  -0.001715   0.001252   0.421652
    15  H    0.011780  -0.025033   0.010176  -0.001691  -0.004120   0.385331
    16  H    0.000378   0.028265  -0.065559   0.002656  -0.001525   0.423002
    17  H    0.002631  -0.027078  -0.007859   0.013903   0.402128   0.003739
    18  H   -0.051875   0.036569  -0.000610  -0.020330   0.424440  -0.000549
    19  H   -0.027059  -0.025103   0.015172   0.007922   0.402931  -0.003044
              7          8          9         10         11         12
     1  C    0.136148   0.414971  -0.124412   0.026944  -0.029864  -0.128581
     2  C    0.227862  -0.040951   0.514729  -0.043758   0.012336   0.046783
     3  C   -0.249143   0.033048  -0.043906   0.451109   0.435317  -0.013778
     4  C    0.018460  -0.039191   0.024276  -0.013439   0.003973   0.451738
     5  C   -0.019763  -0.008101   0.024521  -0.000479   0.002254   0.050927
     6  C    0.046988  -0.012902  -0.004567  -0.034383  -0.052242   0.000929
     7  O    8.255398   0.005173  -0.052591  -0.001745  -0.002813  -0.060268
     8  H    0.005173   0.493061   0.003392  -0.000314  -0.002603   0.004861
     9  H   -0.052591   0.003392   0.501838  -0.007159   0.003864   0.002483
    10  H   -0.001745  -0.000314  -0.007159   0.503975  -0.028859   0.000039
    11  H   -0.002813  -0.002603   0.003864  -0.028859   0.499585   0.000027
    12  H   -0.060268   0.004861   0.002483   0.000039   0.000027   0.559010
    13  H   -0.064543  -0.008733  -0.002021   0.000122  -0.001038  -0.036943
    14  H    0.000078   0.000372   0.001240  -0.006825   0.005528   0.000005
    15  H   -0.000967  -0.001691  -0.000223   0.005423  -0.007727   0.000014
    16  H   -0.000660  -0.000110  -0.000406  -0.005631  -0.003777  -0.000005
    17  H   -0.000759  -0.005383  -0.000224  -0.000029  -0.000040  -0.000026
    18  H   -0.001056  -0.005241  -0.000192   0.000011  -0.000041  -0.000383
    19  H    0.001189   0.004652  -0.000985  -0.000040  -0.000016  -0.002943
             13         14         15         16         17         18
     1  C   -0.053923  -0.005334   0.011780   0.000378   0.002631  -0.051875
     2  C    0.004476  -0.014390  -0.025033   0.028265  -0.027078   0.036569
     3  C    0.019691  -0.025686   0.010176  -0.065559  -0.007859  -0.000610
     4  C    0.457440  -0.001715  -0.001691   0.002656   0.013903  -0.020330
     5  C   -0.008323   0.001252  -0.004120  -0.001525   0.402128   0.424440
     6  C   -0.000380   0.421652   0.385331   0.423002   0.003739  -0.000549
     7  O   -0.064543   0.000078  -0.000967  -0.000660  -0.000759  -0.001056
     8  H   -0.008733   0.000372  -0.001691  -0.000110  -0.005383  -0.005241
     9  H   -0.002021   0.001240  -0.000223  -0.000406  -0.000224  -0.000192
    10  H    0.000122  -0.006825   0.005423  -0.005631  -0.000029   0.000011
    11  H   -0.001038   0.005528  -0.007727  -0.003777  -0.000040  -0.000041
    12  H   -0.036943   0.000005   0.000014  -0.000005  -0.000026  -0.000383
    13  H    0.564853   0.000011  -0.000004   0.000005  -0.000357   0.000536
    14  H    0.000011   0.539828  -0.033385  -0.021886  -0.000273  -0.000013
    15  H   -0.000004  -0.033385   0.553499  -0.024859  -0.000319   0.000097
    16  H    0.000005  -0.021886  -0.024859   0.527239   0.000026  -0.000004
    17  H   -0.000357  -0.000273  -0.000319   0.000026   0.532657  -0.022192
    18  H    0.000536  -0.000013   0.000097  -0.000004  -0.022192   0.527169
    19  H    0.000757   0.000073  -0.000050   0.000007  -0.029451  -0.029003
             19
     1  C   -0.027059
     2  C   -0.025103
     3  C    0.015172
     4  C    0.007922
     5  C    0.402931
     6  C   -0.003044
     7  O    0.001189
     8  H    0.004652
     9  H   -0.000985
    10  H   -0.000040
    11  H   -0.000016
    12  H   -0.002943
    13  H    0.000757
    14  H    0.000073
    15  H   -0.000050
    16  H    0.000007
    17  H   -0.029451
    18  H   -0.029003
    19  H    0.540008
 Mulliken atomic charges:
              1
     1  C    0.034012
     2  C   -0.234685
     3  C   -0.123719
     4  C   -0.157027
     5  C   -0.524002
     6  C   -0.501898
     7  O   -0.236989
     8  H    0.165691
     9  H    0.160343
    10  H    0.155038
    11  H    0.166136
    12  H    0.126111
    13  H    0.128376
    14  H    0.139466
    15  H    0.133748
    16  H    0.142845
    17  H    0.138907
    18  H    0.142668
    19  H    0.144980
 Sum of Mulliken atomic charges =   0.00000
 Mulliken charges with hydrogens summed into heavy atoms:
              1
     1  C    0.199703
     2  C   -0.074342
     3  C    0.197455
     4  C    0.097459
     5  C   -0.097446
     6  C   -0.085840
     7  O   -0.236989
 Sum of Mulliken charges with hydrogens summed into heavy atoms =   0.00000
 Electronic spatial extent (au):  <R**2>=            864.8018
 Charge=              0.0000 electrons
 Dipole moment (field-independent basis, Debye):
    X=             -0.1030    Y=              1.6702    Z=              0.7911  Tot=              1.8509
 Quadrupole moment (field-independent basis, Debye-Ang):
   XX=            -43.7261   YY=            -50.0791   ZZ=            -44.4620
   XY=              1.3205   XZ=              0.8814   YZ=             -1.6079
 Traceless Quadrupole moment (field-independent basis, Debye-Ang):
   XX=              2.3630   YY=             -3.9900   ZZ=              1.6271
   XY=              1.3205   XZ=              0.8814   YZ=             -1.6079
 Octapole moment (field-independent basis, Debye-Ang**2):
  XXX=              4.8517  YYY=              1.0551  ZZZ=             -0.8177  XYY=             -1.0577
  XXY=             -4.7358  XXZ=             -0.2595  XZZ=              0.6316  YZZ=             -1.5381
  YYZ=              3.0711  XYZ=             -1.2237
 Hexadecapole moment (field-independent basis, Debye-Ang**3):
 XXXX=           -694.4176 YYYY=           -380.8179 ZZZZ=           -124.1424 XXXY=              1.7483
 XXXZ=             -4.0547 YYYX=             -0.9643 YYYZ=             -1.1858 ZZZX=              0.6711
 ZZZY=             -0.3888 XXYY=           -181.3700 XXZZ=           -136.9317 YYZZ=            -82.2000
 XXYZ=              1.2994 YYXZ=              5.0963 ZZXY=              0.0097
 N-N= 3.278143761863D+02 E-N=-1.379125570507D+03  KE= 3.095701304627D+02
 Calling FoFJK, ICntrl=      2127 FMM=F ISym2X=0 I1Cent= 0 IOpClX= 0 NMat=1 NMatS=1 NMatT=0.
 ***** Axes restored to original set *****
 -------------------------------------------------------------------
 Center     Atomic                   Forces (Hartrees/Bohr)
 Number     Number              X              Y              Z
 -------------------------------------------------------------------
      1        6          -0.012950965   -0.012704823    0.012260070
      2        6           0.033154425   -0.008224364    0.003964987
      3        6           0.003541591   -0.004957084   -0.009205537
      4        6          -0.017551063    0.025783162    0.003892293
      5        6           0.000654884    0.000244445    0.012635974
      6        6           0.004767479   -0.003128285    0.004051404
      7        8          -0.000293249    0.005261049   -0.019601480
      8        1          -0.005717863   -0.011103134   -0.009958353
      9        1           0.005529030    0.008434229    0.006794866
     10        1          -0.007083456    0.003216564    0.009238532
     11        1          -0.005087626   -0.010151790   -0.007503432
     12        1           0.009904278    0.007665905    0.006119785
     13        1          -0.009428717   -0.008742346   -0.007897019
     14        1           0.001443590    0.010743693    0.007355502
     15        1           0.006720490   -0.002528891   -0.009937792
     16        1          -0.012847508   -0.005345917    0.000065078
     17        1          -0.008428272    0.006759323   -0.005751865
     18        1           0.006920806   -0.007624644   -0.007062521
     19        1           0.006752147    0.006402907    0.010539508
 -------------------------------------------------------------------
 Cartesian Forces:  Max     0.033154425 RMS     0.009883549

 GradGradGradGradGradGradGradGradGradGradGradGradGradGradGradGradGradGrad
 Berny optimization.
 Internal  Forces:  Max     0.019698510 RMS     0.006094207
 Search for a local minimum.
 Step number   1 out of a maximum of  114
 All quantities printed in internal units (Hartrees-Bohrs-Radians)
 Swaping is turned off.
 Second derivative matrix not updated -- first step.
 ITU=  0
     Eigenvalues ---    0.00289   0.00364   0.00417   0.00816   0.02556
     Eigenvalues ---    0.03296   0.03679   0.03723   0.04895   0.05454
     Eigenvalues ---    0.05553   0.05654   0.05783   0.05784   0.05802
     Eigenvalues ---    0.06504   0.07275   0.08077   0.08211   0.08608
     Eigenvalues ---    0.10250   0.10730   0.12016   0.13126   0.16000
     Eigenvalues ---    0.16000   0.16000   0.16000   0.16000   0.16000
     Eigenvalues ---    0.18736   0.21930   0.27485   0.28868   0.29323
     Eigenvalues ---    0.29386   0.29758   0.32152   0.32306   0.32318
     Eigenvalues ---    0.32362   0.32366   0.32413   0.32468   0.32510
     Eigenvalues ---    0.32549   0.32566   0.32584   0.32588   0.40519
     Eigenvalues ---    0.41068
 Quadratic step=3.873D-01 exceeds max=3.000D-01 adjusted using Lamda=-1.225D-02.
 Angle between NR and scaled steps=  19.16 degrees.
 Angle between quadratic step and forces=  35.76 degrees.
 Linear search not attempted -- option 19 set.
 Iteration  1 RMS(Cart)=  0.03301231 RMS(Int)=  0.00068497
 Iteration  2 RMS(Cart)=  0.00089347 RMS(Int)=  0.00032337
 Iteration  3 RMS(Cart)=  0.00000049 RMS(Int)=  0.00032337
 Variable       Old X    -DE/DX   Delta X   Delta X   Delta X     New X
                                 (Linear)    (Quad)   (Total)
    R1        2.87098   0.01680   0.00000   0.04414   0.04466   2.91564
    R2        2.85892   0.01970   0.00000   0.05531   0.05531   2.91424
    R3        2.89204  -0.00579   0.00000  -0.01893  -0.01893   2.87311
    R4        2.10266  -0.01507   0.00000  -0.04492  -0.04492   2.05774
    R5        2.90279  -0.01170   0.00000  -0.03890  -0.03890   2.86389
    R6        2.66312   0.01804   0.00000   0.04432   0.04427   2.70739
    R7        2.10567  -0.01108   0.00000  -0.03320  -0.03320   2.07247
    R8        2.88449   0.00115   0.00000   0.00371   0.00371   2.88820
    R9        2.09995  -0.01164   0.00000  -0.03455  -0.03455   2.06540
   R10        2.10186  -0.01275   0.00000  -0.03795  -0.03795   2.06391
   R11        2.66300   0.01468   0.00000   0.03890   0.03838   2.70137
   R12        2.10288  -0.01241   0.00000  -0.03702  -0.03702   2.06586
   R13        2.10180  -0.01209   0.00000  -0.03598  -0.03598   2.06582
   R14        2.09782  -0.01174   0.00000  -0.03471  -0.03471   2.06311
   R15        2.09789  -0.01194   0.00000  -0.03532  -0.03532   2.06257
   R16        2.10094  -0.01394   0.00000  -0.04145  -0.04145   2.05949
   R17        2.09921  -0.01286   0.00000  -0.03812  -0.03812   2.06109
   R18        2.09850  -0.01199   0.00000  -0.03551  -0.03551   2.06299
   R19        2.09821  -0.01347   0.00000  -0.03986  -0.03986   2.05835
    A1        1.45368   0.00266   0.00000   0.01309   0.01258   1.46626
    A2        1.98848   0.00326   0.00000   0.03693   0.03586   2.02435
    A3        2.00944  -0.00260   0.00000  -0.02902  -0.02901   1.98044
    A4        1.99087   0.00176   0.00000   0.03240   0.03139   2.02227
    A5        1.97078  -0.00011   0.00000   0.01370   0.01422   1.98500
    A6        1.98965  -0.00322   0.00000  -0.04644  -0.04613   1.94352
    A7        1.99533   0.00669   0.00000   0.04111   0.04078   2.03611
    A8        1.61585  -0.00309   0.00000  -0.01424  -0.01478   1.60107
    A9        1.99717  -0.00122   0.00000  -0.01589  -0.01577   1.98140
   A10        1.93608   0.00326   0.00000   0.03430   0.03384   1.96992
   A11        1.96165  -0.00587   0.00000  -0.04730  -0.04688   1.91477
   A12        1.92936   0.00119   0.00000   0.01302   0.01324   1.94260
   A13        1.94383   0.00036   0.00000   0.00412   0.00407   1.94790
   A14        1.89834  -0.00008   0.00000   0.00246   0.00210   1.90044
   A15        1.92863  -0.00384   0.00000  -0.04240  -0.04241   1.88622
   A16        1.89718   0.00159   0.00000   0.02842   0.02821   1.92539
   A17        1.91157   0.00263   0.00000   0.01895   0.01882   1.93039
   A18        1.88295  -0.00063   0.00000  -0.01102  -0.01161   1.87134
   A19        1.62063  -0.00304   0.00000  -0.01678  -0.01689   1.60374
   A20        1.99930   0.00038   0.00000   0.00021   0.00034   1.99963
   A21        1.96521   0.00752   0.00000   0.05590   0.05591   2.02112
   A22        1.93812   0.00197   0.00000   0.01599   0.01604   1.95416
   A23        1.93583   0.00091   0.00000   0.01178   0.01167   1.94750
   A24        1.97536  -0.00671   0.00000  -0.05658  -0.05647   1.91888
   A25        1.90870   0.00494   0.00000   0.03077   0.03040   1.93910
   A26        1.91061   0.00538   0.00000   0.03374   0.03339   1.94400
   A27        1.94750  -0.00476   0.00000  -0.03235  -0.03205   1.91545
   A28        1.89725  -0.00365   0.00000  -0.01145  -0.01239   1.88486
   A29        1.89953  -0.00094   0.00000  -0.01046  -0.01019   1.88934
   A30        1.89955  -0.00106   0.00000  -0.01040  -0.01009   1.88946
   A31        1.92484   0.00213   0.00000   0.01122   0.01110   1.93593
   A32        1.92903   0.00211   0.00000   0.01076   0.01065   1.93968
   A33        1.91158   0.00432   0.00000   0.02768   0.02744   1.93903
   A34        1.90626  -0.00294   0.00000  -0.02202  -0.02201   1.88425
   A35        1.89649  -0.00285   0.00000  -0.01369  -0.01393   1.88257
   A36        1.89508  -0.00295   0.00000  -0.01489  -0.01510   1.87998
   A37        1.59294   0.00352   0.00000   0.01858   0.01842   1.61136
    D1        2.00507   0.00112   0.00000   0.00657   0.00642   2.01149
    D2        0.00875  -0.00266   0.00000  -0.03517  -0.03511  -0.02636
    D3       -1.98045  -0.00210   0.00000  -0.03848  -0.03871  -2.01917
    D4       -2.29902   0.00441   0.00000   0.05009   0.05025  -2.24877
    D5        1.98785   0.00063   0.00000   0.00836   0.00872   1.99657
    D6       -0.00135   0.00119   0.00000   0.00504   0.00511   0.00376
    D7        0.04675   0.00018   0.00000  -0.01273  -0.01279   0.03396
    D8       -1.94957  -0.00360   0.00000  -0.05446  -0.05432  -2.00389
    D9        2.34441  -0.00304   0.00000  -0.05778  -0.05792   2.28649
   D10       -0.00875   0.00265   0.00000   0.03516   0.03517   0.02642
   D11        1.99338   0.00338   0.00000   0.04447   0.04453   2.03791
   D12       -1.99971   0.00129   0.00000   0.01666   0.01665  -1.98306
   D13       -1.98538  -0.00220   0.00000  -0.01313  -0.01321  -1.99859
   D14        0.01675  -0.00147   0.00000  -0.00381  -0.00384   0.01291
   D15        2.30685  -0.00356   0.00000  -0.03163  -0.03172   2.27513
   D16        1.98950   0.00091   0.00000   0.00985   0.00980   1.99929
   D17       -2.29156   0.00164   0.00000   0.01916   0.01916  -2.27240
   D18       -0.00146  -0.00045   0.00000  -0.00865  -0.00872  -0.01018
   D19        1.29206  -0.00408   0.00000  -0.04888  -0.04960   1.24246
   D20       -2.91425  -0.00235   0.00000  -0.02422  -0.02430  -2.93855
   D21       -0.81044  -0.00315   0.00000  -0.03555  -0.03597  -0.84641
   D22        2.92111   0.00147   0.00000  -0.00054  -0.00030   2.92081
   D23       -1.28520   0.00320   0.00000   0.02411   0.02500  -1.26020
   D24        0.81861   0.00240   0.00000   0.01278   0.01333   0.83194
   D25       -1.06286  -0.00014   0.00000   0.00573   0.00525  -1.05761
   D26        1.01402   0.00159   0.00000   0.03038   0.03055   1.04457
   D27        3.11782   0.00079   0.00000   0.01905   0.01889   3.13671
   D28        1.31263  -0.00133   0.00000  -0.03797  -0.03845   1.27418
   D29       -2.88007   0.00081   0.00000   0.00133   0.00070  -2.87937
   D30       -0.81619  -0.00226   0.00000  -0.03547  -0.03593  -0.85212
   D31        3.11119   0.00008   0.00000  -0.01573  -0.01505   3.09614
   D32       -1.08151   0.00221   0.00000   0.02357   0.02410  -1.05741
   D33        0.98237  -0.00086   0.00000  -0.01323  -0.01254   0.96983
   D34       -1.00203  -0.00025   0.00000  -0.00777  -0.00783  -1.00987
   D35        1.08845   0.00189   0.00000   0.03153   0.03132   1.11977
   D36       -3.13085  -0.00118   0.00000  -0.00527  -0.00531  -3.13617
   D37       -0.00933   0.00282   0.00000   0.03744   0.03763   0.02830
   D38       -2.05664  -0.00394   0.00000  -0.00978  -0.00943  -2.06607
   D39        2.03834   0.00040   0.00000   0.01688   0.01685   2.05519
   D40        1.02979   0.00094   0.00000   0.01930   0.01935   1.04914
   D41       -1.07985   0.00184   0.00000   0.03246   0.03264  -1.04721
   D42        3.11614   0.00145   0.00000   0.02668   0.02680  -3.14024
   D43       -1.06138  -0.00022   0.00000  -0.00461  -0.00467  -1.06605
   D44        3.11217   0.00069   0.00000   0.00855   0.00861   3.12078
   D45        1.02497   0.00029   0.00000   0.00277   0.00278   1.02775
   D46       -3.11473  -0.00186   0.00000  -0.01853  -0.01872  -3.13345
   D47        1.05881  -0.00096   0.00000  -0.00537  -0.00543   1.05338
   D48       -1.02838  -0.00135   0.00000  -0.01115  -0.01127  -1.03965
   D49        0.00937  -0.00284   0.00000  -0.03765  -0.03769  -0.02832
   D50       -2.04500  -0.00237   0.00000  -0.03428  -0.03424  -2.07924
   D51        2.02571   0.00426   0.00000   0.01895   0.01898   2.04469
         Item               Value     Threshold  Converged?
 Maximum Force            0.019699     0.000002     NO 
 RMS     Force            0.006094     0.000001     NO 
 Maximum Displacement     0.120878     0.000006     NO 
 RMS     Displacement     0.032711     0.000004     NO 
 Predicted change in Energy=-8.268353D-03
 GradGradGradGradGradGradGradGradGradGradGradGradGradGradGradGradGradGrad

                          Input orientation:                          
 ---------------------------------------------------------------------
 Center     Atomic      Atomic             Coordinates (Angstroms)
 Number     Number       Type             X           Y           Z
 ---------------------------------------------------------------------
      1          6           0       -0.859202    0.323370    0.354768
      2          6           0        0.146253   -0.001518   -0.769516
      3          6           0        1.608589    0.261529   -0.470959
      4          6           0       -1.378596    1.383932   -0.637029
      5          6           0       -1.837146   -0.783834    0.714343
      6          6           0        2.179238   -0.771110    0.500600
      7          8           0       -0.432299    0.985655   -1.631706
      8          1           0       -0.393858    0.745662    1.244061
      9          1           0        0.028966   -1.010218   -1.183671
     10          1           0        2.168898    0.249990   -1.409302
     11          1           0        1.693893    1.268109   -0.055795
     12          1           0       -2.409050    1.230498   -0.968272
     13          1           0       -1.234021    2.425628   -0.338663
     14          1           0        2.104118   -1.777727    0.087480
     15          1           0        1.642218   -0.756333    1.450952
     16          1           0        3.229665   -0.573573    0.710374
     17          1           0       -1.332260   -1.601023    1.233201
     18          1           0       -2.635024   -0.415364    1.361581
     19          1           0       -2.290381   -1.183672   -0.192547
 ---------------------------------------------------------------------
                    Distance matrix (angstroms):
                    1          2          3          4          5
     1  C    0.000000
     2  C    1.542889   0.000000
     3  C    2.603006   1.515506   0.000000
     4  C    1.542149   2.064508   3.195410   0.000000
     5  C    1.520384   2.597638   3.790885   2.595319   0.000000
     6  C    3.232843   2.517637   1.528369   4.312377   4.022087
     7  O    2.137041   1.432692   2.457014   1.429506   3.257089
     8  H    1.088907   2.214609   2.680573   2.217115   2.168648
     9  H    2.221282   1.096702   2.149536   2.830548   2.671344
    10  H    3.505242   2.136276   1.092963   3.803544   4.650489
    11  H    2.753069   2.125215   1.092172   3.129127   4.155937
    12  H    2.230547   2.843754   4.162648   1.093206   2.686224
    13  H    2.245178   2.825213   3.575089   1.093185   3.431213
    14  H    3.642433   2.778956   2.171628   4.759233   4.112704
    15  H    2.936747   2.781751   2.175067   4.250379   3.556588
    16  H    4.201166   3.467672   2.172747   5.184920   5.071173
    17  H    2.167652   2.958933   3.875803   3.522764   1.091751
    18  H    2.170931   3.528221   4.671684   2.968251   1.091465
    19  H    2.149186   2.769037   4.167503   2.760708   1.089836
                    6          7          8          9         10
     6  C    0.000000
     7  O    3.801721   0.000000
     8  H    3.078012   2.886020   0.000000
     9  H    2.741826   2.096904   3.025852   0.000000
    10  H    2.165751   2.712360   3.722062   2.493660   0.000000
    11  H    2.168767   2.661572   2.514216   3.038891   1.759027
    12  H    5.216934   2.099437   3.031580   3.318301   4.702500
    13  H    4.751193   2.094813   2.456252   3.756888   4.178460
    14  H    1.090683   4.126172   3.734308   2.551696   2.521148
    15  H    1.091685   4.103770   2.538582   3.099723   3.077520
    16  H    1.089230   4.618064   3.892958   3.744668   2.509284
    17  H    3.681857   3.963398   2.527379   2.836063   4.761005
    18  H    4.903566   3.971727   2.526780   3.732157   5.585531
    19  H    4.541823   3.198379   3.063164   2.528197   4.839530
                   11         12         13         14         15
    11  H    0.000000
    12  H    4.203352   0.000000
    13  H    3.161099   1.790373   0.000000
    14  H    3.076675   5.525641   5.384512   0.000000
    15  H    2.524148   5.119855   4.647618   1.765121   0.000000
    16  H    2.517420   6.153668   5.479067   1.762056   1.761205
    17  H    4.364748   3.744792   4.323693   3.626650   3.099747
    18  H    4.856187   2.861492   3.595118   5.093018   4.291742
    19  H    4.680210   2.538512   3.763548   4.443302   4.283578
                   16         17         18         19
    16  H    0.000000
    17  H    4.705333   0.000000
    18  H    5.902853   1.766200   0.000000
    19  H    5.626579   1.767749   1.767594   0.000000
 Stoichiometry    C6H12O
 Framework group  C1[X(C6H12O)]
 Deg. of freedom    51
 Full point group                 C1      NOp   1
 Largest Abelian subgroup         C1      NOp   1
 Largest concise Abelian subgroup C1      NOp   1
                         Standard orientation:                         
 ---------------------------------------------------------------------
 Center     Atomic      Atomic             Coordinates (Angstroms)
 Number     Number       Type             X           Y           Z
 ---------------------------------------------------------------------
      1          6           0        0.760968    0.485242    0.428943
      2          6           0       -0.202720   -0.325187   -0.462694
      3          6           0       -1.580197   -0.605120    0.103832
      4          6           0        1.591167   -0.814358    0.434452
      5          6           0        1.419045    1.689982   -0.224589
      6          6           0       -2.451887    0.650279    0.110201
      7          8           0        0.657432   -1.470366   -0.426525
      8          1           0        0.341137    0.741196    1.400513
      9          1           0       -0.295224    0.071632   -1.480894
     10          1           0       -2.053097   -1.392478   -0.488621
     11          1           0       -1.457292   -0.992820    1.117451
     12          1           0        2.578707   -0.724862   -0.025822
     13          1           0        1.673983   -1.321980    1.399085
     14          1           0       -2.584825    1.037242   -0.900826
     15          1           0       -2.001712    1.439008    0.716027
     16          1           0       -3.438969    0.440154    0.520005
     17          1           0        0.696932    2.492633   -0.386530
     18          1           0        2.228846    2.084274    0.391895
     19          1           0        1.833809    1.403900   -1.190959
 ---------------------------------------------------------------------
 Rotational constants (GHZ):      3.7808362      2.1020157      1.5285957
 Standard basis: 6-311+G(2df,2p) (5D, 7F)
 There are   346 symmetry adapted basis functions of A   symmetry.
 Integral buffers will be    131072 words long.
 Raffenetti 2 integral format.
 Two-electron integral symmetry is turned on.
   346 basis functions,   496 primitive gaussians,   381 cartesian basis functions
    28 alpha electrons       28 beta electrons
       nuclear repulsion energy       326.4446996638 Hartrees.
 NAtoms=   19 NActive=   19 NUniq=   19 SFac= 1.00D+00 NAtFMM=   50 NAOKFM=F Big=F
 One-electron integrals computed using PRISM.
 NBasis=   346 RedAO= T  NBF=   346
 NBsUse=   346 1.00D-06 NBFU=   346
 Initial guess read from the read-write file.
 B after Tr=     0.000000    0.000000    0.000000
         Rot=    1.000000    0.000000    0.000000    0.000000 Ang=   0.00 deg.
 Initial guess orbital symmetries:
       Occupied  (A) (A) (A) (A) (A) (A) (A) (A) (A) (A) (A) (A)
                 (A) (A) (A) (A) (A) (A) (A) (A) (A) (A) (A) (A)
                 (A) (A) (A) (A)
       Virtual   (A) (A) (A) (A) (A) (A) (A) (A) (A) (A) (A) (A)
                 (A) (A) (A) (A) (A) (A) (A) (A) (A) (A) (A) (A)
                 (A) (A) (A) (A) (A) (A) (A) (A) (A) (A) (A) (A)
                 (A) (A) (A) (A) (A) (A) (A) (A) (A) (A) (A) (A)
                 (A) (A) (A) (A) (A) (A) (A) (A) (A) (A) (A) (A)
                 (A) (A) (A) (A) (A) (A) (A) (A) (A) (A) (A) (A)
                 (A) (A) (A) (A) (A) (A) (A) (A) (A) (A) (A) (A)
                 (A) (A) (A) (A) (A) (A) (A) (A) (A) (A) (A) (A)
                 (A) (A) (A) (A) (A) (A) (A) (A) (A) (A) (A) (A)
                 (A) (A) (A) (A) (A) (A) (A) (A) (A) (A) (A) (A)
                 (A) (A) (A) (A) (A) (A) (A) (A) (A) (A) (A) (A)
                 (A) (A) (A) (A) (A) (A) (A) (A) (A) (A) (A) (A)
                 (A) (A) (A) (A) (A) (A) (A) (A) (A) (A) (A) (A)
                 (A) (A) (A) (A) (A) (A) (A) (A) (A) (A) (A) (A)
                 (A) (A) (A) (A) (A) (A) (A) (A) (A) (A) (A) (A)
                 (A) (A) (A) (A) (A) (A) (A) (A) (A) (A) (A) (A)
                 (A) (A) (A) (A) (A) (A) (A) (A) (A) (A) (A) (A)
                 (A) (A) (A) (A) (A) (A) (A) (A) (A) (A) (A) (A)
                 (A) (A) (A) (A) (A) (A) (A) (A) (A) (A) (A) (A)
                 (A) (A) (A) (A) (A) (A) (A) (A) (A) (A) (A) (A)
                 (A) (A) (A) (A) (A) (A) (A) (A) (A) (A) (A) (A)
                 (A) (A) (A) (A) (A) (A) (A) (A) (A) (A) (A) (A)
                 (A) (A) (A) (A) (A) (A) (A) (A) (A) (A) (A) (A)
                 (A) (A) (A) (A) (A) (A) (A) (A) (A) (A) (A) (A)
                 (A) (A) (A) (A) (A) (A) (A) (A) (A) (A) (A) (A)
                 (A) (A) (A) (A) (A) (A) (A) (A) (A) (A) (A) (A)
                 (A) (A) (A) (A) (A) (A)
 Harris functional with IExCor= 1009 diagonalized for initial guess.
 ExpMin= 4.38D-02 ExpMax= 8.59D+03 ExpMxC= 1.30D+03 IAcc=2 IRadAn=         0 AccDes= 0.00D+00
 HarFok:  IExCor= 1009 AccDes= 0.00D+00 IRadAn=         0 IDoV= 1
 ScaDFX=  1.000000  1.000000  1.000000  1.000000
 FoFCou: FMM=F IPFlag=           0 FMFlag=      100000 FMFlg1=           0
         NFxFlg=           0 DoJE=T BraDBF=F KetDBF=T FulRan=T
         Omega=  0.000000  0.000000  1.000000  0.000000  0.000000 ICntrl=     500 IOpCl=  0
         NMat0=    1 NMatS0=    1 NMatT0=    0 NMatD0=    1 NMtDS0=    0 NMtDT0=    0
         I1Cent=           4 NGrid=           0.
 Petite list used in FoFCou.
 Requested convergence on RMS density matrix=1.00D-08 within 128 cycles.
 Requested convergence on MAX density matrix=1.00D-06.
 Requested convergence on             energy=1.00D-06.
 No special actions if energy rises.
 SCF Done:  E(RM062X) =  -311.011184870     A.U. after   10 cycles
             Convg  =    0.9439D-08             -V/T =  2.0042
 Calling FoFJK, ICntrl=      2127 FMM=F ISym2X=0 I1Cent= 0 IOpClX= 0 NMat=1 NMatS=1 NMatT=0.
 ***** Axes restored to original set *****
 -------------------------------------------------------------------
 Center     Atomic                   Forces (Hartrees/Bohr)
 Number     Number              X              Y              Z
 -------------------------------------------------------------------
      1        6          -0.004139144   -0.001777711   -0.001642888
      2        6           0.003761281   -0.001120776    0.004108969
      3        6          -0.000814760   -0.001177642    0.000106227
      4        6           0.000772550   -0.000693520    0.003759371
      5        6           0.002226786    0.002491206    0.001011764
      6        6          -0.000783335    0.001793195   -0.001296679
      7        8           0.000940566    0.000786295   -0.004348383
      8        1           0.000879645   -0.000113958    0.000471965
      9        1          -0.001038399    0.000357099   -0.000447941
     10        1          -0.000715145    0.000397068    0.000456415
     11        1           0.000862096    0.000495551   -0.000114683
     12        1           0.000371336    0.000684444   -0.000006229
     13        1          -0.001035363   -0.000916876   -0.000677071
     14        1          -0.000184361   -0.000135929    0.000198319
     15        1          -0.000194012   -0.000217387   -0.000341543
     16        1          -0.000396312   -0.000172798    0.000077024
     17        1          -0.000117704    0.000339687   -0.000526287
     18        1           0.000379072   -0.000132732   -0.000579106
     19        1          -0.000774796   -0.000885219   -0.000209244
 -------------------------------------------------------------------
 Cartesian Forces:  Max     0.004348383 RMS     0.001455487

 GradGradGradGradGradGradGradGradGradGradGradGradGradGradGradGradGradGrad
 Berny optimization.
 Using GDIIS optimizer.
 Internal  Forces:  Max     0.002483889 RMS     0.000683589
 Search for a local minimum.
 Step number   2 out of a maximum of  114
 All quantities printed in internal units (Hartrees-Bohrs-Radians)
 Swaping is turned off.
 Update second derivatives using D2CorX and points    1    2
 DE= -7.85D-03 DEPred=-8.27D-03 R= 9.49D-01
 SS=  1.41D+00  RLast= 3.00D-01 DXNew= 5.0454D-01 9.0076D-01
 Trust test= 9.49D-01 RLast= 3.00D-01 DXMaxT set to 5.05D-01
 ITU=  1  0
     Eigenvalues ---    0.00289   0.00364   0.00417   0.00822   0.02604
     Eigenvalues ---    0.03375   0.03662   0.03759   0.04857   0.05266
     Eigenvalues ---    0.05499   0.05539   0.05553   0.05626   0.05647
     Eigenvalues ---    0.06146   0.07159   0.08170   0.08335   0.08650
     Eigenvalues ---    0.10224   0.10652   0.12097   0.13128   0.15945
     Eigenvalues ---    0.16000   0.16000   0.16000   0.16000   0.16213
     Eigenvalues ---    0.19309   0.21889   0.27663   0.28271   0.29207
     Eigenvalues ---    0.29628   0.29994   0.32037   0.32173   0.32320
     Eigenvalues ---    0.32340   0.32385   0.32428   0.32486   0.32525
     Eigenvalues ---    0.32554   0.32572   0.32586   0.33449   0.40106
     Eigenvalues ---    0.40929
 DIIS coeff's:      1.02325     -0.02325
 Cosine:  1.000 >  0.970
 Length:  1.000
 GDIIS step was calculated using  2 of the last  2 vectors.
 Iteration  1 RMS(Cart)=  0.01135362 RMS(Int)=  0.00005210
 Iteration  2 RMS(Cart)=  0.00006446 RMS(Int)=  0.00001245
 Iteration  3 RMS(Cart)=  0.00000000 RMS(Int)=  0.00001245
 Variable       Old X    -DE/DX   Delta X   Delta X   Delta X     New X
                                  (DIIS)     (GDIIS)  (Total)
    R1        2.91564  -0.00023   0.00104  -0.00202  -0.00097   2.91467
    R2        2.91424  -0.00129   0.00129  -0.00566  -0.00437   2.90987
    R3        2.87311  -0.00248  -0.00044  -0.00848  -0.00892   2.86419
    R4        2.05774   0.00072  -0.00104   0.00268   0.00163   2.05937
    R5        2.86389  -0.00215  -0.00090  -0.00727  -0.00818   2.85571
    R6        2.70739   0.00156   0.00103   0.00390   0.00493   2.71232
    R7        2.07247  -0.00005  -0.00077   0.00014  -0.00063   2.07183
    R8        2.88820  -0.00231   0.00009  -0.00799  -0.00791   2.88029
    R9        2.06540  -0.00076  -0.00080  -0.00209  -0.00290   2.06250
   R10        2.06391   0.00048  -0.00088   0.00188   0.00099   2.06490
   R11        2.70137   0.00204   0.00089   0.00501   0.00589   2.70727
   R12        2.06586  -0.00044  -0.00086  -0.00107  -0.00193   2.06393
   R13        2.06582  -0.00119  -0.00084  -0.00345  -0.00428   2.06154
   R14        2.06311  -0.00056  -0.00081  -0.00143  -0.00224   2.06088
   R15        2.06257  -0.00067  -0.00082  -0.00178  -0.00260   2.05997
   R16        2.05949   0.00082  -0.00096   0.00298   0.00202   2.06151
   R17        2.06109   0.00006  -0.00089   0.00054  -0.00034   2.06075
   R18        2.06299  -0.00021  -0.00083  -0.00033  -0.00116   2.06183
   R19        2.05835  -0.00040  -0.00093  -0.00089  -0.00181   2.05653
    A1        1.46626   0.00011   0.00029  -0.00062  -0.00035   1.46591
    A2        2.02435   0.00030   0.00083   0.00365   0.00444   2.02879
    A3        1.98044  -0.00037  -0.00067  -0.00782  -0.00849   1.97195
    A4        2.02227   0.00029   0.00073   0.00557   0.00626   2.02853
    A5        1.98500  -0.00004   0.00033   0.00250   0.00283   1.98783
    A6        1.94352  -0.00021  -0.00107  -0.00263  -0.00371   1.93981
    A7        2.03611   0.00004   0.00095   0.00263   0.00357   2.03968
    A8        1.60107   0.00072  -0.00034   0.00327   0.00291   1.60399
    A9        1.98140  -0.00061  -0.00037  -0.00343  -0.00381   1.97759
   A10        1.96992  -0.00045   0.00079  -0.00211  -0.00134   1.96858
   A11        1.91477   0.00069  -0.00109   0.00658   0.00550   1.92027
   A12        1.94260  -0.00052   0.00031  -0.00886  -0.00855   1.93405
   A13        1.94790  -0.00210   0.00009  -0.00969  -0.00959   1.93831
   A14        1.90044   0.00024   0.00005  -0.00189  -0.00184   1.89860
   A15        1.88622   0.00120  -0.00099   0.00917   0.00819   1.89441
   A16        1.92539   0.00103   0.00066   0.00475   0.00538   1.93078
   A17        1.93039   0.00029   0.00044   0.00108   0.00153   1.93192
   A18        1.87134  -0.00059  -0.00027  -0.00314  -0.00343   1.86791
   A19        1.60374   0.00096  -0.00039   0.00427   0.00387   1.60762
   A20        1.99963   0.00005   0.00001   0.00180   0.00181   2.00144
   A21        2.02112   0.00043   0.00130   0.00371   0.00501   2.02612
   A22        1.95416  -0.00035   0.00037  -0.00207  -0.00171   1.95245
   A23        1.94750  -0.00032   0.00027   0.00111   0.00135   1.94884
   A24        1.91888  -0.00058  -0.00131  -0.00700  -0.00831   1.91058
   A25        1.93910  -0.00033   0.00071  -0.00278  -0.00208   1.93702
   A26        1.94400  -0.00020   0.00078  -0.00158  -0.00081   1.94319
   A27        1.91545   0.00126  -0.00075   0.00866   0.00792   1.92337
   A28        1.88486   0.00024  -0.00029   0.00116   0.00085   1.88572
   A29        1.88934  -0.00050  -0.00024  -0.00321  -0.00343   1.88591
   A30        1.88946  -0.00050  -0.00023  -0.00245  -0.00268   1.88678
   A31        1.93593   0.00012   0.00026   0.00021   0.00046   1.93639
   A32        1.93968  -0.00023   0.00025  -0.00238  -0.00214   1.93754
   A33        1.93903   0.00033   0.00064   0.00309   0.00372   1.94275
   A34        1.88425  -0.00020  -0.00051  -0.00343  -0.00394   1.88031
   A35        1.88257  -0.00008  -0.00032   0.00116   0.00083   1.88339
   A36        1.87998   0.00004  -0.00035   0.00129   0.00094   1.88092
   A37        1.61136  -0.00180   0.00043  -0.00689  -0.00645   1.60490
    D1        2.01149  -0.00032   0.00015   0.00068   0.00083   2.01232
    D2       -0.02636  -0.00023  -0.00082   0.00048  -0.00034  -0.02670
    D3       -2.01917   0.00013  -0.00090   0.00953   0.00862  -2.01055
    D4       -2.24877   0.00010   0.00117   0.00704   0.00822  -2.24055
    D5        1.99657   0.00019   0.00020   0.00684   0.00705   2.00362
    D6        0.00376   0.00055   0.00012   0.01589   0.01601   0.01977
    D7        0.03396  -0.00030  -0.00030  -0.00121  -0.00151   0.03245
    D8       -2.00389  -0.00021  -0.00126  -0.00141  -0.00268  -2.00656
    D9        2.28649   0.00016  -0.00135   0.00764   0.00628   2.29277
   D10        0.02642   0.00023   0.00082  -0.00049   0.00033   0.02675
   D11        2.03791   0.00035   0.00104  -0.00015   0.00089   2.03880
   D12       -1.98306  -0.00004   0.00039  -0.00508  -0.00470  -1.98776
   D13       -1.99859  -0.00019  -0.00031  -0.00494  -0.00524  -2.00383
   D14        0.01291  -0.00007  -0.00009  -0.00460  -0.00468   0.00823
   D15        2.27513  -0.00047  -0.00074  -0.00953  -0.01027   2.26485
   D16        1.99929  -0.00014   0.00023  -0.00914  -0.00892   1.99037
   D17       -2.27240  -0.00002   0.00045  -0.00880  -0.00836  -2.28076
   D18       -0.01018  -0.00041  -0.00020  -0.01373  -0.01395  -0.02413
   D19        1.24246  -0.00030  -0.00115  -0.00596  -0.00714   1.23532
   D20       -2.93855  -0.00036  -0.00056  -0.00745  -0.00802  -2.94657
   D21       -0.84641  -0.00028  -0.00084  -0.00583  -0.00668  -0.85309
   D22        2.92081   0.00015  -0.00001  -0.00174  -0.00173   2.91908
   D23       -1.26020   0.00009   0.00058  -0.00322  -0.00261  -1.26281
   D24        0.83194   0.00017   0.00031  -0.00160  -0.00126   0.83067
   D25       -1.05761   0.00017   0.00012   0.00466   0.00477  -1.05284
   D26        1.04457   0.00011   0.00071   0.00318   0.00388   1.04845
   D27        3.13671   0.00019   0.00044   0.00480   0.00523  -3.14125
   D28        1.27418  -0.00039  -0.00089  -0.00918  -0.01009   1.26409
   D29       -2.87937  -0.00030   0.00002  -0.01079  -0.01078  -2.89014
   D30       -0.85212  -0.00022  -0.00084  -0.01055  -0.01139  -0.86351
   D31        3.09614   0.00026  -0.00035  -0.00492  -0.00526   3.09087
   D32       -1.05741   0.00035   0.00056  -0.00654  -0.00595  -1.06336
   D33        0.96983   0.00043  -0.00029  -0.00629  -0.00656   0.96327
   D34       -1.00987  -0.00022  -0.00018  -0.01303  -0.01323  -1.02310
   D35        1.11977  -0.00013   0.00073  -0.01465  -0.01392   1.10585
   D36       -3.13617  -0.00006  -0.00012  -0.01440  -0.01453   3.13249
   D37        0.02830   0.00021   0.00088  -0.00063   0.00025   0.02855
   D38       -2.06607  -0.00007  -0.00022  -0.00464  -0.00484  -2.07091
   D39        2.05519  -0.00025   0.00039  -0.00492  -0.00454   2.05065
   D40        1.04914  -0.00037   0.00045   0.00305   0.00349   1.05264
   D41       -1.04721  -0.00005   0.00076   0.00882   0.00957  -1.03764
   D42       -3.14024  -0.00017   0.00062   0.00671   0.00733  -3.13291
   D43       -1.06605   0.00003  -0.00011   0.00869   0.00859  -1.05746
   D44        3.12078   0.00036   0.00020   0.01446   0.01467   3.13545
   D45        1.02775   0.00024   0.00006   0.01235   0.01243   1.04018
   D46       -3.13345  -0.00006  -0.00044   0.00892   0.00848  -3.12496
   D47        1.05338   0.00026  -0.00013   0.01469   0.01456   1.06794
   D48       -1.03965   0.00014  -0.00026   0.01258   0.01232  -1.02733
   D49       -0.02832  -0.00022  -0.00088   0.00060  -0.00029  -0.02860
   D50       -2.07924  -0.00065  -0.00080  -0.00290  -0.00369  -2.08294
   D51        2.04469   0.00062   0.00044   0.00699   0.00743   2.05212
         Item               Value     Threshold  Converged?
 Maximum Force            0.002484     0.000002     NO 
 RMS     Force            0.000684     0.000001     NO 
 Maximum Displacement     0.054114     0.000006     NO 
 RMS     Displacement     0.011355     0.000004     NO 
 Predicted change in Energy=-1.302934D-04
 GradGradGradGradGradGradGradGradGradGradGradGradGradGradGradGradGradGrad

                          Input orientation:                          
 ---------------------------------------------------------------------
 Center     Atomic      Atomic             Coordinates (Angstroms)
 Number     Number       Type             X           Y           Z
 ---------------------------------------------------------------------
      1          6           0       -0.856733    0.320855    0.352489
      2          6           0        0.151199    0.002508   -0.770744
      3          6           0        1.609658    0.264045   -0.473835
      4          6           0       -1.375399    1.382307   -0.635136
      5          6           0       -1.826208   -0.785903    0.716425
      6          6           0        2.163491   -0.767717    0.501807
      7          8           0       -0.426434    0.992209   -1.634986
      8          1           0       -0.385042    0.738393    1.241742
      9          1           0        0.028168   -1.002167   -1.192065
     10          1           0        2.168025    0.245121   -1.411432
     11          1           0        1.705526    1.272718   -0.064714
     12          1           0       -2.404046    1.230235   -0.969240
     13          1           0       -1.240353    2.422657   -0.335909
     14          1           0        2.085189   -1.774630    0.090480
     15          1           0        1.613583   -0.749917    1.443998
     16          1           0        3.211539   -0.578066    0.725324
     17          1           0       -1.314295   -1.600003    1.230746
     18          1           0       -2.619102   -0.419972    1.368885
     19          1           0       -2.288768   -1.192671   -0.183935
 ---------------------------------------------------------------------
                    Distance matrix (angstroms):
                    1          2          3          4          5
     1  C    0.000000
     2  C    1.542376   0.000000
     3  C    2.601754   1.511179   0.000000
     4  C    1.539837   2.062217   3.191723   0.000000
     5  C    1.515666   2.596806   3.784744   2.594433   0.000000
     6  C    3.213882   2.502389   1.524185   4.294064   3.995509
     7  O    2.141479   1.435299   2.454418   1.432624   3.263462
     8  H    1.089772   2.208887   2.673395   2.217680   2.162498
     9  H    2.217901   1.096367   2.149479   2.822391   2.669797
    10  H    3.502330   2.130007   1.091430   3.801537   4.641625
    11  H    2.765009   2.127873   1.092699   3.135202   4.161880
    12  H    2.228928   2.841829   4.157977   1.092184   2.690758
    13  H    2.244689   2.825353   3.577876   1.090918   3.427170
    14  H    3.621410   2.764099   2.168127   4.740089   4.082697
    15  H    2.905237   2.758585   2.169381   4.219382   3.516080
    16  H    4.183049   3.455571   2.170980   5.170485   5.042040
    17  H    2.161110   2.953249   3.863907   3.518441   1.090568
    18  H    2.165140   3.525772   4.663251   2.968351   1.090088
    19  H    2.151566   2.779611   4.171785   2.769177   1.090904
                    6          7          8          9         10
     6  C    0.000000
     7  O    3.790902   0.000000
     8  H    3.051376   2.888201   0.000000
     9  H    2.735649   2.092935   3.020548   0.000000
    10  H    2.164796   2.709121   3.714943   2.486531   0.000000
    11  H    2.166576   2.662648   2.522460   3.042951   1.755992
    12  H    5.197903   2.100196   3.034260   3.308918   4.697853
    13  H    4.739875   2.096723   2.461156   3.751209   4.185147
    14  H    1.090501   4.115930   3.707118   2.544201   2.518331
    15  H    1.091073   4.083725   2.500095   3.086421   3.074245
    16  H    1.088270   4.612123   3.864602   3.740334   2.516403
    17  H    3.649528   3.964881   2.516293   2.833660   4.744696
    18  H    4.872982   3.978102   2.519722   3.729003   5.575760
    19  H    4.524759   3.216759   3.063615   2.533932   4.841177
                   11         12         13         14         15
    11  H    0.000000
    12  H    4.208154   0.000000
    13  H    3.173975   1.782459   0.000000
    14  H    3.074826   5.505039   5.371988   0.000000
    15  H    2.525018   5.087835   4.623661   1.761947   0.000000
    16  H    2.513490   6.138103   5.472650   1.761663   1.760537
    17  H    4.364638   3.746698   4.317600   3.589874   3.056238
    18  H    4.860331   2.869889   3.589960   5.059622   4.246189
    19  H    4.695396   2.549602   3.767342   4.421027   4.251416
                   16         17         18         19
    16  H    0.000000
    17  H    4.667225   0.000000
    18  H    5.868180   1.764675   0.000000
    19  H    5.608732   1.765457   1.765626   0.000000
 Stoichiometry    C6H12O
 Framework group  C1[X(C6H12O)]
 Deg. of freedom    51
 Full point group                 C1      NOp   1
 Largest Abelian subgroup         C1      NOp   1
 Largest concise Abelian subgroup C1      NOp   1
                         Standard orientation:                         
 ---------------------------------------------------------------------
 Center     Atomic      Atomic             Coordinates (Angstroms)
 Number     Number       Type             X           Y           Z
[...]
 ,-0.12068900,0.03783349,0.05808173,-0.03058674,-0.00146717,0.00062007,
 -0.00216966,-0.00029804,-0.02563453,0.61039626,-0.05984276,0.04996746,
 -0.11003028,0.00501294,0.00064765,0.00365840,0.00138113,0.00338202,-0.
 00541466,0.06150245,0.06753356,0.42995487,-0.12677023,-0.05751318,0.02
 324572,-0.01388160,-0.01734275,0.00221444,-0.00097706,-0.00065803,0.00
 238461,0.01067642,0.01155675,0.00235601,0.54277349,-0.05702625,-0.1623
 0328,0.03048625,0.00321775,0.00806397,0.00480214,0.00061958,-0.0004606
 9,-0.00191816,-0.01094531,-0.01740871,0.00405509,-0.03602576,0.5191306
 2,0.02085318,0.02767784,-0.09048394,0.00959014,0.01548160,-0.00526814,
 -0.00005575,-0.00016695,-0.00144061,0.01086885,0.01204451,-0.00520726,
 0.01382109,0.01921664,0.56704225,0.00120693,-0.00010316,0.00035675,-0.
 00834750,0.02721201,-0.02181015,-0.08921030,0.02404717,-0.02113509,0.0
 0105117,0.00030734,-0.00210875,0.00001734,0.00000794,0.00021430,0.5719
 7284,-0.00050515,-0.00002206,-0.00060823,0.00695537,-0.00091347,0.0013
 9641,0.02353553,-0.14748439,0.05411610,-0.00015696,0.00031545,-0.00017
 132,-0.00001816,0.00011162,-0.00002461,0.01702800,0.51630540,0.0008196
 8,-0.00041790,0.00076253,-0.00714495,0.00808570,-0.00848771,-0.0199444
 9,0.05459134,-0.12452529,-0.00031941,-0.00010184,-0.00018658,-0.000074
 96,-0.00039714,0.00037161,-0.01004828,0.04249780,0.53116907,-0.0160963
 7,0.00367056,0.02430399,-0.07669676,0.03904518,-0.04363047,-0.00781405
 ,0.03489379,-0.02535662,-0.15923591,-0.00533473,0.09601929,0.00339735,
 -0.00255883,0.00164176,-0.00921354,-0.00233473,0.00018534,0.29870382,0
 .00367971,-0.01936676,0.03642230,0.01851775,-0.15466800,0.07970881,0.0
 0515843,-0.00377783,0.00425936,0.01785749,-0.06609834,-0.02414349,-0.0
 0263673,0.00228050,0.00284272,0.00189547,0.00232834,-0.00077262,-0.082
 63276,0.25809331,0.03354187,0.04808905,-0.06991949,-0.01005440,0.04778
 908,-0.10979850,-0.00633605,0.01011915,-0.00433835,0.06154037,0.002533
 92,-0.12160129,-0.00107315,-0.00069545,-0.00800638,-0.00215743,-0.0006
 1803,0.00161179,-0.09375345,-0.11234217,0.29500507,-0.09274469,-0.0529
 9658,-0.08429081,0.00974848,0.01361520,0.01789453,0.00141862,0.0011206
 7,0.00018611,-0.00943706,-0.00917277,-0.01224254,-0.00789674,-0.009820
 91,-0.01446670,-0.00000314,0.00010265,0.00022238,0.00044863,-0.0016804
 2,-0.00024009,0.10025501,-0.05327420,-0.10717924,-0.09669265,-0.003824
 18,-0.00772271,-0.00794183,-0.00123805,0.00120849,0.00109551,0.0114749
 6,0.01157639,0.01737652,-0.01135361,-0.01262119,-0.01968526,0.00003577
 ,-0.00001222,-0.00039668,-0.00167746,-0.00069257,-0.00016588,0.0590466
 2,0.11739141,-0.08467279,-0.09629659,-0.20508966,-0.00777945,-0.010180
 92,-0.01467705,-0.00167307,-0.00047544,0.00060690,-0.00642505,-0.00882
 509,-0.01122626,0.00557632,0.00613735,0.01016118,0.00029059,0.00004642
 ,0.00029445,0.00219765,0.00281868,-0.00108663,0.08950530,0.10255134,0.
 22173039,0.00307935,0.01420343,0.01127250,-0.06152286,-0.03927993,-0.0
 2206419,-0.00787410,-0.02815262,-0.01811346,0.00063972,-0.00049480,-0.
 00070323,0.00192922,0.00071405,0.00034029,0.00131016,-0.00140254,0.000
 87950,0.00319007,0.01442430,0.00321050,-0.00230194,0.00135356,0.001545
 97,0.06722893,-0.00109791,-0.00053076,-0.00270098,-0.04105440,-0.22056
 709,-0.10696569,-0.00088531,-0.00296449,-0.00358292,-0.00309554,-0.001
 60339,0.00176588,-0.00076400,0.00086102,0.00031601,-0.00006875,0.00071
 994,-0.00001589,0.00606710,-0.03195986,0.00037380,0.00052117,0.0001633
 4,0.00049985,0.03829292,0.25344893,-0.00450879,-0.01970476,-0.01370917
 ,-0.02164807,-0.10928474,-0.11388043,-0.00078351,-0.00694138,-0.002071
 38,0.00170148,0.00143679,-0.00168393,-0.00192883,-0.00076957,0.0014161
 4,0.00054716,-0.00070765,0.00028860,-0.00009751,0.02473179,0.01212091,
 0.00332775,-0.00153186,-0.00212040,0.02531567,0.11100335,0.11712859,-0
 .00408264,-0.00144588,-0.00350174,-0.02065457,0.00109120,0.03157788,-0
 .12265667,0.00199625,0.11833257,-0.00041745,0.00006026,0.00142941,-0.0
 0083119,0.00090226,0.00045293,0.00680775,-0.00023703,-0.01101380,0.002
 83846,0.00029412,-0.00185359,0.00033943,-0.00032748,-0.00015975,0.0013
 6884,-0.00019370,-0.00036988,0.13439473,0.00020999,0.00067548,-0.00098
 898,-0.00281724,-0.00113944,0.00365818,0.00253075,-0.04881658,-0.00711
 866,-0.00006276,0.00008642,-0.00016064,0.00025817,-0.00011716,0.000272
 89,-0.01357387,-0.00049421,0.02222784,-0.00033518,0.00032997,-0.000114
 70,-0.00010786,0.00021298,0.00042220,0.00019811,0.00010905,0.00046818,
 -0.00310650,0.05055571,-0.00241168,0.00075845,-0.00002444,-0.00489777,
 0.00023089,0.00707202,0.11822722,-0.00629379,-0.23326010,-0.00009825,-
 0.00027408,0.00078748,-0.00000415,0.00010422,0.00011115,0.00995692,0.0
 0005039,-0.01682408,0.00188893,-0.00067669,0.00031480,-0.00011409,0.00
 011459,0.00022967,0.00070484,0.00016117,0.00067145,-0.12881297,0.00341
 024,0.25266508,0.00160681,-0.00090940,-0.00153392,-0.00947214,-0.03200
 875,-0.01640616,-0.05302958,-0.03078585,-0.01328231,-0.00004559,-0.000
 21925,-0.00000003,-0.00003839,-0.00009632,0.00017502,0.00113821,0.0103
 4435,0.00516368,0.00300935,0.00099059,0.00181557,-0.00000929,0.0004247
 7,0.00087134,-0.00592278,-0.00022667,-0.00154964,0.00247006,0.01588569
 ,0.00740066,0.05969914,0.00033788,0.00048061,-0.00022319,-0.00072221,-
 0.00593568,-0.00191293,-0.03305940,-0.24981990,-0.10235335,0.00009385,
 0.00005386,-0.00013966,0.00021178,0.00005657,0.00035097,-0.00287492,-0
 .02108222,-0.00941674,0.00006766,0.00218963,0.00040324,-0.00051346,0.0
 0020781,0.00054438,-0.00062951,0.00081683,0.00023633,0.00011743,0.0000
 2438,-0.00027051,0.03559253,0.27363079,0.00062592,0.00116693,0.0006495
 7,-0.00229672,-0.00835152,-0.00517156,-0.01394437,-0.10250949,-0.09912
 160,-0.00020727,-0.00016529,0.00023706,0.00012608,0.00009237,0.0000659
 9,0.00315533,0.02054919,0.00935242,0.00101701,0.00063499,0.00010341,-0
 .00013525,0.00023785,0.00014249,-0.00185613,0.00032465,0.00064121,-0.0
 0460877,-0.02383754,-0.01198249,0.01853860,0.10963604,0.10566935,-0.00
 482494,-0.00274297,-0.00565808,-0.00050325,-0.00381903,0.00195651,-0.0
 0031322,0.00123377,-0.00074853,-0.21228184,-0.07190035,-0.09811316,0.0
 0104418,-0.00102447,0.00022660,-0.00032655,-0.00010411,-0.00002582,-0.
 03196293,-0.00310644,0.00159450,-0.00057857,0.00110682,0.00014160,-0.0
 0030688,0.00070066,0.00005810,0.00013776,-0.00005933,0.00008438,0.0001
 8396,0.00006269,0.00011199,0.24422346,0.01461250,0.00668760,0.00949335
 ,-0.00077803,-0.00084119,0.00017803,0.00035681,-0.00015624,-0.00033732
 ,-0.07179019,-0.08906132,-0.04356927,0.00023972,0.00229130,0.00041322,
 -0.00007127,-0.00000450,0.00004696,0.00314228,0.00625729,0.00362659,0.
 00221617,-0.00183629,0.00169682,-0.00004561,-0.00005089,-0.00035960,0.
 00008313,-0.00000055,-0.00002864,-0.00003779,-0.00009429,0.00000232,0.
 07738815,0.08621934,-0.01762256,-0.00903070,-0.01187333,0.00096411,0.0
 0271711,-0.00221384,-0.00011672,-0.00085437,0.00108258,-0.10182456,-0.
 04357147,-0.10684034,0.00012425,-0.00218795,0.00159007,0.00033467,0.00
 001143,0.00001430,0.02738456,0.00654793,0.01178988,-0.00237300,0.00337
 975,-0.00164344,-0.00032959,-0.00009751,-0.00008481,-0.00030236,0.0000
 6611,0.00002204,0.00003893,0.00003810,-0.00009403,0.10077385,0.0450194
 5,0.10930902,-0.00100833,0.00766396,0.00023918,-0.00224809,0.00078221,
 0.00282355,0.00008968,0.00092212,0.00000933,-0.05304969,0.01821112,0.0
 0554996,-0.00098590,0.00005011,-0.00007859,-0.00029110,-0.00014023,-0.
 00005361,-0.01002435,0.02787310,0.01205521,0.00119016,-0.00013229,-0.0
 0009496,-0.00060560,0.00110724,-0.00045018,0.00002208,-0.00003257,0.00
 005729,-0.00002050,-0.00011296,-0.00006782,0.00504008,-0.02501063,-0.0
 0795521,0.06148439,-0.00032252,-0.01089393,-0.00593746,0.00061293,-0.0
 0008310,0.00101341,-0.00024304,-0.00030314,-0.00048992,0.02367410,-0.2
 9516336,-0.07320917,0.00197357,-0.00127106,0.00095392,0.00003008,0.000
 01408,0.00001845,0.00589266,0.00487879,-0.00200315,-0.00038991,0.00140
 270,0.00019223,0.00001475,-0.00005811,-0.00033982,0.00017916,0.0000756
 7,0.00004358,0.00006089,0.00004664,0.00002232,0.00090919,-0.00938131,-
 0.00266160,-0.03186356,0.31102777,-0.00093235,0.02053977,0.01055490,-0
 .00140722,0.00210463,-0.00479200,-0.00034358,-0.00028141,0.00073424,0.
 00513118,-0.06851175,-0.07448122,-0.00229894,0.00146716,-0.00094175,0.
 00028971,0.00001775,0.00001807,0.01049716,-0.02032919,-0.00590396,0.00
 129103,-0.00106055,0.00135171,-0.00013689,-0.00077700,0.00094840,-0.00
 033070,-0.00004993,-0.00012184,-0.00001283,-0.00001780,-0.00001069,-0.
 00029305,-0.01560193,-0.00157418,-0.01227931,0.08185238,0.07470859,-0.
 00009532,0.00020573,0.00007834,0.00080811,0.00167999,0.00099693,0.0004
 5935,0.00845754,0.00475648,-0.00014320,-0.00004488,0.00001564,0.000016
 09,0.00006464,-0.00017400,-0.05339877,-0.03326088,-0.01602532,-0.00006
 420,-0.00053274,-0.00008961,0.00009836,-0.00014352,-0.00011184,-0.0000
 8738,-0.00022259,-0.00034825,0.00014536,-0.00065059,0.00003989,-0.0000
 6239,0.00144721,-0.00133105,-0.00000501,0.00002644,-0.00002279,0.00002
 058,-0.00001346,-0.00000273,0.05309705,0.00007454,-0.00010615,0.000017
 26,-0.00138079,-0.00023294,-0.00130788,-0.00293356,-0.02295830,-0.0104
 9989,-0.00005176,0.00007731,0.00002282,0.00008129,-0.00008356,0.000100
 41,-0.03351721,-0.25373406,-0.10297425,0.00023418,0.00063343,0.0003518
 5,-0.00012245,0.00007238,0.00015572,0.00095844,0.00046643,0.00042172,-
 0.00043803,0.00084710,0.00001747,0.00168989,-0.00212583,0.00389095,0.0
 0004507,0.00000551,0.00001430,-0.00005107,0.00001375,0.00001008,0.0353
 1765,0.27878128,-0.00014248,-0.00037502,-0.00017748,0.00046995,0.00058
 299,0.00089637,0.00342457,0.02000555,0.01034911,0.00013154,0.00009028,
 0.00004516,-0.00000616,-0.00011754,0.00019982,-0.01582669,-0.10339912,
 -0.09845221,-0.00003732,-0.00030653,-0.00021171,0.00005409,0.00009678,
 0.00003130,-0.00003786,-0.00030648,-0.00013488,0.00064708,-0.00064291,
 0.00092867,-0.00190502,0.00344229,-0.00212185,0.00001992,-0.00002265,0
 .00003395,0.00002299,0.00001266,-0.00000376,0.01910134,0.11049254,0.10
 459784,0.00002886,-0.00000179,-0.00007778,0.00051757,-0.00019260,-0.00
 077137,0.00566476,-0.00115464,-0.00901980,-0.00001908,0.00001956,-0.00
 008436,-0.00031207,0.00008701,0.00002142,-0.12089651,0.00394168,0.1176
 8649,0.00014238,-0.00021386,0.00032913,-0.00007863,0.00036594,0.000076
 97,-0.00000508,-0.00009628,0.00001992,-0.00011387,0.00162941,-0.001761
 46,0.00020817,-0.00049360,0.00059746,0.00001435,-0.00001055,0.00003180
 ,0.00002549,-0.00003496,0.00001951,0.00231540,0.00036996,-0.00555633,0
 .12836961,0.00055916,0.00049507,0.00035503,-0.00067865,0.00060376,-0.0
 0016986,-0.01426431,0.00061996,0.02271408,-0.00019939,-0.00008797,-0.0
 0005054,0.00000060,0.00011993,-0.00040401,0.00386462,-0.04771497,-0.00
 716205,-0.00016243,0.00001005,-0.00039439,0.00027139,-0.00055375,-0.00
 016891,0.00008002,-0.00005266,-0.00004697,0.00234025,-0.00339623,0.003
 37203,-0.00078146,0.00079556,-0.00072189,-0.00000280,0.00003652,-0.000
 09460,0.00000892,-0.00001436,0.00000436,0.01653803,0.00028673,-0.02411
 302,-0.00561818,0.05018101,-0.00067023,0.00004601,0.00013993,0.0018939
 5,-0.00043982,-0.00044412,0.00961217,-0.00023524,-0.01798893,0.0003042
 6,0.00004822,-0.00006744,-0.00014593,0.00021866,-0.00017354,0.11771282
 ,-0.00681564,-0.23488921,-0.00038812,0.00007321,0.00043524,-0.00019306
 ,0.00024776,0.00000642,-0.00008884,0.00001446,-0.00000336,-0.00184588,
 0.00335803,-0.00096933,-0.00008756,-0.00003360,0.00093996,-0.00005298,
 -0.00005144,0.00009639,-0.00002404,-0.00002168,0.00005158,0.00715932,0
 .00006225,-0.01171842,-0.12908036,0.00371970,0.25662944,0.00032905,-0.
 00012010,-0.00008296,0.00155224,0.00159821,-0.00050121,-0.00686076,-0.
 00087489,-0.00112219,0.00023299,-0.00002380,-0.00027236,0.00005128,-0.
 00006393,0.00011003,-0.30169040,-0.02360216,-0.06006341,-0.00084498,0.
 00017326,-0.00015884,0.00006636,-0.00008312,0.00001445,0.00012982,-0.0
 0009697,0.00010088,0.00050705,0.00001436,-0.00026418,0.00011200,0.0003
 4797,0.00019958,-0.00006064,-0.00001019,0.00001735,-0.00004849,0.00004
 315,0.00001486,-0.00314639,-0.00040187,-0.00032452,-0.01553351,-0.0017
 7515,-0.00410049,0.32528378,-0.00030313,-0.00002466,0.00005403,-0.0015
 1959,-0.00397411,0.00221069,0.02711547,0.00219503,0.00604485,-0.000263
 47,-0.00000963,0.00048545,0.00002646,-0.00015912,0.00009520,-0.0243318
 0,-0.04827868,-0.00659792,0.00221265,-0.00054129,0.00080983,-0.0000781
 9,0.00006060,-0.00009260,0.00026670,0.00045535,0.00021979,-0.00076191,
 0.00095135,-0.00053876,-0.00014888,0.00066105,-0.00096245,0.00010680,0
 .00002899,-0.00007048,0.00005989,-0.00001839,-0.00004174,-0.02872865,-
 0.00201346,-0.00549751,0.00160245,-0.00115635,0.00024653,0.02471069,0.
 05167261,-0.00007652,-0.00001271,0.00016638,0.00158622,0.00339861,-0.0
 0217223,-0.02107429,-0.00275184,-0.00592816,0.00030126,0.00013087,-0.0
 0036906,-0.00006237,0.00015037,-0.00006180,-0.05958628,-0.00645221,-0.
 06001135,-0.00188585,0.00058045,-0.00002625,-0.00010837,0.00018156,0.0
 0012663,0.00032744,0.00001893,0.00006202,0.00021196,-0.00088827,0.0003
 0492,0.00058894,-0.00016231,0.00074706,-0.00012598,-0.00004141,0.00010
 201,-0.00008781,0.00001814,0.00007299,-0.01422717,-0.00066662,-0.00408
 272,0.02761622,0.00300459,0.00749616,0.06657645,0.00378624,0.06337970,
 0.01284037,-0.01459905,0.01138294,0.00090872,0.00062316,-0.00023365,0.
 00008823,-0.00007351,-0.00003211,-0.00223458,-0.00309422,-0.00018318,-
 0.12876431,0.09756404,-0.07467669,-0.00007177,-0.00002348,0.00011533,-
 0.00021821,0.00036830,0.00067504,0.00065507,0.00095268,-0.00061187,0.0
 0004138,0.00041875,-0.00004798,0.00003869,-0.00000952,-0.00002643,-0.0
 0000559,0.00000978,-0.00001427,0.00014671,0.00002227,0.00019917,0.0002
 0060,-0.00040698,0.00061853,0.00004362,0.00007264,-0.00001373,-0.00039
 727,-0.00019727,-0.00024042,0.00002465,0.00001172,-0.00007777,0.137488
 82,0.01536820,-0.01801421,0.01362052,0.00042448,0.00012621,0.00055877,
 -0.00014154,-0.00005743,0.00015258,-0.00337679,-0.00162982,-0.00202176
 ,0.09754201,-0.16192814,0.08751620,-0.00000813,0.00000918,0.00057768,-
 0.00137516,0.00059002,0.00120316,0.00027058,0.00062203,-0.00072716,-0.
 00033414,0.00014674,0.00034533,-0.00008427,0.00001818,-0.00011027,0.00
 001854,-0.00001220,-0.00000711,-0.00000663,0.00016594,-0.00010077,0.00
 031627,-0.00048115,0.00072037,-0.00004940,-0.00001042,-0.00001446,-0.0
 0014819,-0.00004083,-0.00027939,0.00011963,0.00006610,-0.00020753,-0.1
 0478443,0.17641280,-0.00552382,0.00614712,-0.00604884,-0.00086065,0.00
 047096,0.00003721,0.00007089,0.00003320,0.00000587,0.00072157,0.001778
 73,0.00149059,-0.07484662,0.08748349,-0.11471269,-0.00010604,0.0001306
 9,-0.00019655,0.00072606,-0.00055938,-0.00037069,0.00036270,-0.0001993
 0,0.00040042,0.00016301,-0.00029257,-0.00027437,-0.00001082,-0.0000345
 7,0.00002086,-0.00000489,-0.00006693,0.00000444,0.00040413,-0.00022395
 ,0.00033792,0.00018163,0.00045435,-0.00056260,0.00017939,-0.00010244,-
 0.00015831,-0.00006513,0.00009408,0.00028833,-0.00009638,-0.00012396,0
 .00009246,0.08128714,-0.09864322,0.12105861,-0.01431631,0.00667934,0.0
 1133995,0.00019654,-0.00269955,-0.00230846,-0.00005397,0.00017688,0.00
 071253,0.00004274,-0.00013674,0.00055259,-0.18830143,0.06327354,0.1158
 7613,-0.00009602,-0.00003766,-0.00017171,0.00067771,-0.00107177,0.0008
 9502,0.00016947,0.00015017,-0.00051405,0.00008771,0.00009724,-0.000070
 37,-0.00027560,-0.00000950,-0.00001442,0.00002520,-0.00003313,-0.00001
 044,0.00013046,-0.00030235,0.00026161,0.00008033,-0.00021301,0.0002143
 7,0.00005175,-0.00001646,-0.00004877,-0.00000148,0.00006838,0.00013110
 ,-0.00007312,-0.00000466,0.00003147,-0.01299891,0.00520474,0.01100100,
 0.20347511,-0.02164878,0.01045276,0.01781554,-0.00205409,-0.00409868,-
 0.00100744,-0.00027199,0.00009460,0.00098662,0.00034429,0.00118353,-0.
 00015859,0.06323463,-0.07434990,-0.05188586,0.00009227,-0.00012576,0.0
 0012096,0.00050305,-0.00051645,0.00100363,0.00064898,0.00099286,-0.000
 70274,-0.00000775,0.00018550,0.00021721,-0.00039019,0.00001670,-0.0000
 8180,0.00003303,0.00001357,-0.00001969,0.00047757,0.00004366,0.0000377
 6,0.00000886,-0.00009078,-0.00011581,-0.00007277,0.00006874,0.00007149
 ,-0.00000253,-0.00004830,-0.00015292,0.00003007,0.00008324,-0.00006582
 ,0.01467986,-0.00713388,-0.01400305,-0.06673325,0.07879703,0.00628206,
 -0.00333521,-0.00656675,0.00124022,0.00103313,0.00163777,0.00004936,0.
 00029283,-0.00060960,0.00053675,-0.00047592,-0.00004713,0.11618323,-0.
 05191118,-0.14344282,-0.00005994,0.00003772,-0.00014649,-0.00067413,0.
 00062691,-0.00037484,-0.00020014,0.00033194,0.00047558,-0.00024613,0.0
 0031807,0.00037315,0.00019997,-0.00000899,0.00004516,0.00007262,0.0000
 1442,0.00004020,-0.00028979,0.00008730,-0.00032693,0.00002869,0.000046
 09,-0.00005241,0.00002314,-0.00001692,-0.00004391,-0.00001354,0.000049
 34,0.00010640,-0.00001773,-0.00004308,0.00006027,-0.01295877,0.0049603
 4,0.01097882,-0.12944187,0.05545988,0.15235212,-0.00974202,-0.01003203
 ,-0.01501301,0.00072991,-0.00115237,-0.00167658,-0.00015305,0.00028754
 ,0.00009954,0.00086700,0.00112210,-0.00026906,-0.09114646,-0.04893913,
 -0.08474000,0.00004122,-0.00008452,-0.00018663,-0.00023645,0.00064218,
 0.00005941,-0.00133952,-0.00285737,0.00182266,-0.00037857,0.00059705,0
 .00073204,-0.00003819,0.00003846,0.00004527,0.00015334,0.00015043,0.00
 010012,0.00024286,-0.00003086,0.00041646,0.00012866,0.00009697,-0.0000
 3875,-0.00005302,0.00006954,0.00002739,0.00007091,-0.00005172,0.000104
 29,-0.00003092,0.00002745,0.00007245,-0.00778624,-0.00895577,-0.013583
 16,0.01117982,0.01112876,0.01928602,0.09749072,-0.01189691,-0.01437018
 ,-0.02047372,0.00097636,0.00066548,-0.00107214,0.00000613,0.00011960,0
 .00009843,-0.00102776,0.00081873,-0.00161200,-0.04881274,-0.10221274,-
 0.09511546,0.00002843,0.00006252,0.00008628,0.00068217,0.00002977,0.00
 003049,-0.00293086,-0.00329302,0.00240444,-0.00015937,0.00041411,0.000
 60588,-0.00007906,0.00006117,0.00001152,0.00017409,0.00009282,0.000017
 36,0.00073541,-0.00030956,0.00083752,0.00033952,0.00029929,0.00007062,
 -0.00001774,0.00001207,0.00000068,-0.00004882,-0.00008315,-0.00000511,
 0.00001484,0.00000139,-0.00002108,0.00846525,0.01115089,0.01765674,-0.
 00439223,-0.00556845,-0.00746669,0.05794329,0.11210926,0.00446655,0.00
 517062,0.00802811,0.00025892,0.00013929,0.00092723,0.00016049,0.000294
 15,0.00008467,0.00016205,0.00026028,0.00098189,-0.08559063,-0.09621678
 ,-0.21121929,-0.00001961,-0.00005711,-0.00016336,-0.00003828,-0.000117
 10,0.00025699,0.00152017,0.00206040,0.00028629,-0.00018340,-0.00005714
 ,0.00031225,-0.00004153,-0.00003849,0.00000898,0.00011700,-0.00006874,
 -0.00009095,-0.00006420,-0.00032784,0.00027275,0.00012371,0.00003528,0
 .00000394,-0.00001771,0.00001065,0.00002303,0.00003121,0.00001305,0.00
 006448,-0.00002932,0.00001591,0.00004096,-0.00516128,-0.00754328,-0.01
 239150,-0.00843566,-0.00751939,-0.01445862,0.09274153,0.10394624,0.227
 03215\\0.00000068,-0.00000119,0.00000328,-0.00000324,0.00000048,-0.000
 00081,-0.00000199,0.00000220,-0.00000624,-0.00000447,-0.00000191,0.000
 00569,0.00000409,-0.00000239,0.00000650,0.00000307,0.00000276,-0.00000
 812,-0.00000767,-0.00000025,0.00000142,0.00000326,-0.00000065,0.000001
 67,-0.00000391,0.00000009,-0.00000005,-0.00000558,0.00000315,-0.000008
 53,-0.00000153,0.00000242,-0.00000678,-0.00000589,-0.00000306,0.000009
 22,-0.00000472,-0.00000212,0.00000643,0.00000256,0.00000258,-0.0000076
 3,0.00000658,0.00000188,-0.00000587,0.00000392,0.00000414,-0.00001213,
 0.00000720,-0.00000167,0.00000414,0.00000613,-0.00000354,0.00000963,0.
 00000151,-0.00000292,0.00000817\\\@


 A MAN SHOULD NEVER BE ASHAMED TO OWN HE HAS BEEN IN THE WRONG
 WHICH IS BUT SAYING IN OTHER WORDS,
 THAT HE IS WISER TODAY THAN HE WAS YESTERDAY.

                          -- JONATHAN SWIFT
 Job cpu time:  0 days  4 hours  3 minutes 54.4 seconds.
 File lengths (MBytes):  RWF=   2416 Int=      0 D2E=      0 Chk=     32 Scr=     32
 Normal termination of Gaussian 09 at Tue Sep 19 01:46:36 2017.
