 Entering Gaussian System, Link 0=/shared/apps/gaussian/G09_LINUX_LINDA/g09/g09
 Input=/gss_gpfs_scratch/westgroup/QMscratch/APTKSDAYAQSYEF-UHFFFAOYSA-u8.gjf
 Output=/gss_gpfs_scratch/westgroup/QMscratch/APTKSDAYAQSYEF-UHFFFAOYSA-u8.log
 Initial command:
 /shared/apps/gaussian/G09_LINUX_LINDA/g09/l1.exe /gss_gpfs_scratch/westgroup/rwest-autotst-1/Gau-25815.inp -scrdir=/gss_gpfs_scratch/westgroup/rwest-autotst-1/
 Entering Link 1 = /shared/apps/gaussian/G09_LINUX_LINDA/g09/l1.exe PID=     25816.
  
 Copyright (c) 1988,1990,1992,1993,1995,1998,2003,2009,2010,
            Gaussian, Inc.  All Rights Reserved.
  
 This is part of the Gaussian(R) 09 program.  It is based on
 the Gaussian(R) 03 system (copyright 2003, Gaussian, Inc.),
 the Gaussian(R) 98 system (copyright 1998, Gaussian, Inc.),
 the Gaussian(R) 94 system (copyright 1995, Gaussian, Inc.),
 the Gaussian 92(TM) system (copyright 1992, Gaussian, Inc.),
 the Gaussian 90(TM) system (copyright 1990, Gaussian, Inc.),
 the Gaussian 88(TM) system (copyright 1988, Gaussian, Inc.),
 the Gaussian 86(TM) system (copyright 1986, Carnegie Mellon
 University), and the Gaussian 82(TM) system (copyright 1983,
 Carnegie Mellon University). Gaussian is a federally registered
 trademark of Gaussian, Inc.
  
 This software contains proprietary and confidential information,
 including trade secrets, belonging to Gaussian, Inc.
  
 This software is provided under written license and may be
 used, copied, transmitted, or stored only in accord with that
 written license.
  
 The following legend is applicable only to US Government
 contracts under FAR:
  
                    RESTRICTED RIGHTS LEGEND
  
 Use, reproduction and disclosure by the US Government is
 subject to restrictions as set forth in subparagraphs (a)
 and (c) of the Commercial Computer Software - Restricted
 Rights clause in FAR 52.227-19.
  
 Gaussian, Inc.
 340 Quinnipiac St., Bldg. 40, Wallingford CT 06492
  
  
 ---------------------------------------------------------------
 Warning -- This program may not be used in any manner that
 competes with the business of Gaussian, Inc. or will provide
 assistance to any competitor of Gaussian, Inc.  The licensee
 of this program is prohibited from giving any competitor of
 Gaussian, Inc. access to this program.  By using this program,
 the user acknowledges that Gaussian, Inc. is engaged in the
 business of creating and licensing software in the field of
 computational chemistry and represents and warrants to the
 licensee that it is not a competitor of Gaussian, Inc. and that
 it will not use this program in any manner prohibited above.
 ---------------------------------------------------------------
  

 Cite this work as:
 Gaussian 09, Revision B.01,
 M. J. Frisch, G. W. Trucks, H. B. Schlegel, G. E. Scuseria, 
 M. A. Robb, J. R. Cheeseman, G. Scalmani, V. Barone, B. Mennucci, 
 G. A. Petersson, H. Nakatsuji, M. Caricato, X. Li, H. P. Hratchian, 
 A. F. Izmaylov, J. Bloino, G. Zheng, J. L. Sonnenberg, M. Hada, 
 M. Ehara, K. Toyota, R. Fukuda, J. Hasegawa, M. Ishida, T. Nakajima, 
 Y. Honda, O. Kitao, H. Nakai, T. Vreven, J. A. Montgomery, Jr., 
 J. E. Peralta, F. Ogliaro, M. Bearpark, J. J. Heyd, E. Brothers, 
 K. N. Kudin, V. N. Staroverov, T. Keith, R. Kobayashi, J. Normand, 
 K. Raghavachari, A. Rendell, J. C. Burant, S. S. Iyengar, J. Tomasi, 
 M. Cossi, N. Rega, J. M. Millam, M. Klene, J. E. Knox, J. B. Cross, 
 V. Bakken, C. Adamo, J. Jaramillo, R. Gomperts, R. E. Stratmann, 
 O. Yazyev, A. J. Austin, R. Cammi, C. Pomelli, J. W. Ochterski, 
 R. L. Martin, K. Morokuma, V. G. Zakrzewski, G. A. Voth, 
 P. Salvador, J. J. Dannenberg, S. Dapprich, A. D. Daniels, 
 O. Farkas, J. B. Foresman, J. V. Ortiz, J. Cioslowski, 
 and D. J. Fox, Gaussian, Inc., Wallingford CT, 2010.
 
 ******************************************
 Gaussian 09:  EM64L-G09RevB.01 12-Aug-2010
                17-Mar-2017 
 ******************************************
 %nprocshared=20
 Will use up to   20 processors via shared memory.
 %mem=5GB
 --------------------------------------------------------------
 # m062x/6-311+g(2df,2p) opt=(verytight,gdiis) freq IOP(2/16=3)
 --------------------------------------------------------------

 Warning!  Use of Opt=GDIIS is deprecated since it is seldom a good choice.

 1/7=1,14=-1,18=20,19=11,26=3,38=1/1,3;
 2/9=110,12=2,16=3,17=6,18=5,40=1/2;
 3/5=4,6=6,7=214,11=2,16=1,25=1,30=1,71=1,74=-55/1,2,3;
 4//1;
 5/5=2,38=5/2;
 6/7=2,8=2,9=2,10=2,28=1/1;
 7//1,2,3,16;
 1/7=1,14=-1,18=20,19=11/3(2);
 2/9=110,16=3/2;
 99//99;
 2/9=110,16=3/2;
 3/5=4,6=6,7=214,11=2,16=1,25=1,30=1,71=1,74=-55/1,2,3;
 4/5=5,16=3/1;
 5/5=2,38=5/2;
 7//1,2,3,16;
 1/7=1,14=-1,18=20,19=11/3(-5);
 2/9=110,16=3/2;
 6/7=2,8=2,9=2,10=2,19=2,28=1/1;
 99/9=1/99;
 ------------------------------------------------------
 InChI=1S/C8H13/c1-4-6-7-8(3)5-2/h4-5H,1-2,6-7H2,3H3/u8
 ------------------------------------------------------
 Symbolic Z-matrix:
 Charge =  0 Multiplicity = 2
 C                     0.097    -0.8258   -0.1363 
 C                     1.1794    0.1696    0.2984 
 C                    -2.3651   -1.3968    0.0511 
 C                    -1.3097   -0.2998    0.1918 
 C                     2.557    -0.3785    0.0427 
 C                    -1.6717    0.8831   -0.6628 
 C                     3.6447    0.3295    0.3556 
 C                    -1.9171    2.07     -0.1072 
 H                     0.1828   -1.0293   -1.2272 
 H                     0.2613   -1.7823    0.4079 
 H                     1.0632    1.1209   -0.2649 
 H                     1.0687    0.3827    1.3844 
 H                    -2.3931   -1.7828   -0.9908 
 H                    -2.1353   -2.2345    0.7427 
 H                    -3.3659   -0.9954    0.3172 
 H                     2.6814   -1.362    -0.4029 
 H                    -1.7329    0.7713   -1.7417 
 H                     3.5591    1.316     0.8017 
 H                     4.6321   -0.0783    0.1651 
 H                    -1.8592    2.2038    0.9689 
 H                    -2.1767    2.9187   -0.7315 
 

 GradGradGradGradGradGradGradGradGradGradGradGradGradGradGradGradGradGrad
 Berny optimization.
 Initialization pass.
                           ----------------------------
                           !    Initial Parameters    !
                           ! (Angstroms and Degrees)  !
 --------------------------                            --------------------------
 ! Name  Definition              Value          Derivative Info.                !
 --------------------------------------------------------------------------------
 ! R1    R(1,2)                  1.5334         estimate D2E/DX2                !
 ! R2    R(1,4)                  1.5372         estimate D2E/DX2                !
 ! R3    R(1,9)                  1.113          estimate D2E/DX2                !
 ! R4    R(1,10)                 1.1127         estimate D2E/DX2                !
 ! R5    R(2,5)                  1.5045         estimate D2E/DX2                !
 ! R6    R(2,11)                 1.1117         estimate D2E/DX2                !
 ! R7    R(2,12)                 1.1122         estimate D2E/DX2                !
 ! R8    R(3,4)                  1.5287         estimate D2E/DX2                !
 ! R9    R(3,13)                 1.1115         estimate D2E/DX2                !
 ! R10   R(3,14)                 1.1103         estimate D2E/DX2                !
 ! R11   R(3,15)                 1.1106         estimate D2E/DX2                !
 ! R12   R(4,6)                  1.5035         estimate D2E/DX2                !
 ! R13   R(5,7)                  1.335          estimate D2E/DX2                !
 ! R14   R(5,16)                 1.0869         estimate D2E/DX2                !
 ! R15   R(6,8)                  1.3333         estimate D2E/DX2                !
 ! R16   R(6,17)                 1.0864         estimate D2E/DX2                !
 ! R17   R(7,18)                 1.0861         estimate D2E/DX2                !
 ! R18   R(7,19)                 1.0851         estimate D2E/DX2                !
 ! R19   R(8,20)                 1.0859         estimate D2E/DX2                !
 ! R20   R(8,21)                 1.0851         estimate D2E/DX2                !
 ! A1    A(2,1,4)              111.3035         estimate D2E/DX2                !
 ! A2    A(2,1,9)              110.006          estimate D2E/DX2                !
 ! A3    A(2,1,10)             108.3696         estimate D2E/DX2                !
 ! A4    A(4,1,9)              110.0165         estimate D2E/DX2                !
 ! A5    A(4,1,10)             108.9582         estimate D2E/DX2                !
 ! A6    A(9,1,10)             108.1082         estimate D2E/DX2                !
 ! A7    A(1,2,5)              111.2025         estimate D2E/DX2                !
 ! A8    A(1,2,11)             109.7592         estimate D2E/DX2                !
 ! A9    A(1,2,12)             109.3243         estimate D2E/DX2                !
 ! A10   A(5,2,11)             108.7442         estimate D2E/DX2                !
 ! A11   A(5,2,12)             109.0794         estimate D2E/DX2                !
 ! A12   A(11,2,12)            108.6876         estimate D2E/DX2                !
 ! A13   A(4,3,13)             110.6634         estimate D2E/DX2                !
 ! A14   A(4,3,14)             109.9483         estimate D2E/DX2                !
 ! A15   A(4,3,15)             109.9193         estimate D2E/DX2                !
 ! A16   A(13,3,14)            109.0922         estimate D2E/DX2                !
 ! A17   A(13,3,15)            109.1117         estimate D2E/DX2                !
 ! A18   A(14,3,15)            108.0549         estimate D2E/DX2                !
 ! A19   A(1,4,3)              111.5038         estimate D2E/DX2                !
 ! A20   A(1,4,6)              111.6049         estimate D2E/DX2                !
 ! A21   A(3,4,6)              110.2442         estimate D2E/DX2                !
 ! A22   A(2,5,7)              120.8627         estimate D2E/DX2                !
 ! A23   A(2,5,16)             120.2736         estimate D2E/DX2                !
 ! A24   A(7,5,16)             118.8637         estimate D2E/DX2                !
 ! A25   A(4,6,8)              120.5188         estimate D2E/DX2                !
 ! A26   A(4,6,17)             119.8061         estimate D2E/DX2                !
 ! A27   A(8,6,17)             119.675          estimate D2E/DX2                !
 ! A28   A(5,7,18)             120.9155         estimate D2E/DX2                !
 ! A29   A(5,7,19)             120.0603         estimate D2E/DX2                !
 ! A30   A(18,7,19)            119.0242         estimate D2E/DX2                !
 ! A31   A(6,8,20)             120.8515         estimate D2E/DX2                !
 ! A32   A(6,8,21)             120.0364         estimate D2E/DX2                !
 ! A33   A(20,8,21)            119.112          estimate D2E/DX2                !
 ! D1    D(4,1,2,5)            177.0021         estimate D2E/DX2                !
 ! D2    D(4,1,2,11)           -62.6276         estimate D2E/DX2                !
 ! D3    D(4,1,2,12)            56.4994         estimate D2E/DX2                !
 ! D4    D(9,1,2,5)            -60.7918         estimate D2E/DX2                !
 ! D5    D(9,1,2,11)            59.5785         estimate D2E/DX2                !
 ! D6    D(9,1,2,12)           178.7055         estimate D2E/DX2                !
 ! D7    D(10,1,2,5)            57.2058         estimate D2E/DX2                !
 ! D8    D(10,1,2,11)          177.5761         estimate D2E/DX2                !
 ! D9    D(10,1,2,12)          -63.2969         estimate D2E/DX2                !
 ! D10   D(2,1,4,3)           -167.4283         estimate D2E/DX2                !
 ! D11   D(2,1,4,6)             68.7892         estimate D2E/DX2                !
 ! D12   D(9,1,4,3)             70.3717         estimate D2E/DX2                !
 ! D13   D(9,1,4,6)            -53.4108         estimate D2E/DX2                !
 ! D14   D(10,1,4,3)           -47.9817         estimate D2E/DX2                !
 ! D15   D(10,1,4,6)          -171.7641         estimate D2E/DX2                !
 ! D16   D(1,2,5,7)           -179.7104         estimate D2E/DX2                !
 ! D17   D(1,2,5,16)             0.3464         estimate D2E/DX2                !
 ! D18   D(11,2,5,7)            59.3214         estimate D2E/DX2                !
 ! D19   D(11,2,5,16)         -120.6218         estimate D2E/DX2                !
 ! D20   D(12,2,5,7)           -59.0633         estimate D2E/DX2                !
 ! D21   D(12,2,5,16)          120.9934         estimate D2E/DX2                !
 ! D22   D(13,3,4,1)           -60.7618         estimate D2E/DX2                !
 ! D23   D(13,3,4,6)            63.7872         estimate D2E/DX2                !
 ! D24   D(14,3,4,1)            59.8204         estimate D2E/DX2                !
 ! D25   D(14,3,4,6)          -175.6306         estimate D2E/DX2                !
 ! D26   D(15,3,4,1)           178.6506         estimate D2E/DX2                !
 ! D27   D(15,3,4,6)           -56.8004         estimate D2E/DX2                !
 ! D28   D(1,4,6,8)           -117.9165         estimate D2E/DX2                !
 ! D29   D(1,4,6,17)            62.0082         estimate D2E/DX2                !
 ! D30   D(3,4,6,8)            117.5925         estimate D2E/DX2                !
 ! D31   D(3,4,6,17)           -62.4828         estimate D2E/DX2                !
 ! D32   D(2,5,7,18)             0.0225         estimate D2E/DX2                !
 ! D33   D(2,5,7,19)          -179.9733         estimate D2E/DX2                !
 ! D34   D(16,5,7,18)          179.9665         estimate D2E/DX2                !
 ! D35   D(16,5,7,19)           -0.0293         estimate D2E/DX2                !
 ! D36   D(4,6,8,20)             0.0631         estimate D2E/DX2                !
 ! D37   D(4,6,8,21)           179.9377         estimate D2E/DX2                !
 ! D38   D(17,6,8,20)         -179.8617         estimate D2E/DX2                !
 ! D39   D(17,6,8,21)            0.0129         estimate D2E/DX2                !
 --------------------------------------------------------------------------------
 Trust Radius=3.00D-01 FncErr=1.00D-07 GrdErr=1.00D-06
 Number of steps in this run=    102 maximum allowed number of steps=    126.
 GradGradGradGradGradGradGradGradGradGradGradGradGradGradGradGradGradGrad

                          Input orientation:                          
 ---------------------------------------------------------------------
 Center     Atomic      Atomic             Coordinates (Angstroms)
 Number     Number       Type             X           Y           Z
 ---------------------------------------------------------------------
      1          6           0        0.097000   -0.825800   -0.136300
      2          6           0        1.179400    0.169600    0.298400
      3          6           0       -2.365100   -1.396800    0.051100
      4          6           0       -1.309700   -0.299800    0.191800
      5          6           0        2.557000   -0.378500    0.042700
      6          6           0       -1.671700    0.883100   -0.662800
      7          6           0        3.644700    0.329500    0.355600
      8          6           0       -1.917100    2.070000   -0.107200
      9          1           0        0.182800   -1.029300   -1.227200
     10          1           0        0.261300   -1.782300    0.407900
     11          1           0        1.063200    1.120900   -0.264900
     12          1           0        1.068700    0.382700    1.384400
     13          1           0       -2.393100   -1.782800   -0.990800
     14          1           0       -2.135300   -2.234500    0.742700
     15          1           0       -3.365900   -0.995400    0.317200
     16          1           0        2.681400   -1.362000   -0.402900
     17          1           0       -1.732900    0.771300   -1.741700
     18          1           0        3.559100    1.316000    0.801700
     19          1           0        4.632100   -0.078300    0.165100
     20          1           0       -1.859200    2.203800    0.968900
     21          1           0       -2.176700    2.918700   -0.731500
 ---------------------------------------------------------------------
                    Distance matrix (angstroms):
                    1          2          3          4          5
     1  C    0.000000
     2  C    1.533419   0.000000
     3  C    2.534383   3.883072   0.000000
     4  C    1.537248   2.535216   1.528749   0.000000
     5  C    2.506735   1.504519   5.026338   3.870374   0.000000
     6  C    2.515122   3.092209   2.487650   1.503542   4.468923
     7  C    3.763357   2.471142   6.260234   4.996892   1.335014
     8  C    3.527478   3.655728   3.499209   2.464607   5.102469
     9  H    1.113030   2.181290   2.874178   2.184785   2.770020
    10  H    1.112673   2.159817   2.678412   2.170840   2.715560
    11  H    2.177090   1.111657   4.265198   2.803144   2.138751
    12  H    2.171912   1.112233   4.090879   2.746796   2.143507
    13  H    2.801181   4.270440   1.111457   2.184396   5.248206
    14  H    2.782129   4.118778   1.110342   2.174436   5.094351
    15  H    3.496584   4.692263   1.110645   2.174291   5.961263
    16  H    2.652868   2.256906   5.067000   4.172627   1.086879
    17  H    2.911455   3.606320   2.883482   2.250506   4.786373
    18  H    4.177713   2.688962   6.558874   5.166043   2.109885
    19  H    4.606162   3.464154   7.121253   5.945987   2.100272
    20  H    3.771825   3.717611   3.750015   2.678404   5.198937
    21  H    4.421002   4.458885   4.389931   3.458745   5.820552
                    6          7          8          9         10
     6  C    0.000000
     7  C    5.441298   0.000000
     8  C    1.333283   5.846122   0.000000
     9  H    2.723048   4.041824   3.907639   0.000000
    10  H    3.462260   3.988713   4.455443   1.801867   0.000000
    11  H    2.773905   2.770465   3.131748   2.514853   3.086142
    12  H    3.457054   2.774353   3.739900   3.098228   2.508520
    13  H    2.781191   6.536791   3.981381   2.694236   3.000367
    14  H    3.451056   6.335009   4.393024   3.272094   2.461761
    15  H    2.712835   7.134798   3.416989   3.870348   3.712683
    16  H    4.904845   2.089125   5.745630   2.652011   2.586684
    17  H    1.086402   5.788993   2.095744   2.678951   3.888250
    18  H    5.449168   1.086055   5.602087   4.584350   4.542029
    19  H    6.430210   1.085150   6.897924   4.758064   4.697495
    20  H    2.107570   5.846542   1.085931   4.409711   4.549751
    21  H    2.098431   6.463315   1.085096   4.625977   5.416777
                   11         12         13         14         15
    11  H    0.000000
    12  H    1.806975   0.000000
    13  H    4.572135   4.723878   0.000000
    14  H    4.743877   4.186542   1.809839   0.000000
    15  H    4.943126   4.764845   1.810305   1.797441   0.000000
    16  H    2.966885   2.973083   5.125744   5.027351   6.101047
    17  H    3.181404   4.215741   2.742835   3.920332   3.166542
    18  H    2.721253   2.722624   6.945812   6.710866   7.316620
    19  H    3.789463   3.794342   7.320851   7.126045   8.051845
    20  H    3.351918   3.472988   4.474199   4.452629   3.595795
    21  H    3.734535   4.630437   4.713615   5.360079   4.223050
                   16         17         18         19         20
    16  H    0.000000
    17  H    5.082263   0.000000
    18  H    3.064817   5.896681   0.000000
    19  H    2.403277   6.698577   1.871005   0.000000
    20  H    5.934123   3.068446   5.493097   6.927557   0.000000
    21  H    6.483325   2.414289   6.149695   7.493041   1.871697
                   21
    21  H    0.000000
 Stoichiometry    C8H13(2)
 Framework group  C1[X(C8H13)]
 Deg. of freedom    57
 Full point group                 C1      NOp   1
 Largest Abelian subgroup         C1      NOp   1
 Largest concise Abelian subgroup C1      NOp   1
                         Standard orientation:                         
 ---------------------------------------------------------------------
 Center     Atomic      Atomic             Coordinates (Angstroms)
 Number     Number       Type             X           Y           Z
 ---------------------------------------------------------------------
      1          6           0       -0.095503   -0.862316    0.170810
      2          6           0       -1.178343    0.152542   -0.215058
      3          6           0        2.324270   -1.523568   -0.190495
      4          6           0        1.295423   -0.397205   -0.289764
      5          6           0       -2.546861   -0.338331    0.171955
      6          6           0        1.762313    0.803678    0.485175
      7          6           0       -3.633967    0.394214   -0.080711
      8          6           0        1.998308    1.959988   -0.135228
      9          1           0       -0.098428   -1.021980    1.272325
     10          1           0       -0.333146   -1.832268   -0.319863
     11          1           0       -0.987222    1.119653    0.298703
     12          1           0       -1.149915    0.321127   -1.314073
     13          1           0        2.425065   -1.871207    0.860373
     14          1           0        2.013052   -2.378129   -0.827463
     15          1           0        3.312028   -1.166740   -0.551797
     16          1           0       -2.664973   -1.299727    0.664981
     17          1           0        1.907692    0.730135    1.559291
     18          1           0       -3.554455    1.359911   -0.571243
     19          1           0       -4.614732    0.027719    0.204476
     20          1           0        1.857126    2.055494   -1.207698
     21          1           0        2.334072    2.822010    0.431883
 ---------------------------------------------------------------------
 Rotational constants (GHZ):      3.4892601      0.9779234      0.8027485
 Standard basis: 6-311+G(2df,2p) (5D, 7F)
 There are   389 symmetry adapted basis functions of A   symmetry.
 Integral buffers will be    131072 words long.
 Raffenetti 2 integral format.
 Two-electron integral symmetry is turned on.
   389 basis functions,   559 primitive gaussians,   429 cartesian basis functions
    31 alpha electrons       30 beta electrons
       nuclear repulsion energy       342.8989257518 Hartrees.
 NAtoms=   21 NActive=   21 NUniq=   21 SFac= 1.00D+00 NAtFMM=   50 NAOKFM=F Big=F
 One-electron integrals computed using PRISM.
 NBasis=   389 RedAO= T  NBF=   389
 NBsUse=   389 1.00D-06 NBFU=   389
 Harris functional with IExCor= 1009 diagonalized for initial guess.
 ExpMin= 4.38D-02 ExpMax= 4.56D+03 ExpMxC= 6.82D+02 IAcc=2 IRadAn=         0 AccDes= 0.00D+00
 HarFok:  IExCor= 1009 AccDes= 0.00D+00 IRadAn=         0 IDoV= 1
 ScaDFX=  1.000000  1.000000  1.000000  1.000000
 FoFCou: FMM=F IPFlag=           0 FMFlag=      100000 FMFlg1=           0
         NFxFlg=           0 DoJE=T BraDBF=F KetDBF=T FulRan=T
         Omega=  0.000000  0.000000  1.000000  0.000000  0.000000 ICntrl=     500 IOpCl=  0
         NMat0=    1 NMatS0=    1 NMatT0=    0 NMatD0=    1 NMtDS0=    0 NMtDT0=    0
         I1Cent=           4 NGrid=           0.
 Petite list used in FoFCou.
 Initial guess orbital symmetries:
 Alpha Orbitals:
       Occupied  (A) (A) (A) (A) (A) (A) (A) (A) (A) (A) (A) (A)
                 (A) (A) (A) (A) (A) (A) (A) (A) (A) (A) (A) (A)
                 (A) (A) (A) (A) (A) (A) (A)
       Virtual   (A) (A) (A) (A) (A) (A) (A) (A) (A) (A) (A) (A)
                 (A) (A) (A) (A) (A) (A) (A) (A) (A) (A) (A) (A)
                 (A) (A) (A) (A) (A) (A) (A) (A) (A) (A) (A) (A)
                 (A) (A) (A) (A) (A) (A) (A) (A) (A) (A) (A) (A)
                 (A) (A) (A) (A) (A) (A) (A) (A) (A) (A) (A) (A)
                 (A) (A) (A) (A) (A) (A) (A) (A) (A) (A) (A) (A)
                 (A) (A) (A) (A) (A) (A) (A) (A) (A) (A) (A) (A)
                 (A) (A) (A) (A) (A) (A) (A) (A) (A) (A) (A) (A)
                 (A) (A) (A) (A) (A) (A) (A) (A) (A) (A) (A) (A)
                 (A) (A) (A) (A) (A) (A) (A) (A) (A) (A) (A) (A)
                 (A) (A) (A) (A) (A) (A) (A) (A) (A) (A) (A) (A)
                 (A) (A) (A) (A) (A) (A) (A) (A) (A) (A) (A) (A)
                 (A) (A) (A) (A) (A) (A) (A) (A) (A) (A) (A) (A)
                 (A) (A) (A) (A) (A) (A) (A) (A) (A) (A) (A) (A)
                 (A) (A) (A) (A) (A) (A) (A) (A) (A) (A) (A) (A)
                 (A) (A) (A) (A) (A) (A) (A) (A) (A) (A) (A) (A)
                 (A) (A) (A) (A) (A) (A) (A) (A) (A) (A) (A) (A)
                 (A) (A) (A) (A) (A) (A) (A) (A) (A) (A) (A) (A)
                 (A) (A) (A) (A) (A) (A) (A) (A) (A) (A) (A) (A)
                 (A) (A) (A) (A) (A) (A) (A) (A) (A) (A) (A) (A)
                 (A) (A) (A) (A) (A) (A) (A) (A) (A) (A) (A) (A)
                 (A) (A) (A) (A) (A) (A) (A) (A) (A) (A) (A) (A)
                 (A) (A) (A) (A) (A) (A) (A) (A) (A) (A) (A) (A)
                 (A) (A) (A) (A) (A) (A) (A) (A) (A) (A) (A) (A)
                 (A) (A) (A) (A) (A) (A) (A) (A) (A) (A) (A) (A)
                 (A) (A) (A) (A) (A) (A) (A) (A) (A) (A) (A) (A)
                 (A) (A) (A) (A) (A) (A) (A) (A) (A) (A) (A) (A)
                 (A) (A) (A) (A) (A) (A) (A) (A) (A) (A) (A) (A)
                 (A) (A) (A) (A) (A) (A) (A) (A) (A) (A) (A) (A)
                 (A) (A) (A) (A) (A) (A) (A) (A) (A) (A)
 Beta  Orbitals:
       Occupied  (A) (A) (A) (A) (A) (A) (A) (A) (A) (A) (A) (A)
                 (A) (A) (A) (A) (A) (A) (A) (A) (A) (A) (A) (A)
                 (A) (A) (A) (A) (A) (A)
       Virtual   (A) (A) (A) (A) (A) (A) (A) (A) (A) (A) (A) (A)
                 (A) (A) (A) (A) (A) (A) (A) (A) (A) (A) (A) (A)
                 (A) (A) (A) (A) (A) (A) (A) (A) (A) (A) (A) (A)
                 (A) (A) (A) (A) (A) (A) (A) (A) (A) (A) (A) (A)
                 (A) (A) (A) (A) (A) (A) (A) (A) (A) (A) (A) (A)
                 (A) (A) (A) (A) (A) (A) (A) (A) (A) (A) (A) (A)
                 (A) (A) (A) (A) (A) (A) (A) (A) (A) (A) (A) (A)
                 (A) (A) (A) (A) (A) (A) (A) (A) (A) (A) (A) (A)
                 (A) (A) (A) (A) (A) (A) (A) (A) (A) (A) (A) (A)
                 (A) (A) (A) (A) (A) (A) (A) (A) (A) (A) (A) (A)
                 (A) (A) (A) (A) (A) (A) (A) (A) (A) (A) (A) (A)
                 (A) (A) (A) (A) (A) (A) (A) (A) (A) (A) (A) (A)
                 (A) (A) (A) (A) (A) (A) (A) (A) (A) (A) (A) (A)
                 (A) (A) (A) (A) (A) (A) (A) (A) (A) (A) (A) (A)
                 (A) (A) (A) (A) (A) (A) (A) (A) (A) (A) (A) (A)
                 (A) (A) (A) (A) (A) (A) (A) (A) (A) (A) (A) (A)
                 (A) (A) (A) (A) (A) (A) (A) (A) (A) (A) (A) (A)
                 (A) (A) (A) (A) (A) (A) (A) (A) (A) (A) (A) (A)
                 (A) (A) (A) (A) (A) (A) (A) (A) (A) (A) (A) (A)
                 (A) (A) (A) (A) (A) (A) (A) (A) (A) (A) (A) (A)
                 (A) (A) (A) (A) (A) (A) (A) (A) (A) (A) (A) (A)
                 (A) (A) (A) (A) (A) (A) (A) (A) (A) (A) (A) (A)
                 (A) (A) (A) (A) (A) (A) (A) (A) (A) (A) (A) (A)
                 (A) (A) (A) (A) (A) (A) (A) (A) (A) (A) (A) (A)
                 (A) (A) (A) (A) (A) (A) (A) (A) (A) (A) (A) (A)
                 (A) (A) (A) (A) (A) (A) (A) (A) (A) (A) (A) (A)
                 (A) (A) (A) (A) (A) (A) (A) (A) (A) (A) (A) (A)
                 (A) (A) (A) (A) (A) (A) (A) (A) (A) (A) (A) (A)
                 (A) (A) (A) (A) (A) (A) (A) (A) (A) (A) (A) (A)
                 (A) (A) (A) (A) (A) (A) (A) (A) (A) (A) (A)
 The electronic state of the initial guess is 2-A.
 Initial guess <Sx>= 0.0000 <Sy>= 0.0000 <Sz>= 0.5000 <S**2>= 0.7500 S= 0.5000
 Requested convergence on RMS density matrix=1.00D-08 within 128 cycles.
 Requested convergence on MAX density matrix=1.00D-06.
 Requested convergence on             energy=1.00D-06.
 No special actions if energy rises.
 SCF Done:  E(UM062X) =  -312.500645044     A.U. after   16 cycles
             Convg  =    0.3680D-08             -V/T =  2.0053
 <Sx>= 0.0000 <Sy>= 0.0000 <Sz>= 0.5000 <S**2>= 0.7544 S= 0.5022
 <L.S>= 0.000000000000E+00
 Annihilation of the first spin contaminant:
 S**2 before annihilation     0.7544,   after     0.7500

 **********************************************************************

            Population analysis using the SCF density.

 **********************************************************************

 Orbital symmetries:
 Alpha Orbitals:
       Occupied  (A) (A) (A) (A) (A) (A) (A) (A) (A) (A) (A) (A)
                 (A) (A) (A) (A) (A) (A) (A) (A) (A) (A) (A) (A)
                 (A) (A) (A) (A) (A) (A) (A)
       Virtual   (A) (A) (A) (A) (A) (A) (A) (A) (A) (A) (A) (A)
                 (A) (A) (A) (A) (A) (A) (A) (A) (A) (A) (A) (A)
                 (A) (A) (A) (A) (A) (A) (A) (A) (A) (A) (A) (A)
                 (A) (A) (A) (A) (A) (A) (A) (A) (A) (A) (A) (A)
                 (A) (A) (A) (A) (A) (A) (A) (A) (A) (A) (A) (A)
                 (A) (A) (A) (A) (A) (A) (A) (A) (A) (A) (A) (A)
                 (A) (A) (A) (A) (A) (A) (A) (A) (A) (A) (A) (A)
                 (A) (A) (A) (A) (A) (A) (A) (A) (A) (A) (A) (A)
                 (A) (A) (A) (A) (A) (A) (A) (A) (A) (A) (A) (A)
                 (A) (A) (A) (A) (A) (A) (A) (A) (A) (A) (A) (A)
                 (A) (A) (A) (A) (A) (A) (A) (A) (A) (A) (A) (A)
                 (A) (A) (A) (A) (A) (A) (A) (A) (A) (A) (A) (A)
                 (A) (A) (A) (A) (A) (A) (A) (A) (A) (A) (A) (A)
                 (A) (A) (A) (A) (A) (A) (A) (A) (A) (A) (A) (A)
                 (A) (A) (A) (A) (A) (A) (A) (A) (A) (A) (A) (A)
                 (A) (A) (A) (A) (A) (A) (A) (A) (A) (A) (A) (A)
                 (A) (A) (A) (A) (A) (A) (A) (A) (A) (A) (A) (A)
                 (A) (A) (A) (A) (A) (A) (A) (A) (A) (A) (A) (A)
                 (A) (A) (A) (A) (A) (A) (A) (A) (A) (A) (A) (A)
                 (A) (A) (A) (A) (A) (A) (A) (A) (A) (A) (A) (A)
                 (A) (A) (A) (A) (A) (A) (A) (A) (A) (A) (A) (A)
                 (A) (A) (A) (A) (A) (A) (A) (A) (A) (A) (A) (A)
                 (A) (A) (A) (A) (A) (A) (A) (A) (A) (A) (A) (A)
                 (A) (A) (A) (A) (A) (A) (A) (A) (A) (A) (A) (A)
                 (A) (A) (A) (A) (A) (A) (A) (A) (A) (A) (A) (A)
                 (A) (A) (A) (A) (A) (A) (A) (A) (A) (A) (A) (A)
                 (A) (A) (A) (A) (A) (A) (A) (A) (A) (A) (A) (A)
                 (A) (A) (A) (A) (A) (A) (A) (A) (A) (A) (A) (A)
                 (A) (A) (A) (A) (A) (A) (A) (A) (A) (A) (A) (A)
                 (A) (A) (A) (A) (A) (A) (A) (A) (A) (A)
 Beta  Orbitals:
       Occupied  (A) (A) (A) (A) (A) (A) (A) (A) (A) (A) (A) (A)
                 (A) (A) (A) (A) (A) (A) (A) (A) (A) (A) (A) (A)
                 (A) (A) (A) (A) (A) (A)
       Virtual   (A) (A) (A) (A) (A) (A) (A) (A) (A) (A) (A) (A)
                 (A) (A) (A) (A) (A) (A) (A) (A) (A) (A) (A) (A)
                 (A) (A) (A) (A) (A) (A) (A) (A) (A) (A) (A) (A)
                 (A) (A) (A) (A) (A) (A) (A) (A) (A) (A) (A) (A)
                 (A) (A) (A) (A) (A) (A) (A) (A) (A) (A) (A) (A)
                 (A) (A) (A) (A) (A) (A) (A) (A) (A) (A) (A) (A)
                 (A) (A) (A) (A) (A) (A) (A) (A) (A) (A) (A) (A)
                 (A) (A) (A) (A) (A) (A) (A) (A) (A) (A) (A) (A)
                 (A) (A) (A) (A) (A) (A) (A) (A) (A) (A) (A) (A)
                 (A) (A) (A) (A) (A) (A) (A) (A) (A) (A) (A) (A)
                 (A) (A) (A) (A) (A) (A) (A) (A) (A) (A) (A) (A)
                 (A) (A) (A) (A) (A) (A) (A) (A) (A) (A) (A) (A)
                 (A) (A) (A) (A) (A) (A) (A) (A) (A) (A) (A) (A)
                 (A) (A) (A) (A) (A) (A) (A) (A) (A) (A) (A) (A)
                 (A) (A) (A) (A) (A) (A) (A) (A) (A) (A) (A) (A)
                 (A) (A) (A) (A) (A) (A) (A) (A) (A) (A) (A) (A)
                 (A) (A) (A) (A) (A) (A) (A) (A) (A) (A) (A) (A)
                 (A) (A) (A) (A) (A) (A) (A) (A) (A) (A) (A) (A)
                 (A) (A) (A) (A) (A) (A) (A) (A) (A) (A) (A) (A)
                 (A) (A) (A) (A) (A) (A) (A) (A) (A) (A) (A) (A)
                 (A) (A) (A) (A) (A) (A) (A) (A) (A) (A) (A) (A)
                 (A) (A) (A) (A) (A) (A) (A) (A) (A) (A) (A) (A)
                 (A) (A) (A) (A) (A) (A) (A) (A) (A) (A) (A) (A)
                 (A) (A) (A) (A) (A) (A) (A) (A) (A) (A) (A) (A)
                 (A) (A) (A) (A) (A) (A) (A) (A) (A) (A) (A) (A)
                 (A) (A) (A) (A) (A) (A) (A) (A) (A) (A) (A) (A)
                 (A) (A) (A) (A) (A) (A) (A) (A) (A) (A) (A) (A)
                 (A) (A) (A) (A) (A) (A) (A) (A) (A) (A) (A) (A)
                 (A) (A) (A) (A) (A) (A) (A) (A) (A) (A) (A) (A)
                 (A) (A) (A) (A) (A) (A) (A) (A) (A) (A) (A)
 The electronic state is 2-A.
 Alpha  occ. eigenvalues --  -10.56438 -10.54281 -10.54238 -10.53756 -10.53619
 Alpha  occ. eigenvalues --  -10.53607 -10.53088 -10.52469  -0.92924  -0.88921
 Alpha  occ. eigenvalues --   -0.83901  -0.80634  -0.72115  -0.67755  -0.63457
 Alpha  occ. eigenvalues --   -0.61018  -0.53948  -0.53614  -0.52188  -0.49948
 Alpha  occ. eigenvalues --   -0.48890  -0.46845  -0.45551  -0.45000  -0.42368
 Alpha  occ. eigenvalues --   -0.40857  -0.38823  -0.38213  -0.32116  -0.30904
 Alpha  occ. eigenvalues --   -0.27717
 Alpha virt. eigenvalues --    0.01744   0.02372   0.02544   0.02726   0.03073
 Alpha virt. eigenvalues --    0.03534   0.04645   0.04849   0.05856   0.06018
 Alpha virt. eigenvalues --    0.06839   0.07271   0.07932   0.08723   0.09731
 Alpha virt. eigenvalues --    0.10186   0.10621   0.10827   0.11503   0.12199
 Alpha virt. eigenvalues --    0.13847   0.14175   0.15275   0.15423   0.15989
 Alpha virt. eigenvalues --    0.17475   0.18076   0.18347   0.18680   0.19809
 Alpha virt. eigenvalues --    0.20525   0.20555   0.21621   0.21976   0.22725
 Alpha virt. eigenvalues --    0.23735   0.23921   0.24359   0.24473   0.25596
 Alpha virt. eigenvalues --    0.25841   0.26734   0.27224   0.27567   0.29288
 Alpha virt. eigenvalues --    0.30465   0.30857   0.31221   0.32482   0.33250
 Alpha virt. eigenvalues --    0.34764   0.36208   0.38802   0.40397   0.43153
 Alpha virt. eigenvalues --    0.43522   0.45533   0.47040   0.47244   0.48916
 Alpha virt. eigenvalues --    0.50223   0.51014   0.52750   0.53444   0.54545
 Alpha virt. eigenvalues --    0.54713   0.56209   0.56392   0.58081   0.58393
 Alpha virt. eigenvalues --    0.58991   0.59264   0.59677   0.60626   0.61368
 Alpha virt. eigenvalues --    0.61751   0.62737   0.63585   0.63869   0.65105
 Alpha virt. eigenvalues --    0.66086   0.67599   0.67855   0.68349   0.69065
 Alpha virt. eigenvalues --    0.70195   0.70358   0.70574   0.71117   0.72010
 Alpha virt. eigenvalues --    0.72783   0.73650   0.74356   0.74703   0.75844
 Alpha virt. eigenvalues --    0.77122   0.78674   0.79785   0.82000   0.82776
 Alpha virt. eigenvalues --    0.83843   0.86274   0.88348   0.90193   0.92044
 Alpha virt. eigenvalues --    0.93111   0.93512   0.94321   0.96218   0.97100
 Alpha virt. eigenvalues --    0.97362   0.98362   1.01105   1.02380   1.04255
 Alpha virt. eigenvalues --    1.04571   1.06828   1.08169   1.09119   1.10652
 Alpha virt. eigenvalues --    1.11397   1.11844   1.12898   1.15183   1.17423
 Alpha virt. eigenvalues --    1.18216   1.18931   1.19332   1.19979   1.22595
 Alpha virt. eigenvalues --    1.23815   1.24547   1.25980   1.26945   1.28440
 Alpha virt. eigenvalues --    1.29717   1.30509   1.31932   1.33618   1.34223
 Alpha virt. eigenvalues --    1.35739   1.37178   1.37890   1.40294   1.40653
 Alpha virt. eigenvalues --    1.41762   1.43087   1.43820   1.44788   1.45768
 Alpha virt. eigenvalues --    1.47502   1.48550   1.50922   1.51169   1.52026
 Alpha virt. eigenvalues --    1.53275   1.54094   1.54839   1.56200   1.56378
 Alpha virt. eigenvalues --    1.57899   1.59202   1.60491   1.60536   1.62620
 Alpha virt. eigenvalues --    1.63395   1.65688   1.66345   1.67412   1.69239
 Alpha virt. eigenvalues --    1.71397   1.72660   1.76024   1.76498   1.80676
 Alpha virt. eigenvalues --    1.80750   1.92107   1.95721   2.41144   2.46389
 Alpha virt. eigenvalues --    2.48004   2.50207   2.53646   2.55532   2.57922
 Alpha virt. eigenvalues --    2.59773   2.62530   2.63927   2.69090   2.69838
 Alpha virt. eigenvalues --    2.70490   2.71810   2.74486   2.75281   2.75850
 Alpha virt. eigenvalues --    2.77642   2.78350   2.79932   2.80782   2.81335
 Alpha virt. eigenvalues --    2.82250   2.83159   2.84744   2.86028   2.88363
 Alpha virt. eigenvalues --    2.88866   2.89841   2.91330   2.92643   2.93858
 Alpha virt. eigenvalues --    2.95745   2.97118   2.98401   2.99720   3.03345
 Alpha virt. eigenvalues --    3.04835   3.05744   3.06099   3.06452   3.07036
 Alpha virt. eigenvalues --    3.09558   3.12330   3.13173   3.13928   3.14410
 Alpha virt. eigenvalues --    3.15962   3.16983   3.18129   3.19461   3.20426
 Alpha virt. eigenvalues --    3.20844   3.22770   3.23690   3.25247   3.26051
 Alpha virt. eigenvalues --    3.26682   3.30820   3.31737   3.33066   3.33405
 Alpha virt. eigenvalues --    3.34748   3.35661   3.36501   3.37421   3.37690
 Alpha virt. eigenvalues --    3.40351   3.41649   3.42418   3.43959   3.45211
 Alpha virt. eigenvalues --    3.46643   3.47083   3.48564   3.50390   3.52012
 Alpha virt. eigenvalues --    3.53637   3.56106   3.59247   3.59721   3.61915
 Alpha virt. eigenvalues --    3.64097   3.64778   3.66316   3.67264   3.69319
 Alpha virt. eigenvalues --    3.70978   3.72810   3.73307   3.75234   3.76011
 Alpha virt. eigenvalues --    3.77083   3.77173   3.78826   3.82004   3.82949
 Alpha virt. eigenvalues --    3.85527   3.87112   3.87834   3.92189   3.92312
 Alpha virt. eigenvalues --    3.95124   3.97042   3.98365   4.00688   4.02365
 Alpha virt. eigenvalues --    4.02538   4.04126   4.05950   4.06937   4.09634
 Alpha virt. eigenvalues --    4.12066   4.13159   4.15096   4.16524   4.17890
 Alpha virt. eigenvalues --    4.18695   4.19844   4.22221   4.22804   4.23475
 Alpha virt. eigenvalues --    4.24566   4.26160   4.28681   4.30762   4.31723
 Alpha virt. eigenvalues --    4.34585   4.38503   4.38950   4.40569   4.42754
 Alpha virt. eigenvalues --    4.43559   4.45570   4.47646   4.48861   4.50219
 Alpha virt. eigenvalues --    4.51019   4.53383   4.53861   4.55901   4.57903
 Alpha virt. eigenvalues --    4.60924   4.62430   4.65145   4.70760   4.72665
 Alpha virt. eigenvalues --    4.73885   4.75074   4.80269   4.84578   4.85530
 Alpha virt. eigenvalues --    4.97932   5.01955   5.11255   5.13368   5.16018
 Alpha virt. eigenvalues --    5.24729   5.36043   5.37114   5.39595   5.45620
 Alpha virt. eigenvalues --    5.49300   5.50290   5.53164   5.55978   5.57381
 Alpha virt. eigenvalues --    5.59173   5.61281   5.62423   5.90953   5.91454
 Alpha virt. eigenvalues --   24.07601  24.12498  24.21945  24.33203  24.39596
 Alpha virt. eigenvalues --   24.43200  24.84934  24.86541
  Beta  occ. eigenvalues --  -10.55582 -10.54306 -10.54261 -10.53757 -10.53643
  Beta  occ. eigenvalues --  -10.53586 -10.53051 -10.52468  -0.91797  -0.88520
  Beta  occ. eigenvalues --   -0.83560  -0.80303  -0.71671  -0.67289  -0.63356
  Beta  occ. eigenvalues --   -0.59109  -0.53471  -0.52865  -0.51965  -0.49572
  Beta  occ. eigenvalues --   -0.47754  -0.46594  -0.45086  -0.44577  -0.42021
  Beta  occ. eigenvalues --   -0.40743  -0.38419  -0.37680  -0.32051  -0.30860
  Beta virt. eigenvalues --   -0.04603   0.01827   0.02393   0.02495   0.02660
  Beta virt. eigenvalues --    0.02812   0.03408   0.04558   0.04799   0.05657
  Beta virt. eigenvalues --    0.05928   0.06598   0.07138   0.07908   0.08520
  Beta virt. eigenvalues --    0.09550   0.09981   0.10227   0.10280   0.11185
  Beta virt. eigenvalues --    0.11648   0.13648   0.13728   0.14988   0.15257
  Beta virt. eigenvalues --    0.15670   0.16626   0.17448   0.18200   0.18354
  Beta virt. eigenvalues --    0.19843   0.20146   0.20393   0.21841   0.21862
  Beta virt. eigenvalues --    0.22735   0.23552   0.23943   0.24116   0.24518
  Beta virt. eigenvalues --    0.25502   0.26056   0.27176   0.27525   0.27689
  Beta virt. eigenvalues --    0.29244   0.30250   0.30618   0.31220   0.31582
  Beta virt. eigenvalues --    0.33905   0.34986   0.36605   0.38656   0.39742
  Beta virt. eigenvalues --    0.43119   0.43468   0.45911   0.47024   0.47526
  Beta virt. eigenvalues --    0.49213   0.49929   0.51203   0.52839   0.53794
  Beta virt. eigenvalues --    0.54645   0.54852   0.56088   0.56483   0.58052
  Beta virt. eigenvalues --    0.58373   0.58849   0.59402   0.59588   0.60661
  Beta virt. eigenvalues --    0.61331   0.61746   0.62864   0.63610   0.63677
  Beta virt. eigenvalues --    0.64903   0.65717   0.67352   0.67660   0.67950
  Beta virt. eigenvalues --    0.68665   0.69842   0.70201   0.70464   0.70970
  Beta virt. eigenvalues --    0.71773   0.72378   0.73418   0.73957   0.74741
  Beta virt. eigenvalues --    0.75802   0.77332   0.78651   0.79288   0.81785
  Beta virt. eigenvalues --    0.82127   0.83530   0.86238   0.87968   0.90098
  Beta virt. eigenvalues --    0.92058   0.93313   0.93605   0.94740   0.96085
  Beta virt. eigenvalues --    0.96880   0.97054   0.98359   1.01028   1.02148
  Beta virt. eigenvalues --    1.04096   1.04562   1.06405   1.08440   1.09481
  Beta virt. eigenvalues --    1.10877   1.11021   1.11820   1.12858   1.15157
  Beta virt. eigenvalues --    1.17264   1.18235   1.18889   1.19361   1.20022
  Beta virt. eigenvalues --    1.23103   1.23797   1.24548   1.25877   1.26934
  Beta virt. eigenvalues --    1.28617   1.30006   1.30590   1.32192   1.33978
  Beta virt. eigenvalues --    1.34348   1.35872   1.37237   1.37836   1.40389
  Beta virt. eigenvalues --    1.40714   1.41936   1.43081   1.43695   1.44538
  Beta virt. eigenvalues --    1.45645   1.47309   1.48325   1.50705   1.51044
  Beta virt. eigenvalues --    1.51925   1.53113   1.53979   1.54453   1.56058
  Beta virt. eigenvalues --    1.56301   1.57811   1.58986   1.60335   1.60551
  Beta virt. eigenvalues --    1.62387   1.63262   1.65682   1.66359   1.67337
  Beta virt. eigenvalues --    1.69234   1.71514   1.72819   1.76113   1.77203
  Beta virt. eigenvalues --    1.80806   1.81108   1.92331   1.95794   2.41613
  Beta virt. eigenvalues --    2.46513   2.48454   2.50551   2.53997   2.55842
  Beta virt. eigenvalues --    2.58375   2.60257   2.63476   2.64361   2.69756
  Beta virt. eigenvalues --    2.70596   2.71804   2.72868   2.75185   2.75561
  Beta virt. eigenvalues --    2.76506   2.78396   2.78573   2.80463   2.81441
  Beta virt. eigenvalues --    2.81945   2.82674   2.83698   2.85274   2.86317
  Beta virt. eigenvalues --    2.88755   2.89091   2.90194   2.91693   2.93202
  Beta virt. eigenvalues --    2.94395   2.96133   2.97535   2.98368   3.00803
  Beta virt. eigenvalues --    3.04063   3.04953   3.06154   3.06642   3.07306
  Beta virt. eigenvalues --    3.07432   3.10189   3.13112   3.13462   3.14262
  Beta virt. eigenvalues --    3.14883   3.16325   3.17241   3.18298   3.19859
  Beta virt. eigenvalues --    3.20619   3.20908   3.23360   3.23750   3.25511
  Beta virt. eigenvalues --    3.26381   3.26907   3.31170   3.31898   3.33245
  Beta virt. eigenvalues --    3.33443   3.34895   3.35911   3.37033   3.37395
  Beta virt. eigenvalues --    3.37849   3.40432   3.42255   3.42724   3.44467
  Beta virt. eigenvalues --    3.45780   3.47266   3.47994   3.49599   3.51060
  Beta virt. eigenvalues --    3.52716   3.53857   3.57177   3.59699   3.60599
  Beta virt. eigenvalues --    3.62721   3.64409   3.65281   3.67243   3.69869
  Beta virt. eigenvalues --    3.70033   3.72213   3.73276   3.74258   3.75713
  Beta virt. eigenvalues --    3.76497   3.77399   3.77667   3.79130   3.82683
  Beta virt. eigenvalues --    3.83579   3.86032   3.88148   3.88365   3.92745
  Beta virt. eigenvalues --    3.93326   3.96617   3.97455   3.98782   4.01273
  Beta virt. eigenvalues --    4.02683   4.03398   4.04669   4.06381   4.07685
  Beta virt. eigenvalues --    4.10245   4.12349   4.13819   4.15341   4.16712
  Beta virt. eigenvalues --    4.18077   4.18786   4.19930   4.22336   4.23227
  Beta virt. eigenvalues --    4.23526   4.25059   4.26738   4.28734   4.31319
  Beta virt. eigenvalues --    4.32987   4.34803   4.38757   4.39311   4.40754
  Beta virt. eigenvalues --    4.43030   4.44044   4.45906   4.47777   4.49555
  Beta virt. eigenvalues --    4.50471   4.51370   4.54321   4.54638   4.56267
  Beta virt. eigenvalues --    4.58863   4.61988   4.63327   4.66081   4.71347
  Beta virt. eigenvalues --    4.72926   4.74372   4.76093   4.81053   4.85172
  Beta virt. eigenvalues --    4.86431   4.99904   5.05753   5.11460   5.13469
  Beta virt. eigenvalues --    5.17309   5.25385   5.37126   5.39187   5.40207
  Beta virt. eigenvalues --    5.46380   5.49342   5.50365   5.52820   5.55976
  Beta virt. eigenvalues --    5.57864   5.59589   5.61267   5.62462   5.90992
  Beta virt. eigenvalues --    5.91958  24.07858  24.12518  24.22387  24.33233
  Beta virt. eigenvalues --   24.40530  24.43382  24.84988  24.86546
          Condensed to atoms (all electrons):
              1          2          3          4          5          6
     1  C    6.529314  -0.713927   0.237354  -0.659036   0.355140  -0.057807
     2  C   -0.713927   6.185264  -0.169489   0.334004  -0.371734   0.076649
     3  C    0.237354  -0.169489   5.538829  -0.207826  -0.038228  -0.078496
     4  C   -0.659036   0.334004  -0.207826   7.127736  -0.181289  -0.402746
     5  C    0.355140  -0.371734  -0.038228  -0.181289   5.785205   0.084419
     6  C   -0.057807   0.076649  -0.078496  -0.402746   0.084419   5.736931
     7  C   -0.131568   0.163544  -0.006684  -0.090091   0.160531   0.004862
     8  C   -0.009267   0.006182   0.035824   0.039469  -0.016058   0.443760
     9  H    0.534153  -0.112876  -0.002427  -0.002718   0.003534  -0.062862
    10  H    0.432336  -0.011288   0.017200  -0.109608  -0.015240   0.040932
    11  H   -0.056910   0.501336   0.003887   0.002893  -0.114886   0.013677
    12  H   -0.014936   0.437092   0.008006   0.025968  -0.087828  -0.023033
    13  H   -0.087860   0.009289   0.342958   0.176942  -0.001337  -0.069895
    14  H    0.007811  -0.003069   0.419599  -0.107050   0.001259   0.051617
    15  H    0.064071  -0.000809   0.435231  -0.131367   0.001662   0.015183
    16  H    0.000398   0.012751   0.000769   0.011791   0.346246  -0.001632
    17  H    0.002625  -0.008191  -0.001947   0.016580  -0.001151   0.339384
    18  H    0.012039  -0.008300   0.000016   0.001874   0.044568  -0.000318
    19  H   -0.000259   0.042025   0.000145   0.001287  -0.057419   0.000007
    20  H    0.001227  -0.013300   0.009776   0.015951  -0.000114  -0.042074
    21  H    0.011924   0.000142  -0.004163   0.003556   0.001063  -0.030995
              7          8          9         10         11         12
     1  C   -0.131568  -0.009267   0.534153   0.432336  -0.056910  -0.014936
     2  C    0.163544   0.006182  -0.112876  -0.011288   0.501336   0.437092
     3  C   -0.006684   0.035824  -0.002427   0.017200   0.003887   0.008006
     4  C   -0.090091   0.039469  -0.002718  -0.109608   0.002893   0.025968
     5  C    0.160531  -0.016058   0.003534  -0.015240  -0.114886  -0.087828
     6  C    0.004862   0.443760  -0.062862   0.040932   0.013677  -0.023033
     7  C    5.721668  -0.003060   0.003234   0.003667  -0.008620  -0.001584
     8  C   -0.003060   5.050706   0.003845  -0.002324  -0.001886   0.002291
     9  H    0.003234   0.003845   0.471168  -0.032799  -0.006288   0.004504
    10  H    0.003667  -0.002324  -0.032799   0.517920   0.005245  -0.007918
    11  H   -0.008620  -0.001886  -0.006288   0.005245   0.507438  -0.035525
    12  H   -0.001584   0.002291   0.004504  -0.007918  -0.035525   0.513994
    13  H   -0.000508   0.008123  -0.000169  -0.001172  -0.000039  -0.000055
    14  H   -0.000075  -0.003012   0.000621   0.002138  -0.000013   0.000062
    15  H    0.000321  -0.008952  -0.000317   0.000372   0.000004  -0.000022
    16  H   -0.017223   0.000068  -0.001302  -0.000985   0.003469   0.003072
    17  H   -0.000313   0.019016   0.001819  -0.000363  -0.000374   0.000052
    18  H    0.326768  -0.000024  -0.000055  -0.000036  -0.000497  -0.000688
    19  H    0.399741   0.000044   0.000010  -0.000006  -0.000024   0.000039
    20  H   -0.000055   0.413412  -0.000021  -0.000072  -0.000354  -0.000231
    21  H    0.000007   0.399378   0.000022   0.000011   0.000037  -0.000005
             13         14         15         16         17         18
     1  C   -0.087860   0.007811   0.064071   0.000398   0.002625   0.012039
     2  C    0.009289  -0.003069  -0.000809   0.012751  -0.008191  -0.008300
     3  C    0.342958   0.419599   0.435231   0.000769  -0.001947   0.000016
     4  C    0.176942  -0.107050  -0.131367   0.011791   0.016580   0.001874
     5  C   -0.001337   0.001259   0.001662   0.346246  -0.001151   0.044568
     6  C   -0.069895   0.051617   0.015183  -0.001632   0.339384  -0.000318
     7  C   -0.000508  -0.000075   0.000321  -0.017223  -0.000313   0.326768
     8  C    0.008123  -0.003012  -0.008952   0.000068   0.019016  -0.000024
     9  H   -0.000169   0.000621  -0.000317  -0.001302   0.001819  -0.000055
    10  H   -0.001172   0.002138   0.000372  -0.000985  -0.000363  -0.000036
    11  H   -0.000039  -0.000013   0.000004   0.003469  -0.000374  -0.000497
    12  H   -0.000055   0.000062  -0.000022   0.003072   0.000052  -0.000688
    13  H    0.520769  -0.030079  -0.027355  -0.000009   0.001248   0.000000
    14  H   -0.030079   0.543725  -0.017600  -0.000008  -0.000280   0.000000
    15  H   -0.027355  -0.017600   0.515095   0.000000   0.000418   0.000000
    16  H   -0.000009  -0.000008   0.000000   0.490528  -0.000004   0.004082
    17  H    0.001248  -0.000280   0.000418  -0.000004   0.459798   0.000000
    18  H    0.000000   0.000000   0.000000   0.004082   0.000000   0.505888
    19  H    0.000000   0.000000   0.000000  -0.007949   0.000000  -0.021560
    20  H    0.000002  -0.000047   0.000076  -0.000003   0.003616  -0.000003
    21  H    0.000053   0.000026  -0.000119   0.000000  -0.007063   0.000000
             19         20         21
     1  C   -0.000259   0.001227   0.011924
     2  C    0.042025  -0.013300   0.000142
     3  C    0.000145   0.009776  -0.004163
     4  C    0.001287   0.015951   0.003556
     5  C   -0.057419  -0.000114   0.001063
     6  C    0.000007  -0.042074  -0.030995
     7  C    0.399741  -0.000055   0.000007
     8  C    0.000044   0.413412   0.399378
     9  H    0.000010  -0.000021   0.000022
    10  H   -0.000006  -0.000072   0.000011
    11  H   -0.000024  -0.000354   0.000037
    12  H    0.000039  -0.000231  -0.000005
    13  H    0.000000   0.000002   0.000053
    14  H    0.000000  -0.000047   0.000026
    15  H    0.000000   0.000076  -0.000119
    16  H   -0.007949  -0.000003   0.000000
    17  H    0.000000   0.003616  -0.007063
    18  H   -0.021560  -0.000003   0.000000
    19  H    0.504235   0.000000   0.000000
    20  H    0.000000   0.487788  -0.019455
    21  H    0.000000  -0.019455   0.512351
 Mulliken atomic charges:
              1
     1  C   -0.456822
     2  C   -0.355294
     3  C   -0.540333
     4  C    0.133678
     5  C    0.101657
     6  C   -0.037565
     7  C   -0.524564
     8  C   -0.377535
     9  H    0.198924
    10  H    0.161989
    11  H    0.187429
    12  H    0.176746
    13  H    0.159093
    14  H    0.134378
    15  H    0.154108
    16  H    0.155941
    17  H    0.175131
    18  H    0.136246
    19  H    0.139683
    20  H    0.143881
    21  H    0.133229
 Sum of Mulliken atomic charges =   0.00000
 Mulliken charges with hydrogens summed into heavy atoms:
              1
     1  C   -0.095909
     2  C    0.008881
     3  C   -0.092754
     4  C    0.133678
     5  C    0.257598
     6  C    0.137566
     7  C   -0.248635
     8  C   -0.100426
 Sum of Mulliken charges with hydrogens summed into heavy atoms =   0.00000
          Atomic-Atomic Spin Densities.
              1          2          3          4          5          6
     1  C    0.190370  -0.157438   0.042991  -0.141004   0.056232  -0.020873
     2  C   -0.157438   0.225167   0.021929  -0.033838  -0.078088   0.055797
     3  C    0.042991   0.021929  -0.043208  -0.180542   0.005215   0.105275
     4  C   -0.141004  -0.033838  -0.180542   1.672873   0.025659  -0.306049
     5  C    0.056232  -0.078088   0.005215   0.025659   0.029152  -0.025691
     6  C   -0.020873   0.055797   0.105275  -0.306049  -0.025691   0.134660
     7  C   -0.001490   0.003881   0.001495  -0.021034  -0.024136   0.007412
     8  C    0.008926  -0.000692  -0.011676  -0.004758   0.002782   0.006402
     9  H    0.035963  -0.023945  -0.000960  -0.003696   0.001918  -0.015958
    10  H   -0.016528   0.017017   0.005227  -0.011428  -0.004271   0.005861
    11  H    0.002159  -0.009120   0.001698   0.012317  -0.001678  -0.007125
    12  H   -0.004014   0.017275  -0.003717  -0.023584   0.006805   0.010441
    13  H   -0.010926  -0.006623   0.011630   0.032689  -0.000713  -0.030174
    14  H    0.008201   0.002661   0.014783  -0.038710   0.000010   0.008898
    15  H    0.008212   0.000784   0.010800  -0.039178   0.000295   0.017926
    16  H   -0.004205   0.004586  -0.000324  -0.001770   0.000495   0.000800
    17  H    0.009879  -0.003271  -0.003807  -0.001595   0.000946  -0.014637
    18  H   -0.000928   0.001138  -0.000017  -0.000343  -0.000574   0.000190
    19  H    0.000779  -0.000914   0.000010   0.000155   0.000767  -0.000061
    20  H    0.002844   0.006456  -0.005683  -0.019670   0.000799   0.018845
    21  H   -0.000134  -0.002629   0.001707   0.014319  -0.000182  -0.020552
              7          8          9         10         11         12
     1  C   -0.001490   0.008926   0.035963  -0.016528   0.002159  -0.004014
     2  C    0.003881  -0.000692  -0.023945   0.017017  -0.009120   0.017275
     3  C    0.001495  -0.011676  -0.000960   0.005227   0.001698  -0.003717
     4  C   -0.021034  -0.004758  -0.003696  -0.011428   0.012317  -0.023584
     5  C   -0.024136   0.002782   0.001918  -0.004271  -0.001678   0.006805
     6  C    0.007412   0.006402  -0.015958   0.005861  -0.007125   0.010441
     7  C    0.036007  -0.001154  -0.000808   0.000642  -0.000815  -0.000054
     8  C   -0.001154   0.018495   0.002003   0.000120   0.001638  -0.001920
     9  H   -0.000808   0.002003   0.031398  -0.004004  -0.000294   0.000349
    10  H    0.000642   0.000120  -0.004004   0.011291  -0.000069   0.000304
    11  H   -0.000815   0.001638  -0.000294  -0.000069  -0.001780  -0.000528
    12  H   -0.000054  -0.001920   0.000349   0.000304  -0.000528  -0.012273
    13  H   -0.000207   0.001933   0.002880  -0.001058  -0.000011   0.000023
    14  H    0.000134   0.000237  -0.000386   0.001013  -0.000002   0.000017
    15  H    0.000059  -0.001485  -0.000169   0.000142   0.000002   0.000000
    16  H   -0.000005  -0.000082  -0.000178   0.000225  -0.000084  -0.000006
    17  H   -0.000048   0.003606   0.003008  -0.000251  -0.000020   0.000055
    18  H    0.000513  -0.000034  -0.000006   0.000006  -0.000057   0.000054
    19  H   -0.000685   0.000006   0.000003  -0.000006   0.000009   0.000014
    20  H    0.000160  -0.003351   0.000050  -0.000016  -0.000140   0.000228
    21  H   -0.000051   0.007111   0.000032  -0.000007  -0.000036   0.000018
             13         14         15         16         17         18
     1  C   -0.010926   0.008201   0.008212  -0.004205   0.009879  -0.000928
     2  C   -0.006623   0.002661   0.000784   0.004586  -0.003271   0.001138
     3  C    0.011630   0.014783   0.010800  -0.000324  -0.003807  -0.000017
     4  C    0.032689  -0.038710  -0.039178  -0.001770  -0.001595  -0.000343
     5  C   -0.000713   0.000010   0.000295   0.000495   0.000946  -0.000574
     6  C   -0.030174   0.008898   0.017926   0.000800  -0.014637   0.000190
     7  C   -0.000207   0.000134   0.000059  -0.000005  -0.000048   0.000513
     8  C    0.001933   0.000237  -0.001485  -0.000082   0.003606  -0.000034
     9  H    0.002880  -0.000386  -0.000169  -0.000178   0.003008  -0.000006
    10  H   -0.001058   0.001013   0.000142   0.000225  -0.000251   0.000006
    11  H   -0.000011  -0.000002   0.000002  -0.000084  -0.000020  -0.000057
    12  H    0.000023   0.000017   0.000000  -0.000006   0.000055   0.000054
    13  H    0.044443  -0.005131  -0.004229  -0.000001   0.003270   0.000000
    14  H   -0.005131   0.014938   0.001970   0.000002  -0.000208   0.000000
    15  H   -0.004229   0.001970   0.012529   0.000000  -0.000541   0.000000
    16  H   -0.000001   0.000002   0.000000  -0.000324  -0.000001   0.000018
    17  H    0.003270  -0.000208  -0.000541  -0.000001   0.027853   0.000000
    18  H    0.000000   0.000000   0.000000   0.000018   0.000000   0.000058
    19  H    0.000000   0.000000   0.000000  -0.000029   0.000000  -0.000050
    20  H    0.000044  -0.000009   0.000019   0.000001   0.000109   0.000001
    21  H    0.000022  -0.000005  -0.000039   0.000000   0.001349   0.000000
             19         20         21
     1  C    0.000779   0.002844  -0.000134
     2  C   -0.000914   0.006456  -0.002629
     3  C    0.000010  -0.005683   0.001707
     4  C    0.000155  -0.019670   0.014319
     5  C    0.000767   0.000799  -0.000182
     6  C   -0.000061   0.018845  -0.020552
     7  C   -0.000685   0.000160  -0.000051
     8  C    0.000006  -0.003351   0.007111
     9  H    0.000003   0.000050   0.000032
    10  H   -0.000006  -0.000016  -0.000007
    11  H    0.000009  -0.000140  -0.000036
    12  H    0.000014   0.000228   0.000018
    13  H    0.000000   0.000044   0.000022
    14  H    0.000000  -0.000009  -0.000005
    15  H    0.000000   0.000019  -0.000039
    16  H   -0.000029   0.000001   0.000000
    17  H    0.000000   0.000109   0.001349
    18  H   -0.000050   0.000001   0.000000
    19  H   -0.000034   0.000000   0.000000
    20  H    0.000000  -0.005285   0.001019
    21  H    0.000000   0.001019  -0.001292
 Mulliken atomic spin densities:
              1
     1  C    0.009015
     2  C    0.040134
     3  C   -0.027173
     4  C    0.930816
     5  C   -0.004256
     6  C   -0.068613
     7  C   -0.000183
     8  C    0.028109
     9  H    0.027200
    10  H    0.004211
    11  H   -0.003936
    12  H   -0.010513
    13  H    0.037862
    14  H    0.008414
    15  H    0.007094
    16  H   -0.000882
    17  H    0.025696
    18  H   -0.000029
    19  H   -0.000035
    20  H   -0.003579
    21  H    0.000650
 Sum of Mulliken atomic spin densities =   1.00000
 Electronic spatial extent (au):  <R**2>=           1481.1899
 Charge=              0.0000 electrons
 Dipole moment (field-independent basis, Debye):
    X=              0.3538    Y=             -0.3801    Z=              0.4542  Tot=              0.6899
 Quadrupole moment (field-independent basis, Debye-Ang):
   XX=            -54.3506   YY=            -50.4893   ZZ=            -51.9789
   XY=             -0.0118   XZ=              0.8704   YZ=             -1.1899
 Traceless Quadrupole moment (field-independent basis, Debye-Ang):
   XX=             -2.0776   YY=              1.7836   ZZ=              0.2941
   XY=             -0.0118   XZ=              0.8704   YZ=             -1.1899
 Octapole moment (field-independent basis, Debye-Ang**2):
  XXX=             -8.5425  YYY=              2.1416  ZZZ=              1.8440  XYY=              1.1446
  XXY=             -0.6275  XXZ=              3.0821  XZZ=              5.9671  YZZ=              0.6089
  YYZ=             -0.6865  XYZ=              4.2419
 Hexadecapole moment (field-independent basis, Debye-Ang**3):
 XXXX=          -1537.4129 YYYY=           -453.0527 ZZZZ=           -119.8956 XXXY=             -7.3026
 XXXZ=             -9.4286 YYYX=             11.7226 YYYZ=              2.4978 ZZZX=              6.9192
 ZZZY=             -3.9150 XXYY=           -325.9282 XXZZ=           -287.6985 YYZZ=            -92.9779
 XXYZ=            -11.7893 YYXZ=              2.5294 ZZXY=              2.4991
 N-N= 3.428989257518D+02 E-N=-2.105687385419D+03  KE= 4.655888806689D+02
                          Isotropic Fermi Contact Couplings
        Atom                 a.u.       MegaHertz       Gauss      10(-4) cm-1
     1  C(13)             -0.00634      -7.12663      -2.54296      -2.37719
     2  C(13)              0.01672      18.79514       6.70657       6.26938
     3  C(13)             -0.00687      -7.72195      -2.75538      -2.57576
     4  C(13)              0.38228     429.75738     153.34811     143.35163
     5  C(13)             -0.00161      -1.80524      -0.64415      -0.60216
     6  C(13)             -0.00528      -5.93563      -2.11798      -1.97991
     7  C(13)              0.00007       0.08242       0.02941       0.02749
     8  C(13)              0.03216      36.14951      12.89904      12.05818
     9  H(1)               0.01624      72.60391      25.90688      24.21806
    10  H(1)               0.00118       5.25712       1.87587       1.75359
    11  H(1)              -0.00031      -1.36396      -0.48669      -0.45497
    12  H(1)              -0.00023      -1.00883      -0.35998      -0.33651
    13  H(1)               0.02085      93.20789      33.25889      31.09081
    14  H(1)               0.00352      15.74432       5.61796       5.25174
    15  H(1)               0.00363      16.21365       5.78543       5.40829
    16  H(1)               0.00004       0.15978       0.05701       0.05330
    17  H(1)               0.01305      58.32184      20.81068      19.45407
    18  H(1)               0.00002       0.10389       0.03707       0.03465
    19  H(1)               0.00004       0.16971       0.06056       0.05661
    20  H(1)              -0.00036      -1.60136      -0.57140      -0.53415
    21  H(1)               0.00052       2.32091       0.82816       0.77417
 --------------------------------------------------------
       Center         ----  Spin Dipole Couplings  ----
                      3XX-RR        3YY-RR        3ZZ-RR
 --------------------------------------------------------
     1   Atom        0.009964     -0.008355     -0.001608
     2   Atom        0.017963     -0.008303     -0.009661
     3   Atom       -0.001567      0.007807     -0.006239
     4   Atom       -0.487538     -0.374921      0.862458
     5   Atom        0.004942     -0.002325     -0.002617
     6   Atom       -0.014540      0.005979      0.008561
     7   Atom        0.000947     -0.001600      0.000653
     8   Atom       -0.008839      0.019428     -0.010589
     9   Atom        0.002922     -0.006400      0.003478
    10   Atom        0.005314      0.002852     -0.008166
    11   Atom        0.004350     -0.000625     -0.003725
    12   Atom        0.011389     -0.007053     -0.004335
    13   Atom       -0.001854      0.001948     -0.000095
    14   Atom       -0.007255      0.015765     -0.008510
    15   Atom        0.015218     -0.006313     -0.008905
    16   Atom        0.003245     -0.001674     -0.001571
    17   Atom       -0.005709     -0.000794      0.006503
    18   Atom        0.001566     -0.000637     -0.000929
    19   Atom        0.001445     -0.000830     -0.000615
    20   Atom       -0.008160      0.012995     -0.004835
    21   Atom       -0.002748      0.004989     -0.002241
 --------------------------------------------------------
                        XY            XZ            YZ
 --------------------------------------------------------
     1   Atom        0.011014     -0.018797     -0.009939
     2   Atom       -0.011699     -0.006585      0.002537
     3   Atom       -0.018169      0.010871     -0.014375
     4   Atom       -0.030479      0.098268     -0.406672
     5   Atom        0.000933     -0.002160     -0.001733
     6   Atom        0.009469      0.008549      0.014960
     7   Atom        0.000232      0.000698      0.001681
     8   Atom        0.011015      0.001983      0.006943
     9   Atom        0.004455     -0.008785     -0.004422
    10   Atom        0.014181     -0.001670     -0.002764
    11   Atom       -0.006688     -0.004309      0.002729
    12   Atom       -0.004584      0.004835     -0.002374
    13   Atom       -0.008102      0.004814     -0.007052
    14   Atom       -0.009018     -0.001513      0.003157
    15   Atom       -0.010395      0.000002     -0.000103
    16   Atom        0.001030     -0.000954     -0.000411
    17   Atom        0.003161      0.004534      0.008151
    18   Atom       -0.000977      0.000022     -0.000186
    19   Atom       -0.000030     -0.000336      0.000005
    20   Atom        0.005884     -0.000681     -0.005012
    21   Atom        0.002957      0.000987      0.002527
 --------------------------------------------------------


 ---------------------------------------------------------------------------------
              Anisotropic Spin Dipole Couplings in Principal Axis System
 ---------------------------------------------------------------------------------

       Atom             a.u.   MegaHertz   Gauss  10(-4) cm-1        Axes

              Baa    -0.0163    -2.190    -0.781    -0.731  0.3628  0.4885  0.7936
     1 C(13)  Bbb    -0.0133    -1.781    -0.636    -0.594 -0.5630  0.7935 -0.2311
              Bcc     0.0296     3.971     1.417     1.325  0.7426  0.3629 -0.5629
 
              Baa    -0.0128    -1.712    -0.611    -0.571  0.3528  0.9356 -0.0161
     2 C(13)  Bbb    -0.0111    -1.495    -0.534    -0.499  0.1981 -0.0578  0.9785
              Bcc     0.0239     3.207     1.144     1.070  0.9145 -0.3484 -0.2057
 
              Baa    -0.0157    -2.107    -0.752    -0.703  0.6877  0.6827  0.2471
     3 C(13)  Bbb    -0.0150    -2.010    -0.717    -0.671 -0.4753  0.1661  0.8640
              Bcc     0.0307     4.117     1.469     1.373 -0.5488  0.7116 -0.4387
 
              Baa    -0.4971   -66.700   -23.800   -22.249  0.3980  0.8864  0.2364
     4 C(13)  Bbb    -0.4942   -66.323   -23.666   -22.123  0.9148 -0.3640 -0.1754
              Bcc     0.9913   133.023    47.466    44.372  0.0694 -0.2860  0.9557
 
              Baa    -0.0043    -0.580    -0.207    -0.194  0.1189  0.6178  0.7773
     5 C(13)  Bbb    -0.0014    -0.191    -0.068    -0.064 -0.3040  0.7679 -0.5639
              Bcc     0.0057     0.771     0.275     0.257  0.9452  0.1692 -0.2791
 
              Baa    -0.0186    -2.498    -0.891    -0.833  0.9498 -0.2765 -0.1466
     6 C(13)  Bbb    -0.0076    -1.024    -0.365    -0.341  0.0968  0.7050 -0.7026
              Bcc     0.0262     3.522     1.257     1.175  0.2976  0.6531  0.6964
 
              Baa    -0.0025    -0.336    -0.120    -0.112  0.0373  0.8785 -0.4763
     7 C(13)  Bbb     0.0005     0.063     0.022     0.021  0.8305 -0.2923 -0.4742
              Bcc     0.0020     0.273     0.097     0.091  0.5558  0.3779  0.7405
 
              Baa    -0.0128    -1.719    -0.613    -0.573  0.8177 -0.3737  0.4379
     8 C(13)  Bbb    -0.0119    -1.594    -0.569    -0.532 -0.4808 -0.0252  0.8765
              Bcc     0.0247     3.313     1.182     1.105  0.3165  0.9272  0.2003
 
              Baa    -0.0083    -4.451    -1.588    -1.485 -0.2356  0.9546  0.1820
     9 H(1)   Bbb    -0.0056    -2.979    -1.063    -0.994  0.7076  0.0401  0.7055
              Bcc     0.0139     7.431     2.651     2.479 -0.6662 -0.2950  0.6849
 
              Baa    -0.0106    -5.631    -2.009    -1.878 -0.5856  0.7028  0.4040
    10 H(1)   Bbb    -0.0081    -4.334    -1.546    -1.446  0.3530 -0.2276  0.9075
              Bcc     0.0187     9.965     3.556     3.324  0.7297  0.6740 -0.1148
 
              Baa    -0.0056    -3.005    -1.072    -1.002  0.5183  0.2458  0.8191
    11 H(1)   Bbb    -0.0052    -2.750    -0.981    -0.917  0.3566  0.8085 -0.4682
              Bcc     0.0108     5.756     2.054     1.920  0.7773 -0.5347 -0.3314
 
              Baa    -0.0086    -4.598    -1.641    -1.534  0.1204  0.9197  0.3738
    12 H(1)   Bbb    -0.0054    -2.858    -1.020    -0.953 -0.3419 -0.3151  0.8853
              Bcc     0.0140     7.457     2.661     2.487  0.9320 -0.2344  0.2765
 
              Baa    -0.0084    -4.465    -1.593    -1.489  0.7242  0.6726  0.1519
    13 H(1)   Bbb    -0.0053    -2.820    -1.006    -0.941 -0.4571  0.3033  0.8361
              Bcc     0.0137     7.284     2.599     2.430 -0.5163  0.6750 -0.5271
 
              Baa    -0.0105    -5.586    -1.993    -1.863  0.9245  0.2877  0.2499
    14 H(1)   Bbb    -0.0088    -4.717    -1.683    -1.574 -0.1986 -0.1960  0.9603
              Bcc     0.0193    10.304     3.677     3.437 -0.3253  0.9374  0.1241
 
              Baa    -0.0105    -5.612    -2.002    -1.872  0.3739  0.9256  0.0587
    15 H(1)   Bbb    -0.0089    -4.748    -1.694    -1.584 -0.0233 -0.0539  0.9983
              Bcc     0.0194    10.360     3.697     3.456  0.9272 -0.3746  0.0014
 
              Baa    -0.0020    -1.090    -0.389    -0.364 -0.0474  0.7988  0.5997
    16 H(1)   Bbb    -0.0016    -0.857    -0.306    -0.286  0.2733 -0.5671  0.7770
              Bcc     0.0036     1.947     0.695     0.650  0.9608  0.2007 -0.1914
 
              Baa    -0.0073    -3.913    -1.396    -1.305  0.9511 -0.2679 -0.1538
    17 H(1)   Bbb    -0.0061    -3.228    -1.152    -1.077  0.1349  0.8081 -0.5734
              Bcc     0.0134     7.141     2.548     2.382  0.2779  0.5246  0.8047
 
              Baa    -0.0011    -0.608    -0.217    -0.203  0.2612  0.7377  0.6226
    18 H(1)   Bbb    -0.0008    -0.427    -0.152    -0.142 -0.2441 -0.5735  0.7820
              Bcc     0.0019     1.035     0.369     0.345  0.9339 -0.3562  0.0303
 
              Baa    -0.0008    -0.443    -0.158    -0.148  0.0126  0.9999 -0.0048
    19 H(1)   Bbb    -0.0007    -0.357    -0.127    -0.119  0.1570  0.0028  0.9876
              Bcc     0.0015     0.800     0.285     0.267  0.9875 -0.0132 -0.1569
 
              Baa    -0.0098    -5.217    -1.862    -1.740  0.9484 -0.2784 -0.1517
    20 H(1)   Bbb    -0.0060    -3.185    -1.137    -1.062  0.2089  0.1888  0.9595
              Bcc     0.0157     8.402     2.998     2.803  0.2385  0.9417 -0.2372
 
              Baa    -0.0038    -2.011    -0.718    -0.671  0.9484 -0.2745 -0.1585
    21 H(1)   Bbb    -0.0030    -1.618    -0.577    -0.540  0.0649 -0.3215  0.9447
              Bcc     0.0068     3.629     1.295     1.211  0.3103  0.9063  0.2871
 

 ---------------------------------------------------------------------------------

 Calling FoFJK, ICntrl=      2127 FMM=F ISym2X=0 I1Cent= 0 IOpClX= 1 NMat=1 NMatS=1 NMatT=0.
 ***** Axes restored to original set *****
 -------------------------------------------------------------------
 Center     Atomic                   Forces (Hartrees/Bohr)
 Number     Number              X              Y              Z
 -------------------------------------------------------------------
      1        6          -0.005478519    0.004445481    0.021499421
      2        6          -0.002793048   -0.002009059   -0.004172012
      3        6          -0.004045829    0.003565999    0.022080431
      4        6          -0.000651471   -0.022722273   -0.057648027
      5        6           0.015234972    0.016715577    0.007259808
      6        6           0.001789874    0.011467652    0.033870228
      7        6          -0.004038983   -0.012664060   -0.005547116
      8        6          -0.000076601   -0.003379765   -0.011054551
      9        1          -0.002516720    0.001436274    0.009844744
     10        1          -0.001907895    0.008687181   -0.008253430
     11        1          -0.000593600   -0.009593770    0.009303790
     12        1          -0.000592942   -0.000152124   -0.013140002
     13        1           0.000819379    0.004184099    0.009809174
     14        1          -0.003452788    0.006714257   -0.009985064
     15        1           0.010194485   -0.006639149   -0.005544891
     16        1          -0.003394632    0.000678493    0.000444103
     17        1           0.000924018   -0.004435854   -0.000860853
     18        1           0.001810088   -0.001758218   -0.000812901
     19        1          -0.000814374    0.003956643    0.001761771
     20        1          -0.000280251    0.000908061   -0.002792413
     21        1          -0.000135162    0.000594554    0.003937791
 -------------------------------------------------------------------
 Cartesian Forces:  Max     0.057648027 RMS     0.011425382

 GradGradGradGradGradGradGradGradGradGradGradGradGradGradGradGradGradGrad
 Berny optimization.
 Internal  Forces:  Max     0.013874606 RMS     0.005511435
 Search for a local minimum.
 Step number   1 out of a maximum of  102
 All quantities printed in internal units (Hartrees-Bohrs-Radians)
 Swaping is turned off.
 Second derivative matrix not updated -- first step.
 ITU=  0
     Eigenvalues ---    0.00273   0.00324   0.00386   0.00706   0.00719
     Eigenvalues ---    0.01588   0.01844   0.02622   0.02948   0.02948
     Eigenvalues ---    0.02971   0.02971   0.04150   0.04316   0.05414
     Eigenvalues ---    0.05459   0.07110   0.07255   0.08996   0.09148
     Eigenvalues ---    0.12625   0.12658   0.16000   0.16000   0.16000
     Eigenvalues ---    0.16000   0.16000   0.16000   0.16000   0.16000
     Eigenvalues ---    0.16000   0.17033   0.18497   0.21971   0.21992
     Eigenvalues ---    0.22000   0.22000   0.28764   0.29110   0.29539
     Eigenvalues ---    0.31908   0.32009   0.32281   0.32319   0.32365
     Eigenvalues ---    0.32425   0.32446   0.32532   0.32564   0.35176
     Eigenvalues ---    0.35232   0.35273   0.35287   0.35379   0.35386
     Eigenvalues ---    0.58337   0.58737
 Quadratic step=8.222D-01 exceeds max=3.000D-01 adjusted using Lamda=-5.399D-02.
 Angle between NR and scaled steps=  21.71 degrees.
 Angle between quadratic step and forces=  36.90 degrees.
 Linear search not attempted -- option 19 set.
 Iteration  1 RMS(Cart)=  0.02771057 RMS(Int)=  0.00111896
 Iteration  2 RMS(Cart)=  0.00187259 RMS(Int)=  0.00067989
 Iteration  3 RMS(Cart)=  0.00000146 RMS(Int)=  0.00067989
 Iteration  4 RMS(Cart)=  0.00000000 RMS(Int)=  0.00067989
 Variable       Old X    -DE/DX   Delta X   Delta X   Delta X     New X
                                 (Linear)    (Quad)   (Total)
    R1        2.89774  -0.00111   0.00000  -0.00321  -0.00321   2.89454
    R2        2.90498  -0.01188   0.00000  -0.03477  -0.03477   2.87020
    R3        2.10332  -0.01011   0.00000  -0.02682  -0.02682   2.07650
    R4        2.10265  -0.01179   0.00000  -0.03125  -0.03125   2.07140
    R5        2.84313   0.00499   0.00000   0.01339   0.01339   2.85652
    R6        2.10073  -0.01286   0.00000  -0.03400  -0.03400   2.06672
    R7        2.10182  -0.01280   0.00000  -0.03389  -0.03389   2.06792
    R8        2.88892  -0.00954   0.00000  -0.02732  -0.02732   2.86160
    R9        2.10035  -0.01067   0.00000  -0.02819  -0.02819   2.07216
   R10        2.09824  -0.01200   0.00000  -0.03161  -0.03161   2.06664
   R11        2.09881  -0.01292   0.00000  -0.03405  -0.03405   2.06476
   R12        2.84128  -0.00961   0.00000  -0.02569  -0.02569   2.81559
   R13        2.52281  -0.00910   0.00000  -0.01428  -0.01428   2.50853
   R14        2.05390  -0.00119   0.00000  -0.00293  -0.00293   2.05098
   R15        2.51954  -0.00572   0.00000  -0.00891  -0.00891   2.51063
   R16        2.05300   0.00126   0.00000   0.00310   0.00310   2.05611
   R17        2.05235  -0.00207   0.00000  -0.00509  -0.00509   2.04726
   R18        2.05064  -0.00254   0.00000  -0.00623  -0.00623   2.04441
   R19        2.05211  -0.00267   0.00000  -0.00657  -0.00657   2.04554
   R20        2.05054  -0.00177   0.00000  -0.00433  -0.00433   2.04620
    A1        1.94261   0.00882   0.00000   0.03503   0.03490   1.97751
    A2        1.91997  -0.00187   0.00000  -0.00760  -0.00735   1.91262
    A3        1.89141  -0.00080   0.00000   0.00636   0.00607   1.89747
    A4        1.92015  -0.00464   0.00000  -0.02483  -0.02478   1.89537
    A5        1.90168  -0.00179   0.00000  -0.00006  -0.00056   1.90112
    A6        1.88684   0.00010   0.00000  -0.00958  -0.00967   1.87718
    A7        1.94085   0.00635   0.00000   0.02717   0.02709   1.96794
    A8        1.91566  -0.00188   0.00000  -0.00714  -0.00736   1.90830
    A9        1.90807  -0.00233   0.00000  -0.01071  -0.01087   1.89720
   A10        1.89794  -0.00067   0.00000   0.00392   0.00389   1.90184
   A11        1.90380  -0.00070   0.00000   0.00247   0.00251   1.90631
   A12        1.89696  -0.00090   0.00000  -0.01654  -0.01667   1.88028
   A13        1.93144  -0.00353   0.00000  -0.02042  -0.02033   1.91111
   A14        1.91896   0.00415   0.00000   0.02124   0.02101   1.93997
   A15        1.91845   0.00432   0.00000   0.02223   0.02200   1.94045
   A16        1.90402  -0.00191   0.00000  -0.01294  -0.01285   1.89117
   A17        1.90436  -0.00185   0.00000  -0.01227  -0.01218   1.89218
   A18        1.88591  -0.00120   0.00000   0.00223   0.00171   1.88762
   A19        1.94611   0.00443   0.00000   0.04466   0.04126   1.98736
   A20        1.94787   0.00206   0.00000   0.03742   0.03359   1.98147
   A21        1.92412   0.00386   0.00000   0.04610   0.04261   1.96673
   A22        2.10945   0.01224   0.00000   0.04468   0.04468   2.15414
   A23        2.09917  -0.00949   0.00000  -0.03808  -0.03808   2.06109
   A24        2.07456  -0.00275   0.00000  -0.00660  -0.00660   2.06796
   A25        2.10345   0.01387   0.00000   0.05064   0.05064   2.15409
   A26        2.09101  -0.01149   0.00000  -0.04661  -0.04661   2.04440
   A27        2.08872  -0.00238   0.00000  -0.00403  -0.00403   2.08469
   A28        2.11037  -0.00021   0.00000  -0.00097  -0.00097   2.10940
   A29        2.09545   0.00380   0.00000   0.01778   0.01778   2.11323
   A30        2.07736  -0.00360   0.00000  -0.01680  -0.01680   2.06056
   A31        2.10926  -0.00073   0.00000  -0.00342  -0.00342   2.10584
   A32        2.09503   0.00401   0.00000   0.01874   0.01874   2.11377
   A33        2.07890  -0.00328   0.00000  -0.01532  -0.01532   2.06358
    D1        3.08927   0.00125   0.00000   0.01309   0.01317   3.10244
    D2       -1.09306   0.00327   0.00000   0.03077   0.03080  -1.06225
    D3        0.98610  -0.00037   0.00000  -0.00022  -0.00005   0.98605
    D4       -1.06102   0.00004   0.00000   0.00003   0.00003  -1.06099
    D5        1.03984   0.00205   0.00000   0.01771   0.01766   1.05751
    D6        3.11900  -0.00159   0.00000  -0.01328  -0.01319   3.10581
    D7        0.99843  -0.00137   0.00000  -0.01212  -0.01225   0.98618
    D8        3.09929   0.00064   0.00000   0.00556   0.00538   3.10467
    D9       -1.10474  -0.00300   0.00000  -0.02543  -0.02547  -1.13021
   D10       -2.92218   0.00375   0.00000   0.04602   0.04618  -2.87599
   D11        1.20060  -0.00609   0.00000  -0.07485  -0.07527   1.12532
   D12        1.22822   0.00336   0.00000   0.04912   0.04956   1.27778
   D13       -0.93219  -0.00647   0.00000  -0.07175  -0.07190  -1.00409
   D14       -0.83744   0.00703   0.00000   0.07537   0.07565  -0.76179
   D15       -2.99785  -0.00281   0.00000  -0.04549  -0.04580  -3.04365
   D16       -3.13654   0.00023   0.00000   0.00234   0.00234  -3.13420
   D17        0.00605   0.00016   0.00000   0.00127   0.00129   0.00733
   D18        1.03535  -0.00099   0.00000  -0.00844  -0.00852   1.02683
   D19       -2.10525  -0.00106   0.00000  -0.00950  -0.00958  -2.11483
   D20       -1.03085   0.00088   0.00000   0.00779   0.00786  -1.02299
   D21        2.11173   0.00080   0.00000   0.00673   0.00680   2.11853
   D22       -1.06049  -0.00436   0.00000  -0.05803  -0.05856  -1.11906
   D23        1.11330   0.00432   0.00000   0.05623   0.05676   1.17006
   D24        1.04406  -0.00631   0.00000  -0.07348  -0.07424   0.96982
[...]
 032,-0.00007823,-0.00002400,0.00033878,-0.00031709,-0.00051709,0.00363
 346,-0.00096739,-0.03769623,0.28728651,-0.01288916,0.08872357,-0.08727
 102,-0.00040137,-0.00715582,0.00274094,0.00043274,-0.00104561,0.000414
 73,0.00169555,-0.01290236,0.00493403,0.00028381,0.00021237,-0.00008146
 ,0.00232999,-0.00063075,-0.00084752,0.00020258,-0.00011462,0.00002379,
 -0.00004578,0.00044121,-0.00085133,-0.00407779,0.02935680,-0.01087067,
 0.01322284,-0.09534184,0.08934577,-0.00025455,-0.02749258,0.00982017,-
 0.04643176,0.04169623,-0.01407201,-0.00015088,-0.00009540,0.00018863,0
 .00206322,-0.00097762,0.00025858,-0.00788992,0.02689862,-0.01171506,-0
 .00006029,-0.00036645,0.00050547,-0.00230320,0.00083672,0.00302981,-0.
 00010497,0.00036398,-0.00036569,0.00120407,0.00099361,0.00003516,-0.00
 446834,-0.00309870,-0.00121479,0.06009200,-0.00107615,-0.01957103,0.00
 658651,0.03849963,-0.26206982,0.08588701,-0.00005023,0.00004070,0.0000
 2383,0.00154761,0.00014060,-0.00022254,0.00396740,-0.01027647,0.004392
 20,0.00014249,0.00025358,0.00028722,0.00048345,-0.00028891,-0.00186480
 ,-0.00003622,0.00030057,-0.00001128,0.00047175,0.00050512,-0.00009733,
 -0.00308595,-0.00074055,-0.00109679,-0.04056179,0.28783092,-0.00018224
 ,-0.00667555,0.00228399,-0.01222591,0.08412014,-0.08442492,0.00004752,
 0.00004774,-0.00028760,0.00015822,0.00048873,-0.00028382,0.00078180,-0
 .01399772,0.00653398,0.00005618,-0.00026578,0.00005378,0.00143734,-0.0
 0034066,-0.00048851,-0.00019638,-0.00005001,0.00017217,0.00057150,-0.0
 0018466,0.00049883,-0.00104107,-0.00111622,0.00074766,0.01533852,-0.09
 235984,0.08552105,-0.00612474,-0.00213833,-0.02681998,-0.04973901,-0.0
 0039009,-0.03420840,-0.00033999,-0.00010992,-0.00031758,0.00166651,-0.
 00000852,-0.00126069,0.00214132,0.00199879,0.02911126,-0.00016446,0.00
 046291,0.00004999,0.00116684,-0.00075626,0.00103616,-0.00002816,-0.000
 04603,0.00008289,-0.00421904,-0.00321804,-0.00054219,0.00120652,0.0004
 7559,0.00068704,-0.00116422,-0.00076388,-0.00473027,0.05953645,-0.0042
 6284,-0.00226819,-0.01878753,-0.00005866,-0.04970828,-0.01552235,-0.00
 012069,-0.00000081,-0.00028214,0.00128049,-0.00020712,0.00020435,-0.00
 138218,-0.00147679,-0.01360201,-0.00013768,0.00035445,-0.00033845,-0.0
 0093392,-0.00016571,-0.00039245,0.00011931,-0.00009598,0.00047841,-0.0
 0326403,-0.00143429,-0.00070233,0.00095801,0.00055525,-0.00022125,0.00
 340152,0.00327807,0.02914642,0.00215029,0.05071918,-0.00186577,-0.0007
 3295,-0.00452492,-0.03177664,-0.01667749,-0.30184419,-0.00023099,0.000
 28254,0.00015508,0.00052946,-0.00015348,-0.00012798,-0.00106975,-0.000
 77090,-0.01617088,-0.00023577,0.00007784,0.00005480,-0.00147228,0.0008
 7921,0.00174468,0.00002627,-0.00006643,-0.00002608,-0.00031186,-0.0005
 8116,0.00117563,-0.00009693,-0.00030332,0.00044843,-0.00121336,-0.0009
 1413,-0.01078287,0.03522594,0.02046629,0.32800546,0.00063043,-0.000670
 64,0.00003177,-0.00007809,0.00000092,-0.00026380,-0.05929113,-0.057902
 94,0.00055310,-0.00105175,-0.00605749,-0.00006755,0.00009547,0.0000070
 2,0.00008782,-0.00098213,0.00074706,-0.00083493,-0.00000845,0.00005395
 ,-0.00001259,0.00008435,-0.00049911,0.00040586,0.00002065,0.00017318,-
 0.00011090,-0.00041950,0.00042671,0.00013328,0.00002082,0.00006559,0.0
 0006970,0.00011278,-0.00000300,0.00010635,0.06027002,0.00089158,0.0003
 4266,0.00023613,-0.00015430,0.00005851,-0.00026797,-0.05668344,-0.2868
 7984,-0.01398226,-0.00049369,-0.01056693,0.00640057,0.00002367,0.00001
 076,-0.00001858,-0.00196098,0.00080530,-0.00034877,-0.00002678,0.00003
 784,0.00000066,0.00018996,-0.00042797,0.00129392,-0.00009030,0.0001625
 1,-0.00006049,-0.00045289,0.00031831,0.00000191,0.00016512,0.00010010,
 0.00000667,0.00000683,-0.00005589,-0.00001220,0.06424401,0.31429250,-0
 .00161736,0.00032566,0.00039476,-0.00022323,-0.00008023,0.00011137,0.0
 0172144,-0.00816343,-0.04183220,0.00615107,0.03190948,-0.00293053,0.00
 006722,-0.00008574,0.00001797,0.00187273,-0.00095887,-0.00195406,-0.00
 000926,0.00000122,-0.00000035,-0.00104899,0.00035866,-0.00162115,-0.00
 009899,-0.00006312,0.00009654,0.00031376,-0.00064362,0.00026373,-0.000
 07020,-0.00009875,-0.00000830,0.00005361,-0.00001617,0.00006469,0.0012
 4213,0.00817450,0.04984569,0.00011501,0.00019735,-0.00037179,0.0003850
 0,-0.00021224,0.00019336,-0.19715363,-0.01811888,-0.11920318,0.0093088
 7,0.00263165,0.00384213,-0.00000529,0.00006991,-0.00009076,-0.00067799
 ,-0.00081981,0.00036118,0.00004861,-0.00002876,0.00000911,0.00018328,-
 0.00038855,-0.00017000,0.00018269,-0.00001246,-0.00024851,0.00002798,0
 .00012653,-0.00019081,-0.00002960,-0.00000070,0.00004560,-0.00025334,-
 0.00012794,-0.00003499,-0.00693376,-0.00094434,-0.00492501,0.21233094,
 0.00008659,0.00038346,-0.00065394,0.00006988,-0.00005066,0.00016565,-0
 .01717513,-0.04277728,-0.01777918,0.00996503,-0.00074917,0.01036190,-0
 .00010872,-0.00003412,-0.00013992,-0.00095794,-0.00042279,0.00120742,0
 .00000354,-0.00005144,-0.00001183,-0.00035763,-0.00087083,0.00023457,0
 .00004194,-0.00019259,0.00006936,-0.00010057,-0.00026058,-0.00019730,0
 .00000096,-0.00003298,0.00006854,-0.00025709,0.00011252,-0.00002925,-0
 .02547084,-0.00413382,-0.02078731,0.02178765,0.04717194,-0.00009617,0.
 00076405,0.00154825,0.00014097,-0.00010177,-0.00075546,-0.12497957,-0.
 01918594,-0.14669512,-0.02207526,0.00267295,-0.02187269,0.00025308,0.0
 0001114,0.00026340,0.00246631,-0.00222850,-0.00123601,-0.00001888,-0.0
 0003134,-0.00004291,0.00014722,0.00201562,-0.00120310,-0.00023159,-0.0
 0005851,0.00029077,0.00024875,-0.00051999,-0.00012801,-0.00009884,-0.0
 0005986,0.00012928,0.00052912,0.00023023,0.00029461,-0.00171013,-0.000
 84304,-0.00110142,0.13628627,0.01528506,0.16271078,0.00151982,-0.00020
 635,0.00211899,0.00033382,0.00010696,-0.00012663,-0.21430645,0.1077726
 9,0.07726913,-0.00751727,0.00344162,0.00258823,0.00003595,-0.00005079,
 -0.00000394,0.00009901,0.00080012,-0.00229788,-0.00005096,-0.00000745,
 -0.00000470,0.00018077,-0.00048439,0.00023116,-0.00064179,0.00006822,0
 .00023461,0.00015670,-0.00013129,-0.00023919,-0.00003074,-0.00002745,0
 .00009300,0.00012144,0.00009561,-0.00004017,0.00725911,-0.00426370,-0.
 00376648,-0.01774012,0.01223568,0.00933673,0.22978759,0.00037560,0.000
 05845,0.00250551,0.00014000,0.00004875,-0.00021846,0.10920339,-0.11910
 445,-0.05062188,-0.00966638,0.00478814,0.00374719,0.00000002,0.0000556
 2,0.00006092,-0.00124239,0.00024234,0.00050446,0.00001438,0.00000805,-
 0.00002948,-0.00017883,0.00006080,-0.00002724,-0.00046368,0.00033539,0
 .00026569,-0.00023706,0.00035616,-0.00000268,0.00004217,0.00003993,0.0
 0004002,0.00005056,-0.00000079,-0.00002501,0.02480443,-0.01389322,-0.0
 1048823,-0.00389004,0.00142122,0.00216396,-0.11905891,0.12536713,0.000
 45761,0.00256323,-0.00436575,0.00002323,-0.00035236,-0.00054690,0.0749
 5643,-0.04848556,-0.08314896,0.02388411,-0.01593924,-0.01060820,0.0001
 2706,0.00020197,0.00020413,0.00116581,-0.00237826,0.00194138,0.0000686
 5,-0.00005369,-0.00003574,-0.00021761,0.00037947,-0.00039649,0.0011689
 6,-0.00028382,-0.00064650,-0.00031411,0.00019663,0.00002911,0.00003995
 ,0.00003579,0.00002388,0.00016525,0.00011707,0.00008440,0.00026617,-0.
 00062691,-0.00136377,-0.01546753,0.01171880,0.00820313,-0.08539525,0.0
 5214523,0.09033168,0.00203320,0.00031617,0.00054718,0.00165903,0.00201
 635,0.02537208,0.00011559,-0.00005064,0.00000375,0.00001653,0.00004030
 ,-0.00025758,-0.05474195,0.00501448,0.00043554,0.00005629,-0.00003958,
 -0.00005452,0.00270236,0.00000585,-0.02832786,-0.00008877,-0.00000859,
 0.00006110,-0.00039664,-0.00015530,-0.00057560,-0.00007898,-0.00016198
 ,-0.00000257,0.00072510,0.00018847,-0.00069899,-0.00381935,0.00228707,
 0.00193756,-0.00003512,-0.00000515,-0.00001350,0.00001533,0.00005482,-
 0.00010693,-0.00000959,-0.00000380,-0.00005837,0.05368295,0.00021214,0
 .00013571,0.00003313,0.00026075,0.00197507,-0.01332830,-0.00005217,-0.
 00000765,-0.00000248,0.00005602,-0.00006669,0.00013589,0.00466136,-0.0
 4689184,-0.02220319,-0.00000542,0.00003281,-0.00004521,0.00245666,0.00
 712989,0.01186753,0.00002958,-0.00007821,-0.00001819,0.00015889,0.0002
 4890,0.00019829,-0.00004509,-0.00011761,0.00009523,-0.00099935,0.00045
 686,0.00054806,0.00269776,0.00042399,-0.00120215,-0.00000145,-0.000007
 70,0.00002239,-0.00002646,-0.00001406,0.00006424,0.00001868,-0.0000114
 9,0.00001320,-0.01190530,0.03424535,-0.00046506,0.00003246,0.00033829,
 -0.00163368,-0.00097010,-0.01122040,-0.00013549,0.00002941,-0.00000840
 ,0.00012021,0.00012893,0.00032681,-0.00365300,-0.01974362,-0.32615633,
 -0.00001032,0.00000330,0.00002328,0.00108161,-0.00218767,-0.01427158,0
 .00005376,0.00000520,-0.00002134,0.00078177,0.00026194,0.00024187,0.00
 006637,0.00001137,-0.00009331,0.00029130,-0.00029356,0.00026436,0.0019
 0426,-0.00116095,0.00025194,0.00001395,0.00000100,0.00001580,-0.000011
 63,-0.00002161,0.00005551,-0.00000604,-0.00001657,0.00002810,0.0040495
 0,0.02302747,0.34890840,0.00237976,0.00439034,-0.00085080,0.00086117,-
 0.00014375,-0.00018816,-0.00108594,-0.00271522,-0.00002906,-0.01196119
 ,0.00653199,0.01015705,0.00006279,-0.00003036,-0.00002731,-0.22239019,
 0.08592419,0.10764361,-0.00001588,-0.00003258,0.00000618,-0.00281845,0
 .00311245,0.00444322,-0.00009039,0.00005514,0.00002126,-0.00101748,0.0
 0048289,0.00058414,0.00004812,-0.00013589,0.00006032,-0.00009514,-0.00
 001026,-0.00005657,0.00030992,-0.00040423,0.00022873,0.00014608,0.0001
 5412,-0.00027964,0.00071540,0.00010546,-0.00082917,0.00002967,0.000008
 48,-0.00001352,0.23232812,0.00269578,0.00062955,0.00453249,0.00075084,
 -0.00066038,-0.00051549,-0.00129396,-0.00186357,-0.00255638,0.02020290
 ,-0.00571228,-0.01178187,0.00017150,0.00031872,0.00020371,0.08466994,-
 0.08673934,-0.04248416,0.00010196,-0.00004731,-0.00007491,-0.01003567,
 0.00808512,0.00713149,-0.00054909,0.00034859,-0.00001676,0.00066542,-0
 .00022024,-0.00007300,0.00005044,-0.00002572,0.00006171,0.00002768,0.0
 0001881,0.00002053,0.00007271,-0.00014034,0.00043870,-0.00030214,0.000
 47773,-0.00028468,-0.00037558,0.00017506,0.00087955,0.00000339,-0.0000
 1733,-0.00001853,-0.09703737,0.08445051,-0.00002752,0.00422028,0.00002
 896,0.00061494,-0.00015162,-0.00024650,-0.00283641,-0.00039826,0.00007
 319,-0.00959497,0.00498482,0.00803383,0.00004985,0.00007508,0.00002929
 ,0.10949720,-0.04330208,-0.12044841,0.00003515,-0.00004514,-0.00000282
 ,0.02410761,-0.01057476,-0.01162340,-0.00007916,0.00017454,-0.00002646
 ,-0.00073828,0.00032950,0.00061314,-0.00003323,-0.00012459,-0.00004287
 ,-0.00002901,-0.00004473,0.00001330,0.00003259,-0.00018371,0.00022690,
 -0.00004670,0.00030736,-0.00015760,0.00011456,0.00001889,0.00000696,-0
 .00000343,0.00001504,0.00000031,-0.12169930,0.04182012,0.12593237,-0.0
 0046335,0.00027362,0.00013137,0.00000947,-0.00419096,-0.00145530,-0.00
 002988,-0.00000779,-0.00004475,-0.00013076,-0.00004847,-0.00006379,0.0
 0289811,-0.00016081,-0.02662250,-0.00000790,-0.00000279,0.00005389,-0.
 05537764,0.00755967,-0.00615127,0.00002007,-0.00000939,-0.00002421,0.0
 0006610,0.00001926,0.00007907,-0.00004634,-0.00001057,0.00000660,0.000
 56466,-0.00019019,0.00018493,-0.00019791,0.00030159,0.00066499,-0.0000
 0790,-0.00000366,0.00000641,-0.00000295,0.00001134,0.00005044,0.000018
 55,-0.00000562,0.00001940,-0.00134587,0.00589315,-0.00259084,0.0000077
 6,0.00001083,0.00000745,0.05000100,-0.00077260,0.00062194,0.00008872,-
 0.00357229,-0.00688694,0.00165112,0.00001576,-0.00000213,-0.00002627,-
 0.00015663,-0.00019287,-0.00021330,0.00200290,0.00671309,0.01064775,-0
 .00000732,-0.00001274,0.00007226,0.00695412,-0.04222840,-0.02005781,-0
 .00000360,-0.00000318,-0.00003433,-0.00010288,-0.00008111,-0.00016276,
 -0.00008742,0.00004912,0.00001598,0.00114070,-0.00029057,0.00003651,0.
 00010058,0.00012093,-0.00030538,-0.00002746,-0.00001276,-0.00000796,0.
 00000988,0.00003400,0.00001344,0.00001157,-0.00000239,0.00001226,0.005
 76214,0.00896772,0.00026326,0.00001622,0.00003064,0.00001295,-0.010459
 52,0.03105232,0.00005344,0.00000477,0.00018553,0.00193218,-0.00005105,
 0.00123056,-0.00000896,0.00000697,-0.00000571,-0.00005328,-0.00001802,
 -0.00000771,0.00030513,-0.00193498,-0.01518646,-0.00000506,-0.00001994
 ,0.00001843,-0.01000376,-0.01779871,-0.33597249,0.00002229,0.00000228,
 -0.00001160,0.00017606,0.00005048,0.00002039,-0.00008307,-0.00001478,-
 0.00006248,0.00001564,-0.00001002,0.00018066,-0.00093107,0.00039913,0.
 00059168,-0.00000931,-0.00000539,0.00000055,-0.00000717,0.00001276,0.0
 0001380,0.00000126,-0.00000468,0.00001232,-0.00274605,0.00032982,0.000
 18107,-0.00000276,0.00000205,0.00000532,0.01385672,0.01884324,0.357716
 33,0.00056983,0.00003179,-0.00011225,0.00125629,0.00569152,-0.00375419
 ,-0.00000147,0.00001047,-0.00000277,0.00002867,-0.00005407,0.00002617,
 -0.01617337,0.01024781,0.01445132,-0.00000950,-0.00001976,-0.00004432,
 -0.22619304,0.09509272,0.10400622,-0.00001821,-0.00003805,0.00001242,-
 0.00004978,-0.00000461,-0.00001441,-0.00004331,-0.00015125,0.00000906,
 -0.00165172,0.00047022,0.00047839,0.00024370,-0.00021361,-0.00006714,-
 0.00000832,-0.00000956,0.00000122,0.00000818,0.00001234,-0.00001474,-0
 .00001073,0.00000111,0.00000467,-0.00054599,-0.00344852,0.00008711,-0.
 00000296,0.00000208,0.00000669,0.00400944,-0.00083579,-0.00251126,0.23
 859994,0.00213015,-0.00133232,-0.00082622,0.00471803,0.01157458,0.0004
 6617,0.00005930,-0.00006172,0.00001737,0.00033221,0.00045720,0.0003291
 2,0.00860858,-0.00015491,-0.00608761,0.00004539,0.00000151,-0.00017030
 ,0.09527424,-0.08331107,-0.05424674,-0.00002096,-0.00005318,0.00007285
 ,0.00000747,-0.00000249,0.00006901,-0.00003993,-0.00016501,-0.00003589
 ,-0.00175676,0.00041622,0.00060317,-0.00017457,-0.00007974,0.00005739,
 -0.00000724,0.00000042,0.00000750,-0.00001307,0.00000867,-0.00000877,0
 .00001331,-0.00000892,-0.00003625,-0.00339888,-0.00644179,0.00069013,-
 0.00000176,-0.00006634,-0.00001788,0.00102575,0.00211420,0.00021039,-0
 .10680802,0.07708616,-0.00041251,0.00029619,0.00048369,-0.00186675,-0.
 00023523,-0.00153250,-0.00002374,0.00001149,-0.00002618,-0.00011302,-0
 .00014462,-0.00011363,-0.01590109,0.00768353,0.01089256,-0.00002335,-0
 .00000591,0.00002568,0.10880810,-0.05644905,-0.12316041,-0.00000646,-0
 .00000019,-0.00000514,0.00007214,0.00003287,-0.00000832,-0.00001521,-0
 .00003645,-0.00003886,-0.00009351,0.00019762,0.00033214,-0.00020632,0.
 00017580,0.00045042,-0.00000026,-0.00000105,0.00000156,-0.00000173,0.0
 0000676,0.00002618,0.00000684,0.00000094,0.00001930,0.00048886,0.00040
 659,0.00113577,0.00000248,0.00001823,0.00000381,0.02189823,-0.01083624
 ,-0.00891252,-0.11260950,0.05887528,0.12042568,-0.00006513,0.00103612,
 -0.00005886,-0.00000638,0.00020212,-0.00014790,-0.00007928,-0.00026939
 ,0.00005882,-0.00255306,0.00010289,-0.00184377,0.00000269,0.00000645,-
 0.00006215,-0.00154685,0.00100997,0.00499924,-0.00000839,-0.00000723,0
 .00005538,-0.21963415,0.08150447,0.12882548,-0.00009729,0.00100453,-0.
 00111233,0.00002188,-0.00012198,-0.00034527,-0.00029236,-0.00008880,-0
 .00034084,0.00001705,-0.00013569,0.00003903,-0.00001604,-0.00002474,0.
 00006884,0.00004386,-0.00001950,-0.00002182,0.00007893,-0.00000367,-0.
 00005653,-0.00001049,0.00004071,0.00007883,0.00366430,0.00235732,0.002
 43710,0.00001249,0.00000014,0.00000474,0.00000595,0.00000692,-0.000002
 42,0.22829247,0.00041256,-0.00059267,0.00119688,0.00025481,0.00014613,
 -0.00027279,-0.00005065,-0.00024992,-0.00020883,-0.00090521,-0.0021679
 4,-0.00104506,-0.00008156,-0.00009374,0.00014363,-0.01049731,0.0091243
 9,0.00435394,0.00002851,-0.00004568,-0.00005181,0.08277466,-0.07137296
 ,-0.03927046,0.00125412,-0.00226834,0.00102381,-0.00021432,0.00004640,
 -0.00014859,-0.00024081,-0.00005126,-0.00017401,-0.00012656,-0.0001217
 3,-0.00001587,-0.00004709,-0.00003863,0.00008698,0.00006200,0.00000128
 ,-0.00003000,0.00004798,0.00004669,-0.00008700,0.00004792,0.00003702,-
 0.00004642,0.00220367,0.00289219,0.00451426,-0.00000469,0.00000823,-0.
 00000471,0.00001588,0.00002234,0.00000414,-0.09001683,0.06699447,-0.00
 024509,-0.00007968,-0.00032474,-0.00024141,0.00044786,0.00001258,-0.00
 026955,0.00002063,-0.00012738,-0.00052792,-0.00175031,0.00001062,-0.00
 027658,-0.00005198,0.00017682,0.02292559,-0.01146622,-0.00957418,0.000
 11015,-0.00005409,-0.00004344,0.12810641,-0.03806521,-0.13725808,-0.00
 026379,0.00099144,0.00045181,-0.00003767,-0.00003269,0.00040244,-0.000
 60031,-0.00021979,-0.00034277,0.00014995,-0.00015531,0.00011132,-0.000
 03245,0.00007669,0.00000849,-0.00002248,0.00004666,-0.00012654,-0.0001
 3830,0.00002296,0.00019449,-0.00001686,0.00001889,-0.00002000,0.002327
 11,0.00461769,-0.00230787,-0.00001282,-0.00001164,-0.00000211,0.000042
 07,0.00002149,0.00000294,-0.14203503,0.04152187,0.14015597,-0.00021033
 ,0.00017252,0.00048498,0.00007398,-0.00005672,-0.00010442,0.00022816,-
 0.00023745,0.00006230,0.00248537,0.00031965,0.00359359,0.00007100,-0.0
 0000102,-0.00003140,0.00776810,-0.00479803,0.00337148,-0.00005226,0.00
 000603,-0.00000590,-0.14323153,0.13633727,-0.05372699,-0.00001537,-0.0
 0019554,-0.00038282,0.00003429,-0.00005162,-0.00018089,0.00011455,0.00
 018065,0.00009268,-0.00006725,0.00005661,-0.00005739,0.00002864,-0.000
 00341,0.00004586,0.00000084,0.00002351,0.00017467,0.00000057,0.0000132
 7,-0.00000872,0.00003670,-0.00001044,-0.00000910,-0.00107548,-0.002188
 98,-0.00181514,0.00000283,0.00001149,-0.00000572,-0.00001359,-0.000000
 17,-0.00000076,-0.00783019,0.01508294,-0.00894103,0.14165097,-0.000223
 18,-0.00021282,-0.00000782,-0.00011848,0.00004627,-0.00004056,0.000240
 64,-0.00032615,0.00002078,0.00096869,0.00337478,0.00277016,-0.00002236
 ,-0.00000365,0.00000380,0.00841793,-0.00438383,0.00303019,0.00001465,-
 0.00000728,0.00000133,0.13437897,-0.19458460,0.08839204,-0.00010739,0.
 00017687,0.00013439,0.00006635,-0.00003361,0.00011944,-0.00000060,-0.0
 0001537,-0.00000327,0.00001830,0.00003212,0.00000591,0.00009167,0.0000
 2821,0.00006834,0.00000042,-0.00002050,0.00013171,-0.00000653,0.000017
 54,-0.00002012,-0.00000773,0.00000104,0.00000457,-0.00247355,-0.001934
 06,-0.00163010,-0.00000073,0.00000090,0.00000040,0.00000731,-0.0000038
 3,-0.00000070,0.00341619,-0.00231629,0.00410073,-0.14466057,0.20016428
 ,0.00026176,-0.00068985,-0.00026274,-0.00011118,0.00010193,0.00002576,
 -0.00083155,0.00070786,-0.00008717,0.00367108,0.00270879,-0.00345733,-
 0.00005907,-0.00005804,-0.00004552,-0.01693888,0.02076425,-0.00495936,
 -0.00000861,-0.00000127,0.00002749,-0.05148506,0.08646914,-0.09014265,
 -0.00002926,0.00018205,0.00037707,-0.00003519,0.00005175,0.00028087,-0
 .00004624,-0.00003690,-0.00008010,0.00005003,0.00000798,0.00003046,0.0
 0009919,0.00015832,-0.00023627,0.00005465,0.00013549,-0.00021687,0.000
 02407,-0.00004154,0.00003342,-0.00003331,0.00002373,0.00001988,-0.0014
 9781,-0.00192051,-0.00011146,0.00000596,-0.00000181,0.00000444,0.00000
 523,0.00000981,-0.00000216,0.00945947,-0.01148997,0.00859965,0.0574447
 2,-0.09708122,0.09020258\\-0.00000133,-0.00000016,0.00000127,0.0000002
 0,-0.00000131,-0.00000287,0.00000335,0.00000421,0.00000479,0.00000068,
 0.00000183,0.00000325,-0.00000180,-0.00000335,-0.00000491,0.00000035,0
 .00000195,0.00000326,-0.00000054,-0.00000366,-0.00000667,-0.00000200,-
 0.00000020,0.00000205,-0.00000396,-0.00000162,0.00000150,-0.00000145,0
 .00000003,0.00000227,0.00000039,-0.00000144,-0.00000396,0.00000284,0.0
 0000016,-0.00000327,0.00000217,0.00000439,0.00000684,0.00000514,0.0000
 0430,0.00000274,0.00000485,0.00000568,0.00000600,-0.00000446,-0.000004
 84,-0.00000495,0.00000199,0.00000341,0.00000492,0.00000180,-0.00000212
 ,-0.00000711,-0.00000254,-0.00000510,-0.00000810,-0.00000367,-0.000001
 95,0.00000055,-0.00000199,-0.00000022,0.00000240\\\@


 "WHERE SHALL I START, PLEASE YOUR MAJESTY?" HE ASKED.
 "BEGIN AT THE BEGINNING," THE KING SAID GRAVELY,
 "AND GO ON TILL YOU COME TO THE END: THEN STOP." 

                                      -- LEWIS CARROLL
 Job cpu time:  0 days 12 hours  3 minutes 59.4 seconds.
 File lengths (MBytes):  RWF=   2720 Int=      0 D2E=      0 Chk=     32 Scr=     32
 Normal termination of Gaussian 09 at Fri Mar 17 22:57:43 2017.
