 Entering Gaussian System, Link 0=/shared/apps/gaussian/G09_LINUX_LINDA/g09/g09
 Input=/gss_gpfs_scratch/harms.n/QMscratch/AQGZZZGQRYXXLM-UHFFFAOYSA-u8.gjf
 Output=/gss_gpfs_scratch/harms.n/QMscratch/AQGZZZGQRYXXLM-UHFFFAOYSA-u8.log
 Initial command:
 /shared/apps/gaussian/G09_LINUX_LINDA/g09/l1.exe /gss_gpfs_scratch/harms.n/bioTST/Gau-2561.inp -scrdir=/gss_gpfs_scratch/harms.n/bioTST/
 Entering Link 1 = /shared/apps/gaussian/G09_LINUX_LINDA/g09/l1.exe PID=      2562.
  
 Copyright (c) 1988,1990,1992,1993,1995,1998,2003,2009,2010,
            Gaussian, Inc.  All Rights Reserved.
  
 This is part of the Gaussian(R) 09 program.  It is based on
 the Gaussian(R) 03 system (copyright 2003, Gaussian, Inc.),
 the Gaussian(R) 98 system (copyright 1998, Gaussian, Inc.),
 the Gaussian(R) 94 system (copyright 1995, Gaussian, Inc.),
 the Gaussian 92(TM) system (copyright 1992, Gaussian, Inc.),
 the Gaussian 90(TM) system (copyright 1990, Gaussian, Inc.),
 the Gaussian 88(TM) system (copyright 1988, Gaussian, Inc.),
 the Gaussian 86(TM) system (copyright 1986, Carnegie Mellon
 University), and the Gaussian 82(TM) system (copyright 1983,
 Carnegie Mellon University). Gaussian is a federally registered
 trademark of Gaussian, Inc.
  
 This software contains proprietary and confidential information,
 including trade secrets, belonging to Gaussian, Inc.
  
 This software is provided under written license and may be
 used, copied, transmitted, or stored only in accord with that
 written license.
  
 The following legend is applicable only to US Government
 contracts under FAR:
  
                    RESTRICTED RIGHTS LEGEND
  
 Use, reproduction and disclosure by the US Government is
 subject to restrictions as set forth in subparagraphs (a)
 and (c) of the Commercial Computer Software - Restricted
 Rights clause in FAR 52.227-19.
  
 Gaussian, Inc.
 340 Quinnipiac St., Bldg. 40, Wallingford CT 06492
  
  
 ---------------------------------------------------------------
 Warning -- This program may not be used in any manner that
 competes with the business of Gaussian, Inc. or will provide
 assistance to any competitor of Gaussian, Inc.  The licensee
 of this program is prohibited from giving any competitor of
 Gaussian, Inc. access to this program.  By using this program,
 the user acknowledges that Gaussian, Inc. is engaged in the
 business of creating and licensing software in the field of
 computational chemistry and represents and warrants to the
 licensee that it is not a competitor of Gaussian, Inc. and that
 it will not use this program in any manner prohibited above.
 ---------------------------------------------------------------
  

 Cite this work as:
 Gaussian 09, Revision B.01,
 M. J. Frisch, G. W. Trucks, H. B. Schlegel, G. E. Scuseria, 
 M. A. Robb, J. R. Cheeseman, G. Scalmani, V. Barone, B. Mennucci, 
 G. A. Petersson, H. Nakatsuji, M. Caricato, X. Li, H. P. Hratchian, 
 A. F. Izmaylov, J. Bloino, G. Zheng, J. L. Sonnenberg, M. Hada, 
 M. Ehara, K. Toyota, R. Fukuda, J. Hasegawa, M. Ishida, T. Nakajima, 
 Y. Honda, O. Kitao, H. Nakai, T. Vreven, J. A. Montgomery, Jr., 
 J. E. Peralta, F. Ogliaro, M. Bearpark, J. J. Heyd, E. Brothers, 
 K. N. Kudin, V. N. Staroverov, T. Keith, R. Kobayashi, J. Normand, 
 K. Raghavachari, A. Rendell, J. C. Burant, S. S. Iyengar, J. Tomasi, 
 M. Cossi, N. Rega, J. M. Millam, M. Klene, J. E. Knox, J. B. Cross, 
 V. Bakken, C. Adamo, J. Jaramillo, R. Gomperts, R. E. Stratmann, 
 O. Yazyev, A. J. Austin, R. Cammi, C. Pomelli, J. W. Ochterski, 
 R. L. Martin, K. Morokuma, V. G. Zakrzewski, G. A. Voth, 
 P. Salvador, J. J. Dannenberg, S. Dapprich, A. D. Daniels, 
 O. Farkas, J. B. Foresman, J. V. Ortiz, J. Cioslowski, 
 and D. J. Fox, Gaussian, Inc., Wallingford CT, 2010.
 
 ******************************************
 Gaussian 09:  EM64L-G09RevB.01 12-Aug-2010
                25-Jul-2017 
 ******************************************
 %nprocshared=20
 Will use up to   20 processors via shared memory.
 %mem=5GB
 --------------------------------------------------------------
 # m062x/6-311+g(2df,2p) opt=(verytight,gdiis) freq IOP(2/16=3)
 --------------------------------------------------------------

 Warning!  Use of Opt=GDIIS is deprecated since it is seldom a good choice.

 1/7=1,14=-1,18=20,19=11,26=3,38=1/1,3;
 2/9=110,12=2,16=3,17=6,18=5,40=1/2;
 3/5=4,6=6,7=214,11=2,16=1,25=1,30=1,71=1,74=-55/1,2,3;
 4//1;
 5/5=2,38=5/2;
 6/7=2,8=2,9=2,10=2,28=1/1;
 7//1,2,3,16;
 1/7=1,14=-1,18=20,19=11/3(2);
 2/9=110,16=3/2;
 99//99;
 2/9=110,16=3/2;
 3/5=4,6=6,7=214,11=2,16=1,25=1,30=1,71=1,74=-55/1,2,3;
 4/5=5,16=3/1;
 5/5=2,38=5/2;
 7//1,2,3,16;
 1/7=1,14=-1,18=20,19=11/3(-5);
 2/9=110,16=3/2;
 6/7=2,8=2,9=2,10=2,19=2,28=1/1;
 99/9=1/99;
 ------------------------------------------------------------------
 InChI=1S/C10H19O/c1-3-4-5-6-10-8-7-9(2)11-10/h8-10H,3-7H2,1-2H3/u8
 ------------------------------------------------------------------
 Symbolic Z-matrix:
 Charge =  0 Multiplicity = 2
 C                    -3.1465   -0.3266   -0.1772 
 C                    -1.1395   -0.4662   -1.2458 
 C                     0.1246    0.3199   -0.8707 
 C                     1.1058   -0.539    -0.0612 
 C                     2.3725    0.2521    0.2854 
 C                     3.3515   -0.6048    1.0961 
 C                    -3.1513    0.7853   -1.2097 
 C                    -3.6212    0.1635    1.1893 
 C                     4.6137    0.1794    1.4431 
 C                    -2.0375    0.3913   -2.1262 
 O                    -1.8388   -0.8379   -0.0751 
 H                    -3.8206   -1.1451   -0.5166 
 H                    -0.8471   -1.3843   -1.8026 
 H                    -0.1606    1.2165   -0.2762 
 H                     0.6276    0.6642   -1.8017 
 H                     1.3845   -1.4375   -0.6549 
 H                     0.6162   -0.8746    0.8793 
 H                     2.0938    1.1518    0.8776 
 H                     2.8667    0.586    -0.6537 
 H                     2.8657   -0.9391    2.0388 
 H                     3.6375   -1.5046    0.5089 
 H                    -2.9024    1.7684   -0.7531 
 H                    -4.1242    0.851    -1.7438 
 H                    -2.9369    0.9468    1.5806 
 H                    -3.6371   -0.6845    1.9063 
 H                    -4.6477    0.5807    1.1106 
 H                     4.3581    1.0721    2.0528 
 H                     5.1332    0.5041    0.5164 
 H                     5.3025   -0.4652    2.0289 
 H                    -2.4424   -0.2237   -2.9607 
 

 GradGradGradGradGradGradGradGradGradGradGradGradGradGradGradGradGradGrad
 Berny optimization.
 Initialization pass.
                           ----------------------------
                           !    Initial Parameters    !
                           ! (Angstroms and Degrees)  !
 --------------------------                            --------------------------
 ! Name  Definition              Value          Derivative Info.                !
 --------------------------------------------------------------------------------
 ! R1    R(1,7)                  1.5174         estimate D2E/DX2                !
 ! R2    R(1,8)                  1.5274         estimate D2E/DX2                !
 ! R3    R(1,11)                 1.4078         estimate D2E/DX2                !
 ! R4    R(1,12)                 1.1133         estimate D2E/DX2                !
 ! R5    R(2,3)                  1.5351         estimate D2E/DX2                !
 ! R6    R(2,10)                 1.5221         estimate D2E/DX2                !
 ! R7    R(2,11)                 1.4134         estimate D2E/DX2                !
 ! R8    R(2,13)                 1.1128         estimate D2E/DX2                !
 ! R9    R(3,4)                  1.5348         estimate D2E/DX2                !
 ! R10   R(3,14)                 1.113          estimate D2E/DX2                !
 ! R11   R(3,15)                 1.1128         estimate D2E/DX2                !
 ! R12   R(4,5)                  1.5331         estimate D2E/DX2                !
 ! R13   R(4,16)                 1.1124         estimate D2E/DX2                !
 ! R14   R(4,17)                 1.1121         estimate D2E/DX2                !
 ! R15   R(5,6)                  1.533          estimate D2E/DX2                !
 ! R16   R(5,18)                 1.1126         estimate D2E/DX2                !
 ! R17   R(5,19)                 1.1125         estimate D2E/DX2                !
 ! R18   R(6,9)                  1.526          estimate D2E/DX2                !
 ! R19   R(6,20)                 1.112          estimate D2E/DX2                !
 ! R20   R(6,21)                 1.1119         estimate D2E/DX2                !
 ! R21   R(7,10)                 1.4952         estimate D2E/DX2                !
 ! R22   R(7,22)                 1.1122         estimate D2E/DX2                !
 ! R23   R(7,23)                 1.1118         estimate D2E/DX2                !
 ! R24   R(8,24)                 1.1113         estimate D2E/DX2                !
 ! R25   R(8,25)                 1.1106         estimate D2E/DX2                !
 ! R26   R(8,26)                 1.1108         estimate D2E/DX2                !
 ! R27   R(9,27)                 1.1108         estimate D2E/DX2                !
 ! R28   R(9,28)                 1.1109         estimate D2E/DX2                !
 ! R29   R(9,29)                 1.1105         estimate D2E/DX2                !
 ! R30   R(10,30)                1.1129         estimate D2E/DX2                !
 ! A1    A(7,1,8)              111.8803         estimate D2E/DX2                !
 ! A2    A(7,1,11)             108.5677         estimate D2E/DX2                !
 ! A3    A(7,1,12)             109.2305         estimate D2E/DX2                !
 ! A4    A(8,1,11)             109.8981         estimate D2E/DX2                !
 ! A5    A(8,1,12)             108.6908         estimate D2E/DX2                !
 ! A6    A(11,1,12)            108.5129         estimate D2E/DX2                !
 ! A7    A(3,2,10)             109.7952         estimate D2E/DX2                !
 ! A8    A(3,2,11)             109.8581         estimate D2E/DX2                !
 ! A9    A(3,2,13)             109.1691         estimate D2E/DX2                !
 ! A10   A(10,2,11)            109.5935         estimate D2E/DX2                !
 ! A11   A(10,2,13)            109.2924         estimate D2E/DX2                !
 ! A12   A(11,2,13)            109.1146         estimate D2E/DX2                !
 ! A13   A(2,3,4)              111.6374         estimate D2E/DX2                !
 ! A14   A(2,3,14)             109.3925         estimate D2E/DX2                !
 ! A15   A(2,3,15)             109.0397         estimate D2E/DX2                !
 ! A16   A(4,3,14)             109.4455         estimate D2E/DX2                !
 ! A17   A(4,3,15)             108.9915         estimate D2E/DX2                !
 ! A18   A(14,3,15)            108.2688         estimate D2E/DX2                !
 ! A19   A(3,4,5)              111.0182         estimate D2E/DX2                !
 ! A20   A(3,4,16)             109.3096         estimate D2E/DX2                !
 ! A21   A(3,4,17)             109.4781         estimate D2E/DX2                !
 ! A22   A(5,4,16)             109.2953         estimate D2E/DX2                !
 ! A23   A(5,4,17)             109.1627         estimate D2E/DX2                !
 ! A24   A(16,4,17)            108.5357         estimate D2E/DX2                !
 ! A25   A(4,5,6)              111.0248         estimate D2E/DX2                !
 ! A26   A(4,5,18)             109.3075         estimate D2E/DX2                !
 ! A27   A(4,5,19)             109.3333         estimate D2E/DX2                !
 ! A28   A(6,5,18)             109.3            estimate D2E/DX2                !
 ! A29   A(6,5,19)             109.2988         estimate D2E/DX2                !
 ! A30   A(18,5,19)            108.5352         estimate D2E/DX2                !
 ! A31   A(5,6,9)              111.1766         estimate D2E/DX2                !
 ! A32   A(5,6,20)             109.7181         estimate D2E/DX2                !
 ! A33   A(5,6,21)             109.7154         estimate D2E/DX2                !
 ! A34   A(9,6,20)             108.85           estimate D2E/DX2                !
 ! A35   A(9,6,21)             108.8578         estimate D2E/DX2                !
 ! A36   A(20,6,21)            108.4703         estimate D2E/DX2                !
 ! A37   A(1,7,10)             102.805          estimate D2E/DX2                !
 ! A38   A(1,7,22)             111.5722         estimate D2E/DX2                !
 ! A39   A(1,7,23)             111.8979         estimate D2E/DX2                !
 ! A40   A(10,7,22)            108.5336         estimate D2E/DX2                !
 ! A41   A(10,7,23)            111.8976         estimate D2E/DX2                !
 ! A42   A(22,7,23)            109.9271         estimate D2E/DX2                !
 ! A43   A(1,8,24)             110.4766         estimate D2E/DX2                !
 ! A44   A(1,8,25)             109.6966         estimate D2E/DX2                !
 ! A45   A(1,8,26)             110.1408         estimate D2E/DX2                !
 ! A46   A(24,8,25)            108.6441         estimate D2E/DX2                !
 ! A47   A(24,8,26)            109.223          estimate D2E/DX2                !
 ! A48   A(25,8,26)            108.6192         estimate D2E/DX2                !
 ! A49   A(6,9,27)             110.3329         estimate D2E/DX2                !
 ! A50   A(6,9,28)             110.3239         estimate D2E/DX2                !
 ! A51   A(6,9,29)             109.5554         estimate D2E/DX2                !
 ! A52   A(27,9,28)            109.3034         estimate D2E/DX2                !
 ! A53   A(27,9,29)            108.643          estimate D2E/DX2                !
 ! A54   A(28,9,29)            108.6423         estimate D2E/DX2                !
 ! A55   A(2,10,7)             103.4963         estimate D2E/DX2                !
 ! A56   A(2,10,30)            109.6966         estimate D2E/DX2                !
 ! A57   A(7,10,30)            109.5246         estimate D2E/DX2                !
 ! A58   A(1,11,2)             107.6978         estimate D2E/DX2                !
 ! D1    D(8,1,7,10)           149.7724         estimate D2E/DX2                !
 ! D2    D(8,1,7,22)            33.6442         estimate D2E/DX2                !
 ! D3    D(8,1,7,23)           -89.9918         estimate D2E/DX2                !
 ! D4    D(11,1,7,10)           28.3187         estimate D2E/DX2                !
 ! D5    D(11,1,7,22)          -87.8095         estimate D2E/DX2                !
 ! D6    D(11,1,7,23)          148.5545         estimate D2E/DX2                !
 ! D7    D(12,1,7,10)          -89.8407         estimate D2E/DX2                !
 ! D8    D(12,1,7,22)          154.0311         estimate D2E/DX2                !
 ! D9    D(12,1,7,23)           30.3951         estimate D2E/DX2                !
 ! D10   D(7,1,8,24)           -62.2083         estimate D2E/DX2                !
 ! D11   D(7,1,8,25)           178.047          estimate D2E/DX2                !
 ! D12   D(7,1,8,26)            58.542          estimate D2E/DX2                !
 ! D13   D(11,1,8,24)           58.475          estimate D2E/DX2                !
 ! D14   D(11,1,8,25)          -61.2697         estimate D2E/DX2                !
 ! D15   D(11,1,8,26)          179.2253         estimate D2E/DX2                !
 ! D16   D(12,1,8,24)          177.0905         estimate D2E/DX2                !
 ! D17   D(12,1,8,25)           57.3458         estimate D2E/DX2                !
 ! D18   D(12,1,8,26)          -62.1592         estimate D2E/DX2                !
 ! D19   D(7,1,11,2)           -19.449          estimate D2E/DX2                !
 ! D20   D(8,1,11,2)          -142.1108         estimate D2E/DX2                !
 ! D21   D(12,1,11,2)           99.1643         estimate D2E/DX2                !
 ! D22   D(10,2,3,4)          -176.1185         estimate D2E/DX2                !
 ! D23   D(10,2,3,14)           62.5946         estimate D2E/DX2                !
 ! D24   D(10,2,3,15)          -55.6374         estimate D2E/DX2                !
 ! D25   D(11,2,3,4)            63.2888         estimate D2E/DX2                !
 ! D26   D(11,2,3,14)          -57.9981         estimate D2E/DX2                !
 ! D27   D(11,2,3,15)         -176.2301         estimate D2E/DX2                !
 ! D28   D(13,2,3,4)           -56.3251         estimate D2E/DX2                !
 ! D29   D(13,2,3,14)         -177.612          estimate D2E/DX2                !
 ! D30   D(13,2,3,15)           64.156          estimate D2E/DX2                !
 ! D31   D(3,2,10,7)          -105.8344         estimate D2E/DX2                !
 ! D32   D(3,2,10,30)          137.3588         estimate D2E/DX2                !
 ! D33   D(11,2,10,7)           14.9183         estimate D2E/DX2                !
 ! D34   D(11,2,10,30)        -101.8885         estimate D2E/DX2                !
 ! D35   D(13,2,10,7)          134.4475         estimate D2E/DX2                !
 ! D36   D(13,2,10,30)          17.6407         estimate D2E/DX2                !
 ! D37   D(3,2,11,1)           123.4097         estimate D2E/DX2                !
 ! D38   D(10,2,11,1)            2.6952         estimate D2E/DX2                !
 ! D39   D(13,2,11,1)         -116.9431         estimate D2E/DX2                !
 ! D40   D(2,3,4,5)            179.0468         estimate D2E/DX2                !
 ! D41   D(2,3,4,16)            58.4019         estimate D2E/DX2                !
 ! D42   D(2,3,4,17)           -60.3632         estimate D2E/DX2                !
 ! D43   D(14,3,4,5)           -59.697          estimate D2E/DX2                !
 ! D44   D(14,3,4,16)          179.6581         estimate D2E/DX2                !
 ! D45   D(14,3,4,17)           60.893          estimate D2E/DX2                !
 ! D46   D(15,3,4,5)            58.5375         estimate D2E/DX2                !
 ! D47   D(15,3,4,16)          -62.1074         estimate D2E/DX2                !
 ! D48   D(15,3,4,17)          179.1275         estimate D2E/DX2                !
 ! D49   D(3,4,5,6)            179.8966         estimate D2E/DX2                !
 ! D50   D(3,4,5,18)            59.243          estimate D2E/DX2                !
 ! D51   D(3,4,5,19)           -59.4343         estimate D2E/DX2                !
 ! D52   D(16,4,5,6)           -59.45           estimate D2E/DX2                !
 ! D53   D(16,4,5,18)          179.8964         estimate D2E/DX2                !
 ! D54   D(16,4,5,19)           61.219          estimate D2E/DX2                !
 ! D55   D(17,4,5,6)            59.1202         estimate D2E/DX2                !
 ! D56   D(17,4,5,18)          -61.5334         estimate D2E/DX2                !
 ! D57   D(17,4,5,19)          179.7893         estimate D2E/DX2                !
 ! D58   D(4,5,6,9)           -179.9959         estimate D2E/DX2                !
 ! D59   D(4,5,6,20)           -59.537          estimate D2E/DX2                !
 ! D60   D(4,5,6,21)            59.5371         estimate D2E/DX2                !
 ! D61   D(18,5,6,9)           -59.3379         estimate D2E/DX2                !
 ! D62   D(18,5,6,20)           61.121          estimate D2E/DX2                !
 ! D63   D(18,5,6,21)         -179.8049         estimate D2E/DX2                !
 ! D64   D(19,5,6,9)            59.3146         estimate D2E/DX2                !
 ! D65   D(19,5,6,20)          179.7735         estimate D2E/DX2                !
 ! D66   D(19,5,6,21)          -61.1523         estimate D2E/DX2                !
 ! D67   D(5,6,9,27)            60.4353         estimate D2E/DX2                !
 ! D68   D(5,6,9,28)           -60.4414         estimate D2E/DX2                !
 ! D69   D(5,6,9,29)          -179.9998         estimate D2E/DX2                !
 ! D70   D(20,6,9,27)          -60.5348         estimate D2E/DX2                !
 ! D71   D(20,6,9,28)          178.5884         estimate D2E/DX2                !
 ! D72   D(20,6,9,29)           59.0301         estimate D2E/DX2                !
 ! D73   D(21,6,9,27)         -178.5927         estimate D2E/DX2                !
 ! D74   D(21,6,9,28)           60.5306         estimate D2E/DX2                !
 ! D75   D(21,6,9,29)          -59.0278         estimate D2E/DX2                !
 ! D76   D(1,7,10,2)           -24.9093         estimate D2E/DX2                !
 ! D77   D(1,7,10,30)           92.0183         estimate D2E/DX2                !
 ! D78   D(22,7,10,2)           93.3766         estimate D2E/DX2                !
 ! D79   D(22,7,10,30)        -149.6957         estimate D2E/DX2                !
 ! D80   D(23,7,10,2)         -145.1454         estimate D2E/DX2                !
 ! D81   D(23,7,10,30)         -28.2177         estimate D2E/DX2                !
 --------------------------------------------------------------------------------
 Trust Radius=3.00D-01 FncErr=1.00D-07 GrdErr=1.00D-06
 Number of steps in this run=    179 maximum allowed number of steps=    180.
 GradGradGradGradGradGradGradGradGradGradGradGradGradGradGradGradGradGrad

                          Input orientation:                          
 ---------------------------------------------------------------------
 Center     Atomic      Atomic             Coordinates (Angstroms)
 Number     Number       Type             X           Y           Z
 ---------------------------------------------------------------------
      1          6           0       -3.146500   -0.326600   -0.177200
      2          6           0       -1.139500   -0.466200   -1.245800
      3          6           0        0.124600    0.319900   -0.870700
      4          6           0        1.105800   -0.539000   -0.061200
      5          6           0        2.372500    0.252100    0.285400
      6          6           0        3.351500   -0.604800    1.096100
      7          6           0       -3.151300    0.785300   -1.209700
      8          6           0       -3.621200    0.163500    1.189300
      9          6           0        4.613700    0.179400    1.443100
     10          6           0       -2.037500    0.391300   -2.126200
     11          8           0       -1.838800   -0.837900   -0.075100
     12          1           0       -3.820600   -1.145100   -0.516600
     13          1           0       -0.847100   -1.384300   -1.802600
     14          1           0       -0.160600    1.216500   -0.276200
     15          1           0        0.627600    0.664200   -1.801700
     16          1           0        1.384500   -1.437500   -0.654900
     17          1           0        0.616200   -0.874600    0.879300
     18          1           0        2.093800    1.151800    0.877600
     19          1           0        2.866700    0.586000   -0.653700
     20          1           0        2.865700   -0.939100    2.038800
     21          1           0        3.637500   -1.504600    0.508900
     22          1           0       -2.902400    1.768400   -0.753100
     23          1           0       -4.124200    0.851000   -1.743800
     24          1           0       -2.936900    0.946800    1.580600
     25          1           0       -3.637100   -0.684500    1.906300
     26          1           0       -4.647700    0.580700    1.110600
     27          1           0        4.358100    1.072100    2.052800
     28          1           0        5.133200    0.504100    0.516400
     29          1           0        5.302500   -0.465200    2.028900
     30          1           0       -2.442400   -0.223700   -2.960700
 ---------------------------------------------------------------------
                    Distance matrix (angstroms):
                    1          2          3          4          5
     1  C    0.000000
     2  C    2.278035   0.000000
     3  C    3.405730   1.535123   0.000000
     4  C    4.259181   2.539675   1.534846   0.000000
     5  C    5.568505   3.898034   2.528679   1.533134   0.000000
     6  C    6.627420   5.066832   3.890534   2.527220   1.532956
     7  C    1.517366   2.369577   3.326115   4.603881   5.747347
     8  C    1.527370   3.533422   4.277742   4.939816   6.062122
     9  C    7.943684   6.383282   5.052270   3.883861   2.523595
    10  C    2.354541   1.522109   2.501211   3.874276   5.028249
    11  O    1.407811   1.413407   2.414212   2.959764   4.364987
    12  H    1.113349   2.860233   4.223294   4.984392   6.399208
    13  H    3.007972   1.112848   2.171851   2.749695   4.171735
    14  H    3.362522   2.174822   1.112951   2.175264   2.768042
    15  H    4.226644   2.170132   1.112795   2.169264   2.751452
    16  H    4.689590   2.768242   2.173102   1.112410   2.171418
    17  H    3.946442   2.786633   2.175086   1.112149   2.169507
    18  H    5.546081   4.192968   2.761586   2.171703   1.112580
    19  H    6.100694   4.184178   2.763514   2.171969   1.112489
    20  H    6.436797   5.201332   4.190931   2.768994   2.176377
    21  H    6.919615   5.193936   4.191964   2.768917   2.176275
    22  H    2.186383   2.888599   3.357784   4.676375   5.585895
    23  H    2.190177   3.300220   4.369974   5.667111   6.832528
    24  H    2.180674   3.635348   3.971732   4.609396   5.509072
    25  H    2.170197   4.027579   4.782357   5.136860   6.294428
    26  H    2.176057   4.353859   5.173820   5.977425   7.076167
    27  H    7.952879   6.593234   5.199536   4.200249   2.781854
    28  H    8.350124   6.587382   5.200389   4.200194   2.781785
    29  H    8.733366   7.226550   5.986210   4.688950   3.484137
    30  H    2.873015   2.167311   3.354563   4.593064   5.826389
                    6          7          8          9         10
     6  C    0.000000
     7  C    7.038146   0.000000
     8  C    7.015520   2.522428   0.000000
     9  C    1.525951   8.227982   8.238825   0.000000
    10  C    6.357417   1.495245   3.681377   7.551375   0.000000
    11  O    5.325905   2.375869   2.403843   6.706309   2.399464
    12  H    7.371007   2.157497   2.159233   8.759688   2.851453
    13  H    5.161233   3.219943   4.363804   6.542176   2.162065
    14  H    4.187504   3.162537   3.902852   5.179335   2.761559
    15  H    4.174594   3.826907   5.220065   5.162630   2.698617
    16  H    2.761970   5.081547   5.569677   4.176566   4.149617
    17  H    2.757111   4.616627   4.373707   4.172385   4.204481
    18  H    2.171450   5.657050   5.808194   2.759574   5.164186
    19  H    2.171367   6.046915   6.757810   2.759330   5.124192
    20  H    1.111954   7.051992   6.634550   2.159029   6.569517
    21  H    1.111863   7.367838   7.478919   2.159063   6.537875
    22  H    6.939948   1.112169   2.620171   7.989992   2.128347
    23  H    8.128375   1.111807   3.054299   9.325142   2.170684
    24  H    6.495089   2.803181   1.111279   7.590742   3.854590
    25  H    7.035859   3.479335   1.110606   8.308825   4.469577
    26  H    8.086583   2.768549   1.110834   9.276051   4.162438
    27  H    2.177272   8.192512   8.077154   1.110846   7.670152
    28  H    2.177192   8.467079   8.786827   1.110893   7.642970
    29  H    2.167027   9.138874   8.985133   1.110458   8.477856
    30  H    7.083230   2.141640   4.331512   8.327334   1.112906
                   11         12         13         14         15
    11  O    0.000000
    12  H    2.053491   0.000000
    13  H    2.065497   3.248494   0.000000
    14  H    2.660330   4.362401   3.092788   0.000000
    15  H    3.364607   4.971069   2.524102   1.803731   0.000000
    16  H    3.329467   5.215141   2.509997   3.094263   2.511014
    17  H    2.634246   4.659067   3.097358   2.512230   3.091245
    18  H    4.509089   6.496127   4.718492   2.533330   3.092918
    19  H    4.950151   6.909087   4.358252   3.115218   2.517457
    20  H    5.158598   7.160944   5.360918   4.377708   4.725368
    21  H    5.547559   7.536853   5.046696   4.737756   4.370591
    22  H    2.895467   3.063904   3.907074   2.837163   3.844440
    23  H    3.295451   2.362754   3.967292   4.242354   4.755823
    24  H    2.670640   3.091152   4.609483   3.350863   4.921938
    25  H    2.680179   2.473109   4.693587   4.523622   5.809985
    26  H    3.362771   2.512023   5.176149   4.739359   6.026380
    27  H    6.824780   8.854881   6.927634   5.085641   5.379608
    28  H    7.124579   9.162832   6.686389   5.400004   5.069482
    29  H    7.454119   9.495935   7.303610   6.163365   6.148474
    30  H    3.011356   2.953310   2.287612   3.806222   3.399492
                   16         17         18         19         20
    16  H    0.000000
    17  H    1.805799   0.000000
    18  H    3.091300   2.507908   0.000000
    19  H    2.508280   3.090015   1.806207   0.000000
    20  H    3.114222   2.531571   2.513181   3.094428   0.000000
    21  H    2.536719   3.108432   3.094416   2.513241   1.804455
    22  H    5.353966   4.693690   5.291634   5.889861   6.956741
    23  H    6.063721   5.685925   6.754683   7.080341   8.146854
    24  H    5.418196   4.053867   5.083717   6.229289   6.118556
    25  H    5.687110   4.379661   6.105197   7.104026   6.509131
    26  H    6.601330   5.466264   6.769658   7.718743   7.721562
    27  H    4.740467   4.378191   2.552352   3.128212   2.504472
    28  H    4.381153   4.736644   3.128567   2.552031   3.089026
    29  H    4.847564   4.842582   3.773054   3.772862   2.482473
    30  H    4.629815   4.952202   6.099316   5.845033   7.326849
                   21         22         23         24         25
    21  H    0.000000
    22  H    7.421285   0.000000
    23  H    8.418283   1.820963   0.000000
    24  H    7.097932   2.474343   3.531359   0.000000
    25  H    7.452858   3.691735   3.989769   1.804855   0.000000
    26  H    8.564757   2.816040   2.914569   1.811564   1.804212
    27  H    3.089057   7.814907   9.295831   7.311340   8.187205
    28  H    2.504406   8.232919   9.535633   8.151995   8.958948
    29  H    2.482534   8.947004  10.238570   8.371525   8.943130
    30  H    7.116461   3.008913   2.337579   4.715719   5.032627
                   26         27         28         29         30
    26  H    0.000000
    27  H    9.068277   0.000000
    28  H    9.799232   1.812161   0.000000
    29  H   10.047072   1.804371   1.804401   0.000000
    30  H    4.699563   8.547577   8.367176   9.216176   0.000000
 Stoichiometry    C10H19O(2)
 Framework group  C1[X(C10H19O)]
 Deg. of freedom    84
 Full point group                 C1      NOp   1
 Largest Abelian subgroup         C1      NOp   1
 Largest concise Abelian subgroup C1      NOp   1
                         Standard orientation:                         
 ---------------------------------------------------------------------
 Center     Atomic      Atomic             Coordinates (Angstroms)
 Number     Number       Type             X           Y           Z
 ---------------------------------------------------------------------
      1          6           0        2.852413    0.575083   -0.289740
      2          6           0        1.117655   -0.882128   -0.527634
      3          6           0       -0.175777   -0.867959    0.299066
      4          6           0       -1.330299   -0.208430   -0.467649
      5          6           0       -2.620035   -0.223002    0.361126
      6          6           0       -3.772612    0.437971   -0.403489
      7          6           0        3.108083   -0.536647    0.710805
      8          6           0        3.036638    1.956607    0.335010
      9          6           0       -5.058226    0.425439    0.418441
     10          6           0        2.206075   -1.628342    0.230865
     11          8           0        1.539872    0.442675   -0.781306
     12          1           0        3.561225    0.471538   -1.142036
     13          1           0        0.926580   -1.395502   -1.496329
     14          1           0       -0.000382   -0.317393    1.250262
     15          1           0       -0.458365   -1.914860    0.548980
     16          1           0       -1.499570   -0.756629   -1.420687
     17          1           0       -1.062595    0.843950   -0.707870
     18          1           0       -2.450411    0.323622    1.315204
     19          1           0       -2.892577   -1.274846    0.599822
     20          1           0       -3.509054    1.491540   -0.642172
     21          1           0       -3.950438   -0.105360   -1.357118
     22          1           0        2.793807   -0.243780    1.736661
     23          1           0        4.174169   -0.852148    0.716664
     24          1           0        2.305807    2.111845    1.157646
     25          1           0        2.875827    2.740262   -0.435361
     26          1           0        4.067055    2.060383    0.736784
     27          1           0       -4.915092    0.984772    1.367461
     28          1           0       -5.358374   -0.618908    0.649380
     29          1           0       -5.873573    0.909571   -0.159436
     30          1           0        2.763491   -2.291004   -0.468224
 ---------------------------------------------------------------------
 Rotational constants (GHZ):      2.5249177      0.3947577      0.3671354
 Standard basis: 6-311+G(2df,2p) (5D, 7F)
 There are   545 symmetry adapted basis functions of A   symmetry.
 Integral buffers will be    131072 words long.
 Raffenetti 2 integral format.
 Two-electron integral symmetry is turned on.
   545 basis functions,   781 primitive gaussians,   600 cartesian basis functions
    44 alpha electrons       43 beta electrons
       nuclear repulsion energy       632.2338950676 Hartrees.
 NAtoms=   30 NActive=   30 NUniq=   30 SFac= 1.00D+00 NAtFMM=   50 NAOKFM=F Big=F
 One-electron integrals computed using PRISM.
 NBasis=   545 RedAO= T  NBF=   545
 NBsUse=   545 1.00D-06 NBFU=   545
 Harris functional with IExCor= 1009 diagonalized for initial guess.
 ExpMin= 4.38D-02 ExpMax= 8.59D+03 ExpMxC= 1.30D+03 IAcc=2 IRadAn=         0 AccDes= 0.00D+00
 HarFok:  IExCor= 1009 AccDes= 0.00D+00 IRadAn=         0 IDoV= 1
 ScaDFX=  1.000000  1.000000  1.000000  1.000000
 FoFCou: FMM=F IPFlag=           0 FMFlag=      100000 FMFlg1=           0
         NFxFlg=           0 DoJE=T BraDBF=F KetDBF=T FulRan=T
         Omega=  0.000000  0.000000  1.000000  0.000000  0.000000 ICntrl=     500 IOpCl=  0
         NMat0=    1 NMatS0=    1 NMatT0=    0 NMatD0=    1 NMtDS0=    0 NMtDT0=    0
         I1Cent=           4 NGrid=           0.
 Petite list used in FoFCou.
 Initial guess orbital symmetries:
 Alpha Orbitals:
       Occupied  (A) (A) (A) (A) (A) (A) (A) (A) (A) (A) (A) (A)
                 (A) (A) (A) (A) (A) (A) (A) (A) (A) (A) (A) (A)
                 (A) (A) (A) (A) (A) (A) (A) (A) (A) (A) (A) (A)
                 (A) (A) (A) (A) (A) (A) (A) (A)
       Virtual   (A) (A) (A) (A) (A) (A) (A) (A) (A) (A) (A) (A)
                 (A) (A) (A) (A) (A) (A) (A) (A) (A) (A) (A) (A)
                 (A) (A) (A) (A) (A) (A) (A) (A) (A) (A) (A) (A)
                 (A) (A) (A) (A) (A) (A) (A) (A) (A) (A) (A) (A)
                 (A) (A) (A) (A) (A) (A) (A) (A) (A) (A) (A) (A)
                 (A) (A) (A) (A) (A) (A) (A) (A) (A) (A) (A) (A)
                 (A) (A) (A) (A) (A) (A) (A) (A) (A) (A) (A) (A)
                 (A) (A) (A) (A) (A) (A) (A) (A) (A) (A) (A) (A)
                 (A) (A) (A) (A) (A) (A) (A) (A) (A) (A) (A) (A)
                 (A) (A) (A) (A) (A) (A) (A) (A) (A) (A) (A) (A)
                 (A) (A) (A) (A) (A) (A) (A) (A) (A) (A) (A) (A)
                 (A) (A) (A) (A) (A) (A) (A) (A) (A) (A) (A) (A)
                 (A) (A) (A) (A) (A) (A) (A) (A) (A) (A) (A) (A)
                 (A) (A) (A) (A) (A) (A) (A) (A) (A) (A) (A) (A)
                 (A) (A) (A) (A) (A) (A) (A) (A) (A) (A) (A) (A)
                 (A) (A) (A) (A) (A) (A) (A) (A) (A) (A) (A) (A)
                 (A) (A) (A) (A) (A) (A) (A) (A) (A) (A) (A) (A)
                 (A) (A) (A) (A) (A) (A) (A) (A) (A) (A) (A) (A)
                 (A) (A) (A) (A) (A) (A) (A) (A) (A) (A) (A) (A)
                 (A) (A) (A) (A) (A) (A) (A) (A) (A) (A) (A) (A)
                 (A) (A) (A) (A) (A) (A) (A) (A) (A) (A) (A) (A)
                 (A) (A) (A) (A) (A) (A) (A) (A) (A) (A) (A) (A)
                 (A) (A) (A) (A) (A) (A) (A) (A) (A) (A) (A) (A)
                 (A) (A) (A) (A) (A) (A) (A) (A) (A) (A) (A) (A)
                 (A) (A) (A) (A) (A) (A) (A) (A) (A) (A) (A) (A)
                 (A) (A) (A) (A) (A) (A) (A) (A) (A) (A) (A) (A)
                 (A) (A) (A) (A) (A) (A) (A) (A) (A) (A) (A) (A)
                 (A) (A) (A) (A) (A) (A) (A) (A) (A) (A) (A) (A)
                 (A) (A) (A) (A) (A) (A) (A) (A) (A) (A) (A) (A)
                 (A) (A) (A) (A) (A) (A) (A) (A) (A) (A) (A) (A)
                 (A) (A) (A) (A) (A) (A) (A) (A) (A) (A) (A) (A)
                 (A) (A) (A) (A) (A) (A) (A) (A) (A) (A) (A) (A)
                 (A) (A) (A) (A) (A) (A) (A) (A) (A) (A) (A) (A)
                 (A) (A) (A) (A) (A) (A) (A) (A) (A) (A) (A) (A)
                 (A) (A) (A) (A) (A) (A) (A) (A) (A) (A) (A) (A)
                 (A) (A) (A) (A) (A) (A) (A) (A) (A) (A) (A) (A)
                 (A) (A) (A) (A) (A) (A) (A) (A) (A) (A) (A) (A)
                 (A) (A) (A) (A) (A) (A) (A) (A) (A) (A) (A) (A)
                 (A) (A) (A) (A) (A) (A) (A) (A) (A) (A) (A) (A)
                 (A) (A) (A) (A) (A) (A) (A) (A) (A) (A) (A) (A)
                 (A) (A) (A) (A) (A) (A) (A) (A) (A) (A) (A) (A)
                 (A) (A) (A) (A) (A) (A) (A) (A) (A)
 Beta  Orbitals:
       Occupied  (A) (A) (A) (A) (A) (A) (A) (A) (A) (A) (A) (A)
                 (A) (A) (A) (A) (A) (A) (A) (A) (A) (A) (A) (A)
                 (A) (A) (A) (A) (A) (A) (A) (A) (A) (A) (A) (A)
                 (A) (A) (A) (A) (A) (A) (A)
       Virtual   (A) (A) (A) (A) (A) (A) (A) (A) (A) (A) (A) (A)
                 (A) (A) (A) (A) (A) (A) (A) (A) (A) (A) (A) (A)
                 (A) (A) (A) (A) (A) (A) (A) (A) (A) (A) (A) (A)
                 (A) (A) (A) (A) (A) (A) (A) (A) (A) (A) (A) (A)
                 (A) (A) (A) (A) (A) (A) (A) (A) (A) (A) (A) (A)
                 (A) (A) (A) (A) (A) (A) (A) (A) (A) (A) (A) (A)
                 (A) (A) (A) (A) (A) (A) (A) (A) (A) (A) (A) (A)
                 (A) (A) (A) (A) (A) (A) (A) (A) (A) (A) (A) (A)
                 (A) (A) (A) (A) (A) (A) (A) (A) (A) (A) (A) (A)
                 (A) (A) (A) (A) (A) (A) (A) (A) (A) (A) (A) (A)
                 (A) (A) (A) (A) (A) (A) (A) (A) (A) (A) (A) (A)
                 (A) (A) (A) (A) (A) (A) (A) (A) (A) (A) (A) (A)
                 (A) (A) (A) (A) (A) (A) (A) (A) (A) (A) (A) (A)
                 (A) (A) (A) (A) (A) (A) (A) (A) (A) (A) (A) (A)
                 (A) (A) (A) (A) (A) (A) (A) (A) (A) (A) (A) (A)
                 (A) (A) (A) (A) (A) (A) (A) (A) (A) (A) (A) (A)
                 (A) (A) (A) (A) (A) (A) (A) (A) (A) (A) (A) (A)
                 (A) (A) (A) (A) (A) (A) (A) (A) (A) (A) (A) (A)
                 (A) (A) (A) (A) (A) (A) (A) (A) (A) (A) (A) (A)
                 (A) (A) (A) (A) (A) (A) (A) (A) (A) (A) (A) (A)
                 (A) (A) (A) (A) (A) (A) (A) (A) (A) (A) (A) (A)
                 (A) (A) (A) (A) (A) (A) (A) (A) (A) (A) (A) (A)
                 (A) (A) (A) (A) (A) (A) (A) (A) (A) (A) (A) (A)
                 (A) (A) (A) (A) (A) (A) (A) (A) (A) (A) (A) (A)
                 (A) (A) (A) (A) (A) (A) (A) (A) (A) (A) (A) (A)
                 (A) (A) (A) (A) (A) (A) (A) (A) (A) (A) (A) (A)
                 (A) (A) (A) (A) (A) (A) (A) (A) (A) (A) (A) (A)
                 (A) (A) (A) (A) (A) (A) (A) (A) (A) (A) (A) (A)
                 (A) (A) (A) (A) (A) (A) (A) (A) (A) (A) (A) (A)
                 (A) (A) (A) (A) (A) (A) (A) (A) (A) (A) (A) (A)
                 (A) (A) (A) (A) (A) (A) (A) (A) (A) (A) (A) (A)
                 (A) (A) (A) (A) (A) (A) (A) (A) (A) (A) (A) (A)
                 (A) (A) (A) (A) (A) (A) (A) (A) (A) (A) (A) (A)
                 (A) (A) (A) (A) (A) (A) (A) (A) (A) (A) (A) (A)
                 (A) (A) (A) (A) (A) (A) (A) (A) (A) (A) (A) (A)
                 (A) (A) (A) (A) (A) (A) (A) (A) (A) (A) (A) (A)
                 (A) (A) (A) (A) (A) (A) (A) (A) (A) (A) (A) (A)
                 (A) (A) (A) (A) (A) (A) (A) (A) (A) (A) (A) (A)
                 (A) (A) (A) (A) (A) (A) (A) (A) (A) (A) (A) (A)
                 (A) (A) (A) (A) (A) (A) (A) (A) (A) (A) (A) (A)
                 (A) (A) (A) (A) (A) (A) (A) (A) (A) (A) (A) (A)
                 (A) (A) (A) (A) (A) (A) (A) (A) (A) (A)
 The electronic state of the initial guess is 2-A.
 Initial guess <Sx>= 0.0000 <Sy>= 0.0000 <Sz>= 0.5000 <S**2>= 0.7500 S= 0.5000
 Requested convergence on RMS density matrix=1.00D-08 within 128 cycles.
 Requested convergence on MAX density matrix=1.00D-06.
 Requested convergence on             energy=1.00D-06.
 No special actions if energy rises.
 SCF Done:  E(UM062X) =  -467.577690132     A.U. after   16 cycles
             Convg  =    0.1731D-08             -V/T =  2.0051
 <Sx>= 0.0000 <Sy>= 0.0000 <Sz>= 0.5000 <S**2>= 0.7546 S= 0.5023
 <L.S>= 0.000000000000E+00
 Annihilation of the first spin contaminant:
 S**2 before annihilation     0.7546,   after     0.7500

 **********************************************************************

            Population analysis using the SCF density.

 **********************************************************************

 Orbital symmetries:
 Alpha Orbitals:
       Occupied  (A) (A) (A) (A) (A) (A) (A) (A) (A) (A) (A) (A)
                 (A) (A) (A) (A) (A) (A) (A) (A) (A) (A) (A) (A)
                 (A) (A) (A) (A) (A) (A) (A) (A) (A) (A) (A) (A)
                 (A) (A) (A) (A) (A) (A) (A) (A)
       Virtual   (A) (A) (A) (A) (A) (A) (A) (A) (A) (A) (A) (A)
                 (A) (A) (A) (A) (A) (A) (A) (A) (A) (A) (A) (A)
                 (A) (A) (A) (A) (A) (A) (A) (A) (A) (A) (A) (A)
                 (A) (A) (A) (A) (A) (A) (A) (A) (A) (A) (A) (A)
                 (A) (A) (A) (A) (A) (A) (A) (A) (A) (A) (A) (A)
                 (A) (A) (A) (A) (A) (A) (A) (A) (A) (A) (A) (A)
                 (A) (A) (A) (A) (A) (A) (A) (A) (A) (A) (A) (A)
                 (A) (A) (A) (A) (A) (A) (A) (A) (A) (A) (A) (A)
                 (A) (A) (A) (A) (A) (A) (A) (A) (A) (A) (A) (A)
                 (A) (A) (A) (A) (A) (A) (A) (A) (A) (A) (A) (A)
                 (A) (A) (A) (A) (A) (A) (A) (A) (A) (A) (A) (A)
                 (A) (A) (A) (A) (A) (A) (A) (A) (A) (A) (A) (A)
                 (A) (A) (A) (A) (A) (A) (A) (A) (A) (A) (A) (A)
                 (A) (A) (A) (A) (A) (A) (A) (A) (A) (A) (A) (A)
                 (A) (A) (A) (A) (A) (A) (A) (A) (A) (A) (A) (A)
                 (A) (A) (A) (A) (A) (A) (A) (A) (A) (A) (A) (A)
                 (A) (A) (A) (A) (A) (A) (A) (A) (A) (A) (A) (A)
                 (A) (A) (A) (A) (A) (A) (A) (A) (A) (A) (A) (A)
                 (A) (A) (A) (A) (A) (A) (A) (A) (A) (A) (A) (A)
                 (A) (A) (A) (A) (A) (A) (A) (A) (A) (A) (A) (A)
                 (A) (A) (A) (A) (A) (A) (A) (A) (A) (A) (A) (A)
                 (A) (A) (A) (A) (A) (A) (A) (A) (A) (A) (A) (A)
                 (A) (A) (A) (A) (A) (A) (A) (A) (A) (A) (A) (A)
                 (A) (A) (A) (A) (A) (A) (A) (A) (A) (A) (A) (A)
                 (A) (A) (A) (A) (A) (A) (A) (A) (A) (A) (A) (A)
                 (A) (A) (A) (A) (A) (A) (A) (A) (A) (A) (A) (A)
                 (A) (A) (A) (A) (A) (A) (A) (A) (A) (A) (A) (A)
                 (A) (A) (A) (A) (A) (A) (A) (A) (A) (A) (A) (A)
                 (A) (A) (A) (A) (A) (A) (A) (A) (A) (A) (A) (A)
                 (A) (A) (A) (A) (A) (A) (A) (A) (A) (A) (A) (A)
                 (A) (A) (A) (A) (A) (A) (A) (A) (A) (A) (A) (A)
                 (A) (A) (A) (A) (A) (A) (A) (A) (A) (A) (A) (A)
                 (A) (A) (A) (A) (A) (A) (A) (A) (A) (A) (A) (A)
                 (A) (A) (A) (A) (A) (A) (A) (A) (A) (A) (A) (A)
                 (A) (A) (A) (A) (A) (A) (A) (A) (A) (A) (A) (A)
                 (A) (A) (A) (A) (A) (A) (A) (A) (A) (A) (A) (A)
                 (A) (A) (A) (A) (A) (A) (A) (A) (A) (A) (A) (A)
                 (A) (A) (A) (A) (A) (A) (A) (A) (A) (A) (A) (A)
                 (A) (A) (A) (A) (A) (A) (A) (A) (A) (A) (A) (A)
                 (A) (A) (A) (A) (A) (A) (A) (A) (A) (A) (A) (A)
                 (A) (A) (A) (A) (A) (A) (A) (A) (A) (A) (A) (A)
                 (A) (A) (A) (A) (A) (A) (A) (A) (A)
 Beta  Orbitals:
       Occupied  (A) (A) (A) (A) (A) (A) (A) (A) (A) (A) (A) (A)
                 (A) (A) (A) (A) (A) (A) (A) (A) (A) (A) (A) (A)
                 (A) (A) (A) (A) (A) (A) (A) (A) (A) (A) (A) (A)
                 (A) (A) (A) (A) (A) (A) (A)
       Virtual   (A) (A) (A) (A) (A) (A) (A) (A) (A) (A) (A) (A)
                 (A) (A) (A) (A) (A) (A) (A) (A) (A) (A) (A) (A)
                 (A) (A) (A) (A) (A) (A) (A) (A) (A) (A) (A) (A)
                 (A) (A) (A) (A) (A) (A) (A) (A) (A) (A) (A) (A)
                 (A) (A) (A) (A) (A) (A) (A) (A) (A) (A) (A) (A)
                 (A) (A) (A) (A) (A) (A) (A) (A) (A) (A) (A) (A)
                 (A) (A) (A) (A) (A) (A) (A) (A) (A) (A) (A) (A)
                 (A) (A) (A) (A) (A) (A) (A) (A) (A) (A) (A) (A)
                 (A) (A) (A) (A) (A) (A) (A) (A) (A) (A) (A) (A)
                 (A) (A) (A) (A) (A) (A) (A) (A) (A) (A) (A) (A)
                 (A) (A) (A) (A) (A) (A) (A) (A) (A) (A) (A) (A)
                 (A) (A) (A) (A) (A) (A) (A) (A) (A) (A) (A) (A)
                 (A) (A) (A) (A) (A) (A) (A) (A) (A) (A) (A) (A)
                 (A) (A) (A) (A) (A) (A) (A) (A) (A) (A) (A) (A)
                 (A) (A) (A) (A) (A) (A) (A) (A) (A) (A) (A) (A)
                 (A) (A) (A) (A) (A) (A) (A) (A) (A) (A) (A) (A)
                 (A) (A) (A) (A) (A) (A) (A) (A) (A) (A) (A) (A)
                 (A) (A) (A) (A) (A) (A) (A) (A) (A) (A) (A) (A)
                 (A) (A) (A) (A) (A) (A) (A) (A) (A) (A) (A) (A)
                 (A) (A) (A) (A) (A) (A) (A) (A) (A) (A) (A) (A)
                 (A) (A) (A) (A) (A) (A) (A) (A) (A) (A) (A) (A)
                 (A) (A) (A) (A) (A) (A) (A) (A) (A) (A) (A) (A)
                 (A) (A) (A) (A) (A) (A) (A) (A) (A) (A) (A) (A)
                 (A) (A) (A) (A) (A) (A) (A) (A) (A) (A) (A) (A)
                 (A) (A) (A) (A) (A) (A) (A) (A) (A) (A) (A) (A)
                 (A) (A) (A) (A) (A) (A) (A) (A) (A) (A) (A) (A)
                 (A) (A) (A) (A) (A) (A) (A) (A) (A) (A) (A) (A)
                 (A) (A) (A) (A) (A) (A) (A) (A) (A) (A) (A) (A)
                 (A) (A) (A) (A) (A) (A) (A) (A) (A) (A) (A) (A)
                 (A) (A) (A) (A) (A) (A) (A) (A) (A) (A) (A) (A)
                 (A) (A) (A) (A) (A) (A) (A) (A) (A) (A) (A) (A)
                 (A) (A) (A) (A) (A) (A) (A) (A) (A) (A) (A) (A)
                 (A) (A) (A) (A) (A) (A) (A) (A) (A) (A) (A) (A)
                 (A) (A) (A) (A) (A) (A) (A) (A) (A) (A) (A) (A)
                 (A) (A) (A) (A) (A) (A) (A) (A) (A) (A) (A) (A)
                 (A) (A) (A) (A) (A) (A) (A) (A) (A) (A) (A) (A)
                 (A) (A) (A) (A) (A) (A) (A) (A) (A) (A) (A) (A)
                 (A) (A) (A) (A) (A) (A) (A) (A) (A) (A) (A) (A)
                 (A) (A) (A) (A) (A) (A) (A) (A) (A) (A) (A) (A)
                 (A) (A) (A) (A) (A) (A) (A) (A) (A) (A) (A) (A)
                 (A) (A) (A) (A) (A) (A) (A) (A) (A) (A) (A) (A)
                 (A) (A) (A) (A) (A) (A) (A) (A) (A) (A)
 The electronic state is 2-A.
 Alpha  occ. eigenvalues --  -19.62310 -10.58986 -10.58406 -10.55769 -10.54053
 Alpha  occ. eigenvalues --  -10.53051 -10.52984 -10.52722 -10.52643 -10.52461
 Alpha  occ. eigenvalues --  -10.52212  -1.17270  -0.90639  -0.89848  -0.87762
 Alpha  occ. eigenvalues --   -0.83424  -0.78095  -0.73096  -0.67401  -0.67174
 Alpha  occ. eigenvalues --   -0.64895  -0.64028  -0.58564  -0.55545  -0.54038
 Alpha  occ. eigenvalues --   -0.51626  -0.50275  -0.49028  -0.48139  -0.46957
 Alpha  occ. eigenvalues --   -0.46677  -0.44559  -0.43419  -0.43303  -0.41534
 Alpha  occ. eigenvalues --   -0.40841  -0.40192  -0.38981  -0.38742  -0.38158
 Alpha  occ. eigenvalues --   -0.37729  -0.35386  -0.32207  -0.29226
 Alpha virt. eigenvalues --    0.01208   0.02194   0.02344   0.02737   0.03379
 Alpha virt. eigenvalues --    0.04100   0.04258   0.05309   0.05524   0.05817
 Alpha virt. eigenvalues --    0.06316   0.06563   0.07160   0.07687   0.08185
 Alpha virt. eigenvalues --    0.08924   0.09331   0.09647   0.09917   0.10490
 Alpha virt. eigenvalues --    0.11130   0.11354   0.12069   0.12824   0.13239
 Alpha virt. eigenvalues --    0.14216   0.14774   0.15109   0.15677   0.16501
 Alpha virt. eigenvalues --    0.16832   0.17233   0.17578   0.19069   0.19126
 Alpha virt. eigenvalues --    0.20092   0.20251   0.20514   0.21321   0.21596
 Alpha virt. eigenvalues --    0.21844   0.22245   0.22631   0.22988   0.23382
 Alpha virt. eigenvalues --    0.23630   0.24112   0.24495   0.24592   0.25184
 Alpha virt. eigenvalues --    0.26216   0.26922   0.27619   0.27893   0.28190
 Alpha virt. eigenvalues --    0.28977   0.29188   0.29847   0.30292   0.30840
 Alpha virt. eigenvalues --    0.31022   0.32128   0.32426   0.32638   0.33208
 Alpha virt. eigenvalues --    0.34049   0.35589   0.36280   0.36650   0.37932
 Alpha virt. eigenvalues --    0.38378   0.39252   0.41117   0.42123   0.42907
 Alpha virt. eigenvalues --    0.43889   0.44786   0.44939   0.45819   0.47462
 Alpha virt. eigenvalues --    0.48934   0.49106   0.50221   0.50751   0.51142
 Alpha virt. eigenvalues --    0.52608   0.52745   0.53276   0.54263   0.55224
 Alpha virt. eigenvalues --    0.55776   0.56880   0.57050   0.57740   0.58293
 Alpha virt. eigenvalues --    0.58926   0.59729   0.60556   0.61481   0.61707
 Alpha virt. eigenvalues --    0.61891   0.62984   0.63384   0.63910   0.64455
 Alpha virt. eigenvalues --    0.64696   0.65065   0.65374   0.65564   0.66707
 Alpha virt. eigenvalues --    0.67565   0.67694   0.68095   0.68475   0.68506
 Alpha virt. eigenvalues --    0.69220   0.69953   0.70554   0.70854   0.71771
 Alpha virt. eigenvalues --    0.72680   0.73938   0.74524   0.74978   0.77057
 Alpha virt. eigenvalues --    0.77890   0.79103   0.79666   0.80237   0.81423
 Alpha virt. eigenvalues --    0.84133   0.84580   0.86867   0.87615   0.88348
 Alpha virt. eigenvalues --    0.89580   0.90521   0.90826   0.91800   0.92457
 Alpha virt. eigenvalues --    0.93983   0.94251   0.95938   0.97002   0.98066
 Alpha virt. eigenvalues --    1.00485   1.01544   1.01817   1.03134   1.03975
 Alpha virt. eigenvalues --    1.04766   1.06383   1.07339   1.08303   1.09542
 Alpha virt. eigenvalues --    1.09803   1.11125   1.11380   1.12417   1.13450
 Alpha virt. eigenvalues --    1.14040   1.15431   1.15805   1.16486   1.17419
 Alpha virt. eigenvalues --    1.18751   1.19067   1.19257   1.20262   1.21039
 Alpha virt. eigenvalues --    1.22506   1.22854   1.24018   1.24921   1.25377
 Alpha virt. eigenvalues --    1.25804   1.26485   1.27284   1.27921   1.28502
 Alpha virt. eigenvalues --    1.29013   1.29598   1.30260   1.30778   1.31672
 Alpha virt. eigenvalues --    1.32380   1.33718   1.34217   1.35077   1.36283
 Alpha virt. eigenvalues --    1.37104   1.38136   1.39136   1.39667   1.40996
 Alpha virt. eigenvalues --    1.41963   1.43695   1.43876   1.44053   1.44874
 Alpha virt. eigenvalues --    1.45738   1.45806   1.46973   1.47868   1.48057
 Alpha virt. eigenvalues --    1.48483   1.49117   1.50476   1.51453   1.51678
 Alpha virt. eigenvalues --    1.52072   1.53041   1.53969   1.54617   1.55812
 Alpha virt. eigenvalues --    1.56687   1.57049   1.57678   1.58972   1.59848
 Alpha virt. eigenvalues --    1.61736   1.61874   1.62167   1.62633   1.63433
 Alpha virt. eigenvalues --    1.63681   1.64618   1.65133   1.65545   1.67288
 Alpha virt. eigenvalues --    1.67655   1.68375   1.70397   1.71066   1.72690
 Alpha virt. eigenvalues --    1.75336   1.76450   1.76876   1.77784   1.80104
 Alpha virt. eigenvalues --    1.81365   1.82205   1.84999   1.96296   2.14320
 Alpha virt. eigenvalues --    2.16043   2.20510   2.30102   2.40215   2.42394
 Alpha virt. eigenvalues --    2.45094   2.50076   2.50734   2.53128   2.56664
 Alpha virt. eigenvalues --    2.57545   2.59922   2.60470   2.63111   2.65569
 Alpha virt. eigenvalues --    2.66484   2.67781   2.69267   2.69513   2.72613
 Alpha virt. eigenvalues --    2.73881   2.74884   2.77030   2.77494   2.78912
 Alpha virt. eigenvalues --    2.80328   2.81405   2.82321   2.82800   2.83992
 Alpha virt. eigenvalues --    2.84367   2.85275   2.85910   2.86630   2.87587
 Alpha virt. eigenvalues --    2.89096   2.90153   2.91542   2.91993   2.93203
 Alpha virt. eigenvalues --    2.94338   2.94718   2.96542   2.98383   2.98614
 Alpha virt. eigenvalues --    2.99535   3.00708   3.01213   3.04477   3.05523
 Alpha virt. eigenvalues --    3.06895   3.08315   3.08992   3.10550   3.12718
 Alpha virt. eigenvalues --    3.14125   3.15250   3.16022   3.16375   3.17287
 Alpha virt. eigenvalues --    3.18391   3.19134   3.20810   3.21642   3.22764
 Alpha virt. eigenvalues --    3.24615   3.25822   3.27303   3.28817   3.29290
 Alpha virt. eigenvalues --    3.29620   3.30682   3.32115   3.33592   3.34499
 Alpha virt. eigenvalues --    3.35148   3.35624   3.37200   3.37704   3.38415
 Alpha virt. eigenvalues --    3.38569   3.39171   3.40967   3.41530   3.42874
 Alpha virt. eigenvalues --    3.44378   3.45169   3.47530   3.48604   3.49633
 Alpha virt. eigenvalues --    3.51203   3.53175   3.54146   3.55478   3.56210
 Alpha virt. eigenvalues --    3.57644   3.58990   3.59938   3.60693   3.61987
 Alpha virt. eigenvalues --    3.62301   3.63445   3.63703   3.66591   3.66875
 Alpha virt. eigenvalues --    3.67678   3.68661   3.69649   3.70351   3.71487
 Alpha virt. eigenvalues --    3.72532   3.74237   3.77242   3.77772   3.78017
 Alpha virt. eigenvalues --    3.79882   3.81485   3.81592   3.82683   3.82794
 Alpha virt. eigenvalues --    3.84158   3.85210   3.85901   3.87431   3.88804
 Alpha virt. eigenvalues --    3.88873   3.90431   3.91554   3.93791   3.94106
 Alpha virt. eigenvalues --    3.95272   3.96515   3.97142   3.97782   3.98617
 Alpha virt. eigenvalues --    3.99147   4.00909   4.01453   4.01784   4.02374
 Alpha virt. eigenvalues --    4.03922   4.05972   4.07441   4.09989   4.10599
 Alpha virt. eigenvalues --    4.11653   4.12917   4.13430   4.14602   4.15900
 Alpha virt. eigenvalues --    4.16535   4.17491   4.18149   4.18311   4.20272
 Alpha virt. eigenvalues --    4.20708   4.21332   4.22002   4.22803   4.23182
 Alpha virt. eigenvalues --    4.24267   4.25564   4.26377   4.29443   4.30810
 Alpha virt. eigenvalues --    4.31529   4.32315   4.33973   4.34865   4.37529
 Alpha virt. eigenvalues --    4.38922   4.39688   4.40200   4.40996   4.41764
 Alpha virt. eigenvalues --    4.42990   4.44981   4.46907   4.47777   4.48198
 Alpha virt. eigenvalues --    4.48990   4.50720   4.50817   4.51046   4.52843
 Alpha virt. eigenvalues --    4.53368   4.54424   4.55346   4.56076   4.56430
 Alpha virt. eigenvalues --    4.57267   4.58753   4.60458   4.62333   4.62611
 Alpha virt. eigenvalues --    4.64447   4.65589   4.66801   4.68252   4.71051
 Alpha virt. eigenvalues --    4.72312   4.74702   4.76805   4.78380   4.82729
 Alpha virt. eigenvalues --    4.86865   4.92888   5.04618   5.11385   5.18160
 Alpha virt. eigenvalues --    5.20279   5.26313   5.29945   5.37626   5.38472
 Alpha virt. eigenvalues --    5.38833   5.41729   5.43022   5.46360   5.46853
 Alpha virt. eigenvalues --    5.49542   5.50898   5.51367   5.51661   5.52461
 Alpha virt. eigenvalues --    5.53456   5.55664   5.57263   5.57599   5.58189
 Alpha virt. eigenvalues --    5.59009   5.60623   5.63206   5.63756   5.76037
 Alpha virt. eigenvalues --    5.90853   5.91228   6.13974   6.51840   6.79040
 Alpha virt. eigenvalues --    7.26627   7.37656   7.42396   7.73391   7.83892
 Alpha virt. eigenvalues --   24.15092  24.21072  24.29346  24.32188  24.35529
 Alpha virt. eigenvalues --   24.40399  24.43920  24.44050  24.48429  24.53908
 Alpha virt. eigenvalues --   50.28630
  Beta  occ. eigenvalues --  -19.62280 -10.58934 -10.58424 -10.54883 -10.54085
  Beta  occ. eigenvalues --  -10.53048 -10.52943 -10.52722 -10.52643 -10.52455
  Beta  occ. eigenvalues --  -10.52212  -1.17082  -0.90449  -0.88856  -0.87326
  Beta  occ. eigenvalues --   -0.83064  -0.77974  -0.72708  -0.67158  -0.66460
  Beta  occ. eigenvalues --   -0.64840  -0.62826  -0.58083  -0.55321  -0.53717
  Beta  occ. eigenvalues --   -0.51243  -0.49583  -0.48851  -0.47765  -0.46781
  Beta  occ. eigenvalues --   -0.46277  -0.44463  -0.43325  -0.42956  -0.41289
  Beta  occ. eigenvalues --   -0.40365  -0.39831  -0.38731  -0.38475  -0.38046
  Beta  occ. eigenvalues --   -0.37546  -0.34983  -0.31903
  Beta virt. eigenvalues --   -0.04630   0.01183   0.02191   0.02274   0.02985
  Beta virt. eigenvalues --    0.03387   0.04156   0.04252   0.05308   0.05556
  Beta virt. eigenvalues --    0.05923   0.06380   0.06492   0.07154   0.07903
  Beta virt. eigenvalues --    0.08121   0.08841   0.09233   0.09521   0.09732
  Beta virt. eigenvalues --    0.10379   0.11109   0.11316   0.12149   0.12734
  Beta virt. eigenvalues --    0.13310   0.14143   0.14689   0.15084   0.15595
  Beta virt. eigenvalues --    0.16363   0.16939   0.17017   0.17394   0.18955
  Beta virt. eigenvalues --    0.19265   0.19825   0.20356   0.20617   0.21133
  Beta virt. eigenvalues --    0.21548   0.21895   0.22322   0.22760   0.23142
  Beta virt. eigenvalues --    0.23487   0.23896   0.24215   0.24522   0.24713
  Beta virt. eigenvalues --    0.25077   0.26335   0.27061   0.27653   0.27989
  Beta virt. eigenvalues --    0.28325   0.28949   0.29433   0.29631   0.30384
  Beta virt. eigenvalues --    0.30837   0.31092   0.32247   0.32466   0.32792
  Beta virt. eigenvalues --    0.33270   0.33992   0.35515   0.36705   0.36910
  Beta virt. eigenvalues --    0.37673   0.38618   0.39195   0.41146   0.42107
  Beta virt. eigenvalues --    0.42906   0.43789   0.44829   0.45320   0.45911
  Beta virt. eigenvalues --    0.47507   0.48955   0.49158   0.50253   0.50861
  Beta virt. eigenvalues --    0.51236   0.52697   0.52833   0.53259   0.54170
  Beta virt. eigenvalues --    0.55221   0.55647   0.57021   0.57130   0.58052
  Beta virt. eigenvalues --    0.58348   0.59099   0.59776   0.60657   0.61180
  Beta virt. eigenvalues --    0.61769   0.62018   0.62957   0.63378   0.64007
  Beta virt. eigenvalues --    0.64517   0.64674   0.65117   0.65499   0.65716
  Beta virt. eigenvalues --    0.66647   0.67116   0.67680   0.67967   0.68168
  Beta virt. eigenvalues --    0.68480   0.69246   0.69871   0.70518   0.70941
  Beta virt. eigenvalues --    0.71730   0.72707   0.73916   0.74491   0.74637
  Beta virt. eigenvalues --    0.76709   0.78380   0.79196   0.79382   0.80156
  Beta virt. eigenvalues --    0.81303   0.84032   0.84499   0.86912   0.87559
  Beta virt. eigenvalues --    0.88288   0.89507   0.90514   0.90908   0.91764
  Beta virt. eigenvalues --    0.92376   0.93796   0.94328   0.95881   0.97007
  Beta virt. eigenvalues --    0.97602   1.00510   1.01552   1.01815   1.03206
  Beta virt. eigenvalues --    1.04052   1.04856   1.06452   1.07234   1.08392
  Beta virt. eigenvalues --    1.09725   1.09822   1.11125   1.11522   1.12489
  Beta virt. eigenvalues --    1.13463   1.14063   1.15449   1.15897   1.16435
  Beta virt. eigenvalues --    1.17399   1.18758   1.19092   1.19349   1.20395
  Beta virt. eigenvalues --    1.21086   1.22575   1.22907   1.24011   1.24908
  Beta virt. eigenvalues --    1.25266   1.25695   1.26518   1.27243   1.27887
  Beta virt. eigenvalues --    1.28413   1.28878   1.29701   1.30316   1.30999
  Beta virt. eigenvalues --    1.31773   1.32595   1.33795   1.34232   1.35293
  Beta virt. eigenvalues --    1.36589   1.37088   1.38354   1.39140   1.39747
  Beta virt. eigenvalues --    1.40955   1.42009   1.43702   1.43877   1.43945
  Beta virt. eigenvalues --    1.44921   1.45693   1.45796   1.46902   1.47888
  Beta virt. eigenvalues --    1.48055   1.48628   1.49231   1.50510   1.51540
  Beta virt. eigenvalues --    1.51796   1.52228   1.53067   1.54194   1.54807
  Beta virt. eigenvalues --    1.55916   1.56659   1.57022   1.57660   1.58991
  Beta virt. eigenvalues --    1.59850   1.61682   1.61890   1.62200   1.62604
  Beta virt. eigenvalues --    1.63463   1.63700   1.64843   1.65064   1.65636
  Beta virt. eigenvalues --    1.67374   1.67702   1.68280   1.70284   1.71042
  Beta virt. eigenvalues --    1.72697   1.75345   1.76523   1.77060   1.77800
  Beta virt. eigenvalues --    1.80085   1.81332   1.82210   1.85189   1.96534
  Beta virt. eigenvalues --    2.14492   2.16218   2.20816   2.30239   2.40301
  Beta virt. eigenvalues --    2.42455   2.45527   2.50189   2.50769   2.53774
  Beta virt. eigenvalues --    2.56848   2.57757   2.60043   2.60670   2.63340
  Beta virt. eigenvalues --    2.65755   2.66877   2.67833   2.69353   2.69746
  Beta virt. eigenvalues --    2.73264   2.74791   2.75226   2.77311   2.77825
  Beta virt. eigenvalues --    2.79546   2.81026   2.81618   2.82587   2.83085
  Beta virt. eigenvalues --    2.84364   2.84958   2.86327   2.86630   2.87273
  Beta virt. eigenvalues --    2.87970   2.89254   2.90376   2.92310   2.92955
  Beta virt. eigenvalues --    2.93788   2.94882   2.95298   2.97002   2.98475
  Beta virt. eigenvalues --    2.98659   2.99725   3.00993   3.01950   3.04695
  Beta virt. eigenvalues --    3.05805   3.07347   3.08695   3.09454   3.11088
  Beta virt. eigenvalues --    3.13002   3.14410   3.15555   3.16472   3.16939
  Beta virt. eigenvalues --    3.18001   3.18884   3.19785   3.21126   3.21987
  Beta virt. eigenvalues --    3.23260   3.24975   3.26095   3.27597   3.29315
  Beta virt. eigenvalues --    3.30057   3.30241   3.31025   3.32937   3.33811
  Beta virt. eigenvalues --    3.34829   3.35263   3.36165   3.37696   3.37889
  Beta virt. eigenvalues --    3.38653   3.38908   3.39457   3.41645   3.42206
  Beta virt. eigenvalues --    3.43207   3.45108   3.45432   3.48578   3.48977
  Beta virt. eigenvalues --    3.50636   3.52538   3.53643   3.55601   3.56278
  Beta virt. eigenvalues --    3.56564   3.58617   3.59176   3.60078   3.61416
  Beta virt. eigenvalues --    3.62281   3.63315   3.63916   3.64715   3.66819
  Beta virt. eigenvalues --    3.67134   3.67878   3.68886   3.69843   3.70436
  Beta virt. eigenvalues --    3.71611   3.73695   3.74478   3.77765   3.78265
  Beta virt. eigenvalues --    3.78798   3.80290   3.81561   3.82015   3.83211
  Beta virt. eigenvalues --    3.84156   3.84280   3.85306   3.86452   3.87551
  Beta virt. eigenvalues --    3.89234   3.89532   3.90587   3.91990   3.93909
  Beta virt. eigenvalues --    3.94797   3.95657   3.97066   3.97338   3.97864
  Beta virt. eigenvalues --    3.98882   3.99323   4.01252   4.01659   4.01996
  Beta virt. eigenvalues --    4.03136   4.04438   4.06418   4.07668   4.10146
  Beta virt. eigenvalues --    4.11330   4.11909   4.13059   4.13722   4.14911
  Beta virt. eigenvalues --    4.16113   4.16616   4.17814   4.18548   4.18730
  Beta virt. eigenvalues --    4.20620   4.20928   4.21754   4.22276   4.23060
  Beta virt. eigenvalues --    4.23404   4.24431   4.26253   4.26873   4.29806
  Beta virt. eigenvalues --    4.31148   4.31936   4.32665   4.34322   4.35203
  Beta virt. eigenvalues --    4.37936   4.39477   4.40041   4.40473   4.41535
  Beta virt. eigenvalues --    4.42274   4.43533   4.45393   4.47187   4.47894
  Beta virt. eigenvalues --    4.48351   4.49228   4.50809   4.50897   4.51230
  Beta virt. eigenvalues --    4.52928   4.54132   4.55185   4.55591   4.56195
  Beta virt. eigenvalues --    4.56906   4.57697   4.59071   4.61067   4.62747
  Beta virt. eigenvalues --    4.62905   4.64696   4.65769   4.67184   4.69259
  Beta virt. eigenvalues --    4.71406   4.72662   4.75011   4.77256   4.78866
  Beta virt. eigenvalues --    4.83260   4.87512   4.93457   5.05081   5.11792
  Beta virt. eigenvalues --    5.18585   5.21701   5.26909   5.30070   5.38011
  Beta virt. eigenvalues --    5.38840   5.38879   5.41816   5.43766   5.46947
  Beta virt. eigenvalues --    5.48830   5.50290   5.51030   5.51369   5.51868
  Beta virt. eigenvalues --    5.52796   5.53896   5.55736   5.57519   5.57596
  Beta virt. eigenvalues --    5.58182   5.59321   5.60733   5.63336   5.63844
  Beta virt. eigenvalues --    5.76228   5.90896   5.91281   6.14109   6.51851
  Beta virt. eigenvalues --    6.79027   7.26777   7.37781   7.42453   7.73510
  Beta virt. eigenvalues --    7.84025  24.15337  24.21572  24.29363  24.32349
  Beta virt. eigenvalues --   24.35539  24.40408  24.43967  24.44798  24.48470
  Beta virt. eigenvalues --   24.53964  50.28588
          Condensed to atoms (all electrons):
              1          2          3          4          5          6
     1  C    6.337194  -1.119828   0.207579  -0.050664   0.039626  -0.003509
     2  C   -1.119828   8.560298  -2.209396   0.836468  -0.113057  -0.087051
     3  C    0.207579  -2.209396   8.573611  -1.358746   0.129881  -0.011747
     4  C   -0.050664   0.836468  -1.358746   6.474213  -0.354198   0.227780
     5  C    0.039626  -0.113057   0.129881  -0.354198   6.138512  -0.292295
     6  C   -0.003509  -0.087051  -0.011747   0.227780  -0.292295   5.740353
     7  C   -0.540044   0.564944  -0.101920   0.110594  -0.024205   0.005587
     8  C    0.010713   0.250618  -0.037542  -0.001058  -0.000683  -0.001392
     9  C    0.001348   0.016735  -0.135941  -0.069824   0.157765  -0.004430
    10  C    0.637323  -1.268967   0.753060  -0.331635  -0.035658  -0.002276
    11  O    0.210696   0.024393  -0.112239   0.009670  -0.001423   0.003692
    12  H    0.517687   0.023470  -0.017134   0.000188   0.000229  -0.000058
    13  H    0.002935   0.468700  -0.014611  -0.024238  -0.001043   0.000486
    14  H   -0.013275   0.063720   0.384077  -0.031458  -0.004225   0.001571
    15  H   -0.000487  -0.088804   0.456309  -0.011471  -0.025765   0.002718
    16  H    0.000588  -0.013206  -0.026802   0.422433  -0.036176  -0.008218
    17  H   -0.002320   0.021896  -0.075052   0.492840  -0.063108  -0.014528
    18  H    0.000316   0.003507   0.009410  -0.065583   0.462021  -0.058298
    19  H   -0.000738   0.008586  -0.023895  -0.030450   0.459153  -0.062902
    20  H   -0.000019   0.000299  -0.000905  -0.025647  -0.017315   0.434962
    21  H    0.000051   0.000792   0.003830  -0.009987  -0.030088   0.433314
    22  H   -0.049888   0.042526  -0.032889   0.011684  -0.000241   0.000059
    23  H   -0.072383   0.032811   0.011930  -0.000245   0.000382  -0.000004
    24  H    0.044638  -0.016458   0.012407  -0.003486   0.001846  -0.000054
    25  H   -0.048375  -0.001337   0.002525   0.000717   0.000146   0.000028
    26  H   -0.048927  -0.001323   0.001431  -0.001217  -0.000101  -0.000012
    27  H   -0.000001  -0.000503  -0.000135  -0.005528  -0.028086   0.001534
    28  H    0.000002  -0.000507  -0.000174  -0.010716  -0.023849   0.000351
    29  H   -0.000005   0.000334   0.002557   0.011115   0.049030  -0.074770
    30  H   -0.014299  -0.040680   0.000862   0.020072   0.001060   0.000178
              7          8          9         10         11         12
     1  C   -0.540044   0.010713   0.001348   0.637323   0.210696   0.517687
     2  C    0.564944   0.250618   0.016735  -1.268967   0.024393   0.023470
     3  C   -0.101920  -0.037542  -0.135941   0.753060  -0.112239  -0.017134
     4  C    0.110594  -0.001058  -0.069824  -0.331635   0.009670   0.000188
     5  C   -0.024205  -0.000683   0.157765  -0.035658  -0.001423   0.000229
     6  C    0.005587  -0.001392  -0.004430  -0.002276   0.003692  -0.000058
     7  C    6.166115   0.048149  -0.000279  -0.681544  -0.012899  -0.053715
     8  C    0.048149   5.308083  -0.000106  -0.097771  -0.163762  -0.040962
     9  C   -0.000279  -0.000106   5.483696  -0.002715  -0.000147   0.000001
    10  C   -0.681544  -0.097771  -0.002715   6.950630   0.066621  -0.015551
    11  O   -0.012899  -0.163762  -0.000147   0.066621   8.257313  -0.073100
    12  H   -0.053715  -0.040962   0.000001  -0.015551  -0.073100   0.506933
    13  H    0.022937  -0.005873  -0.000200  -0.054177  -0.059979   0.002681
    14  H    0.023065  -0.005042   0.000344  -0.052254  -0.010306   0.000042
    15  H    0.005404  -0.000803   0.000408   0.016220   0.008282   0.000052
    16  H   -0.000991   0.000062   0.001691   0.006841  -0.001301  -0.000002
    17  H    0.000453  -0.000355   0.001317   0.000978  -0.003730  -0.000058
    18  H   -0.000859   0.000279  -0.005056   0.001596  -0.000235  -0.000001
    19  H    0.000680  -0.000063  -0.000521  -0.002051  -0.000254   0.000000
    20  H    0.000031  -0.000018  -0.038889  -0.000203  -0.000079   0.000000
    21  H   -0.000040   0.000013  -0.046511   0.000057   0.000036   0.000000
    22  H    0.473088   0.004842   0.000017  -0.090899  -0.008916   0.004111
    23  H    0.485644  -0.002857   0.000000  -0.081213   0.005681  -0.007124
    24  H   -0.034367   0.372535   0.000006   0.002286  -0.008622   0.004751
    25  H    0.041099   0.399401  -0.000002  -0.009247  -0.005342  -0.007007
    26  H   -0.010250   0.425871  -0.000001   0.006635   0.012486  -0.004533
    27  H    0.000003   0.000000   0.403081  -0.000017   0.000002   0.000000
    28  H   -0.000001   0.000000   0.405476  -0.000015   0.000000   0.000000
    29  H    0.000001   0.000000   0.393145   0.000009   0.000000   0.000000
    30  H   -0.013257  -0.000656   0.000013   0.397118   0.000984  -0.000526
             13         14         15         16         17         18
     1  C    0.002935  -0.013275  -0.000487   0.000588  -0.002320   0.000316
     2  C    0.468700   0.063720  -0.088804  -0.013206   0.021896   0.003507
     3  C   -0.014611   0.384077   0.456309  -0.026802  -0.075052   0.009410
     4  C   -0.024238  -0.031458  -0.011471   0.422433   0.492840  -0.065583
     5  C   -0.001043  -0.004225  -0.025765  -0.036176  -0.063108   0.462021
     6  C    0.000486   0.001571   0.002718  -0.008218  -0.014528  -0.058298
     7  C    0.022937   0.023065   0.005404  -0.000991   0.000453  -0.000859
     8  C   -0.005873  -0.005042  -0.000803   0.000062  -0.000355   0.000279
     9  C   -0.000200   0.000344   0.000408   0.001691   0.001317  -0.005056
    10  C   -0.054177  -0.052254   0.016220   0.006841   0.000978   0.001596
    11  O   -0.059979  -0.010306   0.008282  -0.001301  -0.003730  -0.000235
    12  H    0.002681   0.000042   0.000052  -0.000002  -0.000058  -0.000001
    13  H    0.511227   0.003945  -0.001955   0.001191  -0.000583  -0.000055
    14  H    0.003945   0.489958  -0.027707   0.004355  -0.003874   0.000276
    15  H   -0.001955  -0.027707   0.496735  -0.005327   0.003762  -0.000115
    16  H    0.001191   0.004355  -0.005327   0.518039  -0.025478   0.004981
    17  H   -0.000583  -0.003874   0.003762  -0.025478   0.478930  -0.004794
    18  H   -0.000055   0.000276  -0.000115   0.004981  -0.004794   0.519318
    19  H   -0.000043   0.000063   0.001303  -0.005954   0.004677  -0.031262
    20  H   -0.000002   0.000029  -0.000032  -0.000276   0.001505  -0.006290
    21  H   -0.000020  -0.000051   0.000021   0.001106  -0.000302   0.005100
    22  H   -0.000509  -0.001514   0.000152  -0.000001  -0.000018   0.000008
    23  H    0.000054   0.000071  -0.000092   0.000003   0.000000   0.000000
    24  H    0.000064  -0.000447   0.000006  -0.000003   0.000056  -0.000016
    25  H   -0.000049   0.000000   0.000001   0.000002   0.000012   0.000000
    26  H    0.000033   0.000031  -0.000005   0.000000  -0.000005   0.000000
    27  H    0.000000  -0.000020   0.000001  -0.000034   0.000028   0.001710
    28  H    0.000000   0.000000  -0.000017   0.000032  -0.000023  -0.000559
    29  H    0.000000   0.000001   0.000001  -0.000013  -0.000017   0.000084
    30  H   -0.010866   0.000123   0.000079  -0.000023  -0.000025   0.000001
             19         20         21         22         23         24
     1  C   -0.000738  -0.000019   0.000051  -0.049888  -0.072383   0.044638
     2  C    0.008586   0.000299   0.000792   0.042526   0.032811  -0.016458
     3  C   -0.023895  -0.000905   0.003830  -0.032889   0.011930   0.012407
     4  C   -0.030450  -0.025647  -0.009987   0.011684  -0.000245  -0.003486
     5  C    0.459153  -0.017315  -0.030088  -0.000241   0.000382   0.001846
     6  C   -0.062902   0.434962   0.433314   0.000059  -0.000004  -0.000054
     7  C    0.000680   0.000031  -0.000040   0.473088   0.485644  -0.034367
     8  C   -0.000063  -0.000018   0.000013   0.004842  -0.002857   0.372535
     9  C   -0.000521  -0.038889  -0.046511   0.000017   0.000000   0.000006
    10  C   -0.002051  -0.000203   0.000057  -0.090899  -0.081213   0.002286
    11  O   -0.000254  -0.000079   0.000036  -0.008916   0.005681  -0.008622
    12  H    0.000000   0.000000   0.000000   0.004111  -0.007124   0.004751
    13  H   -0.000043  -0.000002  -0.000020  -0.000509   0.000054   0.000064
    14  H    0.000063   0.000029  -0.000051  -0.001514   0.000071  -0.000447
    15  H    0.001303  -0.000032   0.000021   0.000152  -0.000092   0.000006
    16  H   -0.005954  -0.000276   0.001106  -0.000001   0.000003  -0.000003
    17  H    0.004677   0.001505  -0.000302  -0.000018   0.000000   0.000056
    18  H   -0.031262  -0.006290   0.005100   0.000008   0.000000  -0.000016
    19  H    0.521073   0.005101  -0.006174  -0.000001   0.000000   0.000001
    20  H    0.005101   0.530486  -0.031109   0.000000   0.000000   0.000001
    21  H   -0.006174  -0.031109   0.533859   0.000000   0.000000   0.000000
    22  H   -0.000001   0.000000   0.000000   0.497911  -0.026402   0.000471
    23  H    0.000000   0.000000   0.000000  -0.026402   0.502245   0.000579
    24  H    0.000001   0.000001   0.000000   0.000471   0.000579   0.528620
    25  H    0.000000   0.000000   0.000000   0.000001  -0.000296  -0.023775
    26  H    0.000000   0.000000   0.000000  -0.002690   0.000254  -0.030427
    27  H   -0.000550  -0.007894   0.006094   0.000000   0.000000   0.000000
    28  H    0.001643   0.006043  -0.007857   0.000000   0.000000   0.000000
    29  H    0.000067  -0.004537  -0.004564   0.000000   0.000000   0.000000
    30  H    0.000000   0.000000   0.000000   0.004993  -0.011974  -0.000038
             25         26         27         28         29         30
     1  C   -0.048375  -0.048927  -0.000001   0.000002  -0.000005  -0.014299
     2  C   -0.001337  -0.001323  -0.000503  -0.000507   0.000334  -0.040680
     3  C    0.002525   0.001431  -0.000135  -0.000174   0.002557   0.000862
     4  C    0.000717  -0.001217  -0.005528  -0.010716   0.011115   0.020072
     5  C    0.000146  -0.000101  -0.028086  -0.023849   0.049030   0.001060
     6  C    0.000028  -0.000012   0.001534   0.000351  -0.074770   0.000178
     7  C    0.041099  -0.010250   0.000003  -0.000001   0.000001  -0.013257
     8  C    0.399401   0.425871   0.000000   0.000000   0.000000  -0.000656
     9  C   -0.000002  -0.000001   0.403081   0.405476   0.393145   0.000013
    10  C   -0.009247   0.006635  -0.000017  -0.000015   0.000009   0.397118
    11  O   -0.005342   0.012486   0.000002   0.000000   0.000000   0.000984
    12  H   -0.007007  -0.004533   0.000000   0.000000   0.000000  -0.000526
    13  H   -0.000049   0.000033   0.000000   0.000000   0.000000  -0.010866
    14  H    0.000000   0.000031  -0.000020   0.000000   0.000001   0.000123
    15  H    0.000001  -0.000005   0.000001  -0.000017   0.000001   0.000079
    16  H    0.000002   0.000000  -0.000034   0.000032  -0.000013  -0.000023
    17  H    0.000012  -0.000005   0.000028  -0.000023  -0.000017  -0.000025
    18  H    0.000000   0.000000   0.001710  -0.000559   0.000084   0.000001
    19  H    0.000000   0.000000  -0.000550   0.001643   0.000067   0.000000
    20  H    0.000000   0.000000  -0.007894   0.006043  -0.004537   0.000000
    21  H    0.000000   0.000000   0.006094  -0.007857  -0.004564   0.000000
    22  H    0.000001  -0.002690   0.000000   0.000000   0.000000   0.004993
    23  H   -0.000296   0.000254   0.000000   0.000000   0.000000  -0.011974
    24  H   -0.023775  -0.030427   0.000000   0.000000   0.000000  -0.000038
    25  H    0.526793  -0.022327   0.000000   0.000000   0.000000   0.000048
    26  H   -0.022327   0.537658   0.000000   0.000000   0.000000  -0.000046
    27  H    0.000000   0.000000   0.556655  -0.034404  -0.024357   0.000000
    28  H    0.000000   0.000000  -0.034404   0.556818  -0.024363   0.000000
    29  H    0.000000   0.000000  -0.024357  -0.024363   0.538679   0.000000
    30  H    0.000048  -0.000046   0.000000   0.000000   0.000000   0.501372
 Mulliken atomic charges:
              1
     1  C   -0.045936
     2  C    0.041020
     3  C   -0.390340
     4  C   -0.231623
     5  C   -0.388137
     6  C   -0.231071
     7  C   -0.473424
     8  C   -0.461621
     9  C   -0.560420
    10  C   -0.113180
    11  O   -0.137523
    12  H    0.159626
    13  H    0.159949
    14  H    0.178501
    15  H    0.171125
    16  H    0.162481
    17  H    0.187817
    18  H    0.164516
    19  H    0.162508
    20  H    0.154756
    21  H    0.152428
    22  H    0.174104
    23  H    0.162938
    24  H    0.149425
    25  H    0.146982
    26  H    0.137466
    27  H    0.132423
    28  H    0.132122
    29  H    0.137602
    30  H    0.165487
 Sum of Mulliken atomic charges =   0.00000
 Mulliken charges with hydrogens summed into heavy atoms:
              1
     1  C    0.113690
     2  C    0.200969
     3  C   -0.040714
     4  C    0.118674
     5  C   -0.061112
     6  C    0.076113
     7  C   -0.136383
     8  C   -0.027748
     9  C   -0.158273
    10  C    0.052307
    11  O   -0.137523
 Sum of Mulliken charges with hydrogens summed into heavy atoms =   0.00000
          Atomic-Atomic Spin Densities.
              1          2          3          4          5          6
     1  C    0.080624  -0.026939   0.001221  -0.002141  -0.002452   0.000442
     2  C   -0.026939  -0.020686   0.099055  -0.016882   0.031715   0.000146
     3  C    0.001221   0.099055   0.088507  -0.110598  -0.048563  -0.004843
     4  C   -0.002141  -0.016882  -0.110598   0.146873  -0.003439   0.007055
     5  C   -0.002452   0.031715  -0.048563  -0.003439   0.041610  -0.000692
     6  C    0.000442   0.000146  -0.004843   0.007055  -0.000692   0.003249
     7  C   -0.008681   0.041959  -0.011196   0.025770  -0.000312   0.000179
     8  C   -0.014052   0.016762  -0.009839   0.002875   0.000921  -0.000021
     9  C    0.000123  -0.000701  -0.007889   0.003744  -0.000754  -0.004301
    10  C    0.034852  -0.177592   0.073449  -0.076828  -0.011824  -0.000053
    11  O   -0.003598   0.007112  -0.009649   0.002335  -0.004050  -0.000368
    12  H    0.006088  -0.003944   0.002296  -0.000264   0.000013  -0.000008
    13  H    0.002406  -0.001709   0.010354  -0.012504   0.001941  -0.000361
    14  H    0.002947  -0.001294   0.000757  -0.007206   0.003137  -0.000131
    15  H   -0.002883   0.023011  -0.017416   0.023738  -0.013194  -0.000609
    16  H    0.000405   0.001075   0.001514  -0.001986  -0.000613  -0.000412
    17  H   -0.001040   0.004351  -0.004754   0.009449  -0.005282  -0.000825
    18  H    0.000040  -0.000158  -0.000628   0.001887  -0.001244  -0.000337
    19  H   -0.000007   0.000213  -0.000261   0.001781  -0.001670  -0.000229
    20  H    0.000005   0.000008  -0.000140  -0.000231   0.000114   0.000225
    21  H   -0.000001  -0.000032  -0.000200   0.000314  -0.000219  -0.000062
    22  H    0.005348  -0.010740   0.001330   0.004335  -0.000203   0.000061
    23  H   -0.000649   0.002327   0.001033  -0.000727   0.000057  -0.000004
    24  H    0.001986  -0.000245   0.001070  -0.000594   0.000005  -0.000012
    25  H   -0.000708   0.001113   0.000243  -0.000560   0.000013  -0.000019
    26  H   -0.000244  -0.000218   0.000178  -0.000026   0.000008   0.000001
[...]
 1450,0.00002408,0.00001698,-0.00001699,0.00001356,0.00001861,0.0000102
 1,-0.00003398,0.00000385,0.00000928,0.00001389,-0.00000162,-0.00000742
 ,0.00000124,0.00000566,0.00000096,-0.00000644,0.00000587,-0.00000421,0
 .00000496,0.00000377,-0.00001827,0.00044699,-0.00042414,-0.00003439,0.
 00007328,0.00026458,0.08256480,0.28309880,-0.01007332,-0.02860980,-0.0
 1245005,-0.00014057,0.00006821,0.00016872,-0.00002191,0.00000965,-0.00
 002845,-0.00000236,-0.00000081,0.00002227,-0.00000090,0.00000453,-0.00
 000872,-0.00000372,-0.00000248,0.00000648,-0.00055702,-0.00162091,0.00
 147486,-0.02556177,-0.07248531,-0.07231762,-0.00000085,0.00000212,-0.0
 0000262,0.00015089,0.00038910,0.00019130,-0.00107956,0.00169245,0.0020
 2422,0.00336806,-0.00088412,-0.00429389,-0.00019723,0.00005750,0.00014
 483,0.00004667,0.00002726,0.00000474,0.00000328,0.00001304,-0.00001073
 ,-0.00000672,0.00000700,-0.00000556,-0.00000129,0.00000299,-0.00000615
 ,0.00000135,-0.00000037,0.00000416,0.00000383,0.00000012,-0.00000154,-
 0.00000012,0.00000216,-0.00000321,-0.00000012,0.00000048,-0.00000172,-
 0.00016950,0.00099942,-0.00033678,0.00006948,0.00008140,0.00016998,0.0
 2682936,0.08320773,0.07969470,0.00207929,-0.01268864,0.01206518,-0.000
 05198,-0.00014470,0.00036219,0.00000357,0.00000440,-0.00007320,-0.0000
 3185,-0.00000513,0.00006042,-0.00000782,-0.00000141,-0.00002650,-0.000
 00726,0.00000519,0.00000906,-0.00099656,0.00111820,0.00208308,-0.05609
 551,0.03522676,-0.03727190,-0.00000073,-0.00000365,-0.00000274,0.00008
 618,-0.00034842,0.00072897,0.00177336,-0.00006325,-0.00104267,0.000286
 70,0.00004551,-0.00086983,0.00001944,-0.00001915,-0.00010008,0.0000000
 5,-0.00000284,0.00001658,0.00003971,0.00001383,-0.00001879,-0.00000103
 ,0.00000245,-0.00000682,-0.00003282,-0.00000294,-0.00002735,-0.0000004
 2,0.00000072,0.00000533,0.00001639,0.00000542,-0.00000568,-0.00000267,
 0.00000005,-0.00000948,-0.00000043,-0.00000036,-0.00000072,-0.00015819
 ,0.00019255,-0.00004467,-0.00003049,-0.00007596,0.00052537,0.00135463,
 -0.00693388,0.00841488,0.05648719,-0.00237540,0.00641989,-0.00772964,-
 0.00022292,-0.00000172,-0.00001499,0.00001379,-0.00002198,0.00001946,-
 0.00001505,-0.00000723,0.00005651,0.00000024,0.00000793,-0.00001803,-0
 .00000890,-0.00000421,0.00001528,0.00166802,0.00001200,-0.00117808,0.0
 3471997,-0.17284096,0.12991841,-0.00000115,0.00000229,-0.00000588,0.00
 005905,0.00052932,-0.00048642,-0.00084828,0.00000598,0.00038584,-0.000
 67231,0.00073490,0.00047660,0.00000229,0.00001123,-0.00000606,0.000007
 30,0.00000250,0.00000591,-0.00001776,0.00000181,-0.00001144,0.00000446
 ,0.00000108,-0.00001392,-0.00001198,0.00000935,-0.00000687,-0.00000208
 ,-0.00000444,0.00000533,0.00000809,0.00000192,-0.00000486,-0.00000042,
 0.00000306,-0.00000841,0.00000124,-0.00000081,-0.00000291,-0.00003877,
 0.00050263,-0.00005784,-0.00003494,0.00000402,0.00025739,0.00645106,-0
 .01810695,0.02063835,-0.03867059,0.18327664,-0.00686641,0.02127118,-0.
 02141038,0.00004622,0.00013141,-0.00055094,0.00001499,-0.00010041,0.00
 010447,0.00004464,0.00005418,-0.00003770,0.00000818,-0.00003161,0.0000
 3215,0.00001062,0.00001477,-0.00000921,0.00384785,-0.00288092,-0.00250
 655,-0.03562629,0.12834885,-0.18172980,0.00000375,-0.00000658,0.000007
 10,-0.00048349,0.00100292,-0.00129160,-0.00123062,-0.00052485,0.002280
 38,-0.00055479,-0.00030711,0.00097774,0.00003784,-0.00003684,0.0000775
 3,-0.00000522,-0.00000045,-0.00001180,-0.00004361,-0.00001011,0.000013
 85,0.00001006,-0.00000799,-0.00000623,0.00002065,0.00001069,0.00002277
 ,-0.00000172,-0.00000165,-0.00000314,-0.00001004,-0.00000219,0.0000026
 4,0.00000005,0.00000126,0.00000754,0.00000236,-0.00000274,-0.00000257,
 0.00001765,-0.00021943,0.00025959,-0.00010382,0.00008931,-0.00022583,0
 .00268731,-0.00750092,0.00826720,0.03808801,-0.14098673,0.19891867,-0.
 01401744,-0.00112052,-0.00656744,0.00007283,0.00057754,-0.00130329,-0.
 00003765,-0.00002268,0.00028562,0.00004144,-0.00002951,-0.00000815,0.0
 0000858,0.00002567,0.00000432,-0.00000212,-0.00002032,0.00000572,0.000
 83231,-0.00010221,-0.00038843,-0.30618110,0.00948247,-0.04199033,-0.00
 000208,0.00001150,-0.00000664,-0.00022586,0.00015143,0.00004549,-0.001
 64626,0.00069565,0.00466948,0.00045594,0.00044479,0.00027543,-0.000123
 16,0.00002048,0.00033149,0.00000899,0.00000762,-0.00004021,-0.00011757
 ,-0.00004525,-0.00001288,-0.00000074,0.00000528,0.00000814,0.00003474,
 -0.00000812,0.00002456,0.00000165,-0.00000133,-0.00000381,-0.00001157,
 -0.00000300,0.00000436,0.00000177,-0.00000011,0.00000261,-0.00000049,0
 .00000233,0.00000056,-0.00017711,-0.00022644,0.00017184,-0.00000230,-0
 .00010988,0.00049695,-0.00797467,0.00101902,-0.00101887,-0.00447559,-0
 .00014910,-0.00048977,0.33341790,0.00743346,-0.00208596,0.00324812,0.0
 0037053,0.00050760,0.00035923,0.00005863,-0.00005987,-0.00022725,-0.00
 000322,0.00002892,-0.00000577,0.00000170,-0.00001828,0.00000018,0.0000
 0344,0.00000809,-0.00000013,-0.00008711,0.00030475,0.00008009,0.008838
 13,-0.04722837,0.00079057,0.00000091,-0.00000374,0.00000172,0.00011264
 ,-0.00018342,-0.00009092,0.00100925,0.00059246,-0.00198190,-0.00031219
 ,-0.00019248,0.00035358,-0.00002822,-0.00005509,0.00006433,-0.00000153
 ,0.00002453,-0.00000425,0.00006473,0.00004672,0.00001357,-0.00000438,0
 .00000236,0.00000413,-0.00000830,-0.00001916,0.00000162,0.00000380,0.0
 0000588,0.00000036,-0.00000063,0.00000270,0.00000198,-0.00000013,-0.00
 000262,0.00000066,-0.00000138,0.00000062,0.00000021,-0.00013569,-0.000
 18525,-0.00017038,-0.00006590,0.00014734,0.00000788,-0.02900017,0.0028
 9205,-0.00358538,0.02230674,-0.00053897,0.00182346,-0.01053944,0.04599
 199,0.02667734,0.00111915,0.00847489,0.00137724,-0.00049278,0.00117074
 ,0.00011302,-0.00006515,-0.00052822,-0.00003057,0.00003941,-0.00005774
 ,0.00000496,-0.00002364,0.00001107,0.00000883,0.00001198,-0.00001183,-
 0.00050308,0.00012383,0.00090666,-0.04407260,0.00092093,-0.05520834,0.
 00000229,-0.00000597,0.00000758,-0.00006875,-0.00024365,0.00045261,0.0
 0453391,-0.00118633,-0.00629888,-0.00092983,-0.00035034,0.00080439,0.0
 0014198,-0.00002285,-0.00026922,-0.00001618,0.00001655,0.00002307,0.00
 017074,0.00008407,0.00002748,-0.00000500,-0.00000006,0.00000359,-0.000
 00530,-0.00000664,-0.00000138,0.00000385,0.00000719,-0.00000143,-0.000
 00643,-0.00000073,0.00000700,0.00000107,-0.00000271,0.00000825,-0.0000
 0106,0.00000024,0.00000061,-0.00014445,0.00024937,0.00009188,-0.000113
 66,0.00003793,-0.00027839,-0.00949062,0.00155010,-0.00270641,-0.022960
 67,-0.00114560,-0.00310034,0.04546841,-0.00065906,0.05647329,-0.000011
 72,-0.00000384,-0.00000310,0.00001416,-0.00002385,0.00002292,0.0000267
 0,0.00014336,0.00005912,-0.00013279,-0.00010857,0.00007460,0.00194954,
 -0.00123434,0.00035713,0.00271576,-0.02915612,-0.01327526,0.00000196,-
 0.00000332,0.00000164,0.00000120,-0.00000255,-0.00000036,-0.04973207,0
 .02838810,0.01221222,0.00000564,0.00000776,-0.00000470,0.00001424,0.00
 001029,0.00000546,0.00000264,0.00000260,0.00000233,0.00000593,0.000005
 02,0.00000464,-0.00004350,0.00003557,-0.00003622,-0.00000277,-0.000000
 30,-0.00000057,0.00004860,0.00024933,0.00010312,0.00000666,-0.00003150
 ,0.00001189,-0.00021248,0.00071562,0.00007821,-0.00003422,0.00015006,-
 0.00003226,0.00149554,0.00066997,0.00044920,-0.00559311,-0.00268834,-0
 .00107743,-0.00000058,0.00000048,-0.00000103,0.00000230,0.00000052,0.0
 0000051,-0.00000186,0.00000235,-0.00000041,-0.00000082,-0.00000090,-0.
 00000077,0.00000158,0.00000063,0.00000075,0.05453991,0.00004418,-0.000
 00396,-0.00000260,0.00003148,0.00000920,-0.00003871,-0.00005480,-0.000
 00507,0.00001656,-0.00010328,0.00039938,0.00016858,0.00086197,0.000721
 52,0.00047841,0.00105465,-0.01420527,-0.00561579,-0.00000622,0.0000036
 8,-0.00000687,-0.00000549,-0.00000398,-0.00000018,0.02773959,-0.266718
 05,-0.09337354,-0.00000642,-0.00000956,0.00000931,-0.00006520,0.000014
 95,0.00002248,-0.00000415,-0.00000023,0.00000032,0.00000172,0.00000584
 ,0.00000751,-0.00002766,0.00001517,-0.00001646,0.00000298,-0.00000249,
 -0.00000352,0.00023516,0.00007265,0.00010402,-0.00000941,-0.00004491,-
 0.00000087,-0.00053908,0.00060478,-0.00045723,-0.00009681,-0.00003415,
 0.00001843,0.00010595,0.00026133,0.00043541,-0.00307532,0.00015643,0.0
 0024201,-0.00000474,0.00000389,0.00000396,-0.00000580,0.00000017,-0.00
 000055,0.00000095,0.00000342,-0.00000107,0.00000162,-0.00000207,-0.000
 00028,-0.00000319,0.00000136,0.00000174,-0.02749173,0.29016419,-0.0000
 0922,-0.00000462,0.00000188,-0.00001714,-0.00000325,0.00000702,-0.0000
 1591,-0.00000294,-0.00000840,-0.00018193,0.00020129,0.00000664,0.00059
 571,-0.00063251,-0.00004623,0.00022156,-0.00286826,-0.00186649,0.00000
 033,-0.00000222,-0.00000137,0.00000080,-0.00000188,0.00000026,0.011931
 22,-0.09328384,-0.08833101,0.00000059,0.00000904,-0.00000046,0.0000160
 7,0.00001103,-0.00000922,0.00000197,0.00000245,0.00000083,0.00000772,0
 .00000640,0.00000044,-0.00002663,0.00001611,0.00000364,-0.00000298,-0.
 00000719,-0.00000838,0.00009641,0.00010311,0.00002344,0.00004140,0.000
 00881,-0.00001574,-0.00044053,0.00018056,0.00002959,0.00002361,-0.0000
 8851,-0.00007143,-0.00032885,0.00052451,0.00030317,-0.00076019,0.00000
 093,0.00101218,-0.00000128,-0.00000002,0.00000043,0.00000120,0.0000004
 4,-0.00000004,-0.00000008,-0.00000015,0.00000125,0.00000067,0.00000187
 ,-0.00000138,0.00000054,-0.00000018,-0.00000083,-0.01230758,0.10354860
 ,0.09076692,0.00000491,-0.00000311,0.00000440,-0.00001049,-0.00001399,
 0.00002556,0.00005878,0.00001505,-0.00009217,-0.00001694,-0.00010701,-
 0.00030448,0.00149999,-0.00001359,0.00188742,-0.01590633,-0.00249619,0
 .02722966,-0.00000192,0.00000020,-0.00000296,0.00000030,-0.00000052,0.
 00000251,-0.10380480,-0.00924679,0.10778944,-0.00000242,0.00000530,-0.
 00000169,0.00001407,0.00001096,-0.00003121,0.00000037,-0.00000039,-0.0
 0000039,0.00000044,-0.00000172,-0.00000052,-0.00000645,0.00000260,0.00
 000433,-0.00004601,0.00002256,-0.00005845,0.00000134,-0.00001299,0.000
 04106,0.00029382,0.00009686,-0.00013462,-0.00007623,0.00004762,-0.0000
 5493,-0.00021262,0.00027220,-0.00098865,-0.00507521,-0.00288950,-0.001
 62940,0.00145074,0.00024646,-0.00032457,0.00000079,-0.00000044,0.00000
 047,0.00000051,0.00000055,-0.00000087,0.00000158,-0.00000215,0.0000012
 3,0.00000326,0.00000299,-0.00000257,-0.00000125,-0.00000023,-0.0000025
 4,-0.00245680,-0.00017751,0.00273881,0.11466909,0.00002476,0.00000279,
 0.00000209,0.00001755,0.00001191,0.00001043,0.00003984,-0.00000698,-0.
 00005485,0.00009093,-0.00006055,0.00002482,0.00084901,0.00010186,-0.00
 007465,-0.00810621,-0.00206409,0.01426189,-0.00000200,0.00000232,-0.00
 000240,-0.00000274,-0.00000144,0.00000082,-0.00911703,-0.04938084,0.01
 905867,-0.00000328,-0.00000895,0.00000086,-0.00003416,-0.00000199,-0.0
 0000318,-0.00000348,-0.00000306,-0.00000115,-0.00000282,-0.00000599,0.
 00000021,0.00000611,-0.00000159,-0.00000381,-0.00001558,0.00001920,-0.
 00000578,-0.00002917,-0.00005154,0.00000426,0.00009536,-0.00001493,-0.
 00002117,0.00000990,-0.00001563,-0.00014236,0.00008592,0.00038513,-0.0
 0026626,-0.00314413,-0.00064015,-0.00067259,0.00069435,0.00019270,0.00
 049016,-0.00000055,0.00000078,0.00000108,-0.00000298,0.00000027,-0.000
 00079,0.00000108,-0.00000049,-0.00000042,0.00000204,0.00000038,0.00000
 009,-0.00000227,0.00000079,-0.00000026,0.01419524,0.00374081,-0.027093
 35,0.01369020,0.04964217,-0.00003403,-0.00000104,-0.00000835,0.0000004
 3,-0.00002978,0.00002545,0.00008737,0.00005257,-0.00003679,-0.00016843
 ,-0.00012915,0.00038211,-0.00024013,-0.00027502,0.00105255,-0.00250506
 ,0.00016052,0.00439327,0.00000538,-0.00000655,0.00000735,0.00000328,-0
 .00000034,-0.00000131,0.10844319,0.01919029,-0.25037078,0.00001167,0.0
 0001292,-0.00000733,0.00003957,-0.00000265,0.00001091,0.00000383,0.000
 00398,0.00000295,-0.00000136,0.00000210,-0.00000208,0.00000158,-0.0000
 0379,-0.00000374,-0.00000317,0.00001120,0.00000217,0.00001638,0.000007
 18,-0.00000964,-0.00012964,-0.00001213,-0.00014252,0.00005509,0.000094
 12,-0.00006300,0.00048012,-0.00023402,0.00020891,-0.00153211,-0.000156
 01,0.00124492,0.00053080,0.00045566,0.00049296,0.00000170,-0.00000112,
 -0.00000388,0.00000529,0.00000022,0.00000038,-0.00000243,0.00000267,-0
 .00000103,-0.00000311,-0.00000234,0.00000041,0.00000383,-0.00000013,0.
 00000107,0.00476670,0.00149354,-0.01066076,-0.11898485,-0.02118976,0.2
 7031141,0.00014290,0.00001547,0.00000081,0.00001480,0.00023155,-0.0002
 4148,-0.00056657,-0.00054651,0.00006022,-0.00038763,0.00148599,-0.0013
 8177,-0.00483350,-0.00475355,0.00073572,-0.01593771,0.01772276,-0.0181
 2863,-0.00002809,0.00002811,-0.00002532,-0.00001674,-0.00000010,-0.000
 00350,-0.13375250,0.08249986,-0.09367444,-0.00006318,-0.00007892,0.000
 04610,-0.00019587,-0.00001127,0.00005171,-0.00001979,-0.00001355,-0.00
 000858,0.00000633,-0.00000533,0.00001146,0.00000612,0.00002019,0.00001
 847,0.00002976,-0.00001399,-0.00001340,-0.00000254,-0.00007980,-0.0000
 6556,0.00002251,0.00004507,0.00008208,0.00020283,-0.00016136,0.0002870
 3,0.00019391,-0.00009252,-0.00017087,0.00086342,0.00062176,0.00069490,
 0.00118873,-0.00021244,-0.00002524,-0.00001250,0.00000519,0.00001190,-
 0.00002453,0.00000007,0.00000022,0.00000556,0.00000039,-0.00000149,0.0
 0000415,-0.00000326,0.00000535,-0.00001200,0.00000259,0.00000412,-0.00
 260920,0.00159779,-0.00158559,0.00961901,-0.00933638,0.00914693,0.1461
 6542,-0.00000854,0.00000276,-0.00000054,-0.00005202,0.00005929,-0.0000
 7422,-0.00026095,-0.00018173,-0.00001066,-0.00061150,0.00079070,-0.000
 38329,-0.00231100,-0.00138565,0.00000132,-0.00935196,0.00910255,-0.011
 21434,-0.00000288,0.00000277,-0.00000268,0.00000013,-0.00000192,-0.000
 00089,0.08335560,-0.12619373,0.08929348,-0.00001596,-0.00001188,0.0000
 0870,0.00001627,0.00000088,0.00000349,0.00000096,0.00000044,-0.0000001
 7,0.00000443,-0.00000253,-0.00000107,-0.00000439,-0.00000036,0.0000156
 8,0.00001102,-0.00001120,-0.00000258,0.00011682,0.00002538,-0.00000516
 ,0.00001524,0.00001351,0.00001752,-0.00031822,0.00035802,0.00005966,0.
 00001758,-0.00017164,-0.00000640,0.00087886,0.00042525,0.00021374,0.00
 078114,0.00057745,-0.00013501,-0.00000333,0.00000043,0.00000119,-0.000
 00120,0.00000067,0.00000102,-0.00000118,0.00000014,0.00000028,-0.00000
 097,0.00000065,0.00000021,0.00000131,0.00000018,0.00000078,0.01616989,
 -0.01514814,0.01937705,0.00055269,-0.00184593,0.00055830,-0.08897627,0
 .13359559,0.00007043,0.00000724,0.00000288,0.00004314,0.00006655,-0.00
 005211,-0.00008337,-0.00013021,0.00003028,-0.00005523,0.00055487,0.000
 24339,-0.00077726,-0.00108423,0.00059503,-0.00040477,0.00114737,-0.002
 43901,-0.00001009,0.00001026,-0.00001028,-0.00000729,-0.00000035,-0.00
 000077,-0.09423032,0.08899411,-0.14891903,-0.00001730,-0.00002886,0.00
 001261,-0.00009858,-0.00000535,0.00001179,-0.00000983,-0.00000714,-0.0
 0000442,-0.00000048,-0.00000546,0.00000345,-0.00000066,0.00000584,0.00
 000092,0.00001190,0.00000729,-0.00000308,0.00004243,-0.00001708,-0.000
 02610,-0.00010107,-0.00004759,-0.00001491,-0.00004468,0.00024820,-0.00
 002043,0.00019031,-0.00017236,0.00052742,-0.00007384,-0.00035365,0.000
 46149,-0.00007979,-0.00012709,-0.00023519,-0.00000389,0.00000156,0.000
 00462,-0.00001069,0.00000019,-0.00000101,0.00000316,-0.00000098,-0.000
 00016,0.00000331,-0.00000010,0.00000210,-0.00000647,0.00000130,0.00000
 075,0.00858984,-0.00703290,0.00886740,-0.01710589,0.01567610,-0.016828
 09,0.10416651,-0.09771281,0.15778789,-0.00653123,0.00229164,0.00146321
 ,0.00849013,0.00165850,-0.01296280,0.00130768,-0.00000132,0.00024718,-
 0.00016565,-0.00005005,0.00023139,-0.00001955,0.00001051,-0.00004563,-
 0.00000736,-0.00000928,0.00000936,0.00209020,-0.01075489,0.01897598,0.
 00077077,-0.00134155,0.00112940,-0.00000048,0.00000449,-0.00000651,-0.
 06309389,-0.00589760,0.06532247,0.00033501,0.00292401,-0.00570175,0.00
 017211,-0.00017450,0.00015981,-0.00008962,0.00059282,0.00037429,-0.000
 08661,-0.00019929,-0.00007286,-0.00040024,0.00004225,0.00015993,0.0000
 3801,-0.00002911,-0.00000879,0.00009238,-0.00003033,0.00005903,-0.0000
 0871,-0.00000548,-0.00000377,-0.00001637,0.00000323,0.00000538,0.00000
 160,0.00000020,0.00000153,0.00000149,-0.00000110,-0.00000214,-0.000085
 65,0.00041748,0.00046070,0.00087576,-0.00018532,-0.00097827,-0.0000203
 2,0.00003658,-0.00005128,-0.00025976,0.00013529,0.00057358,0.00013121,
 -0.00001867,-0.00015777,-0.00000042,-0.00000125,-0.00000069,-0.0000015
 3,0.00000051,0.00000116,-0.00000312,-0.00000157,0.00000047,0.05648414,
 0.00270372,0.00001147,0.00096427,-0.00749116,-0.00058219,0.00803471,-0
 .00026978,0.00005453,0.00020979,0.00024611,-0.00009167,-0.00004253,0.0
 0000597,-0.00002497,0.00002338,0.00000677,0.00001543,-0.00000482,-0.00
 077163,0.00252526,-0.00649227,-0.00022271,0.00019287,-0.00006757,0.000
 00365,-0.00000627,0.00000689,-0.00528220,-0.05021653,0.10871618,0.0001
 9380,-0.00055467,0.00270872,-0.00018405,0.00004402,-0.00022726,0.00011
 589,-0.00029304,-0.00082014,-0.00008226,-0.00003336,-0.00016208,0.0002
 2404,0.00015861,-0.00012303,0.00002692,-0.00004297,0.00001645,-0.00005
 947,0.00003116,-0.00005696,-0.00000497,-0.00000854,-0.00001106,0.00000
 964,0.00000773,-0.00000345,-0.00000114,-0.00000015,0.00000037,0.000003
 38,-0.00000882,0.00000092,-0.00005122,-0.00047482,0.00024284,0.0002983
 5,0.00017772,0.00042799,0.00001696,-0.00002756,-0.00001315,0.00003639,
 0.00000178,-0.00012749,-0.00006173,0.00001486,0.00004249,-0.00000144,-
 0.00000088,-0.00000328,-0.00000011,0.00000306,-0.00000147,0.00000844,-
 0.00000192,0.00000527,0.01058383,0.04912986,-0.00069825,-0.00040972,-0
 .00069558,0.00727491,-0.00106240,-0.00471052,0.00067674,0.00005996,0.0
 0017447,-0.00025807,-0.00014819,0.00005770,-0.00002604,0.00001656,-0.0
 0002820,-0.00000924,-0.00000453,-0.00000346,-0.00380643,0.00250436,-0.
 00288734,-0.00001169,0.00048687,-0.00021073,-0.00000041,0.00000183,-0.
 00000149,0.06519307,0.10964592,-0.30224665,0.00079676,0.00204515,-0.00
 225823,0.00008741,0.00013757,-0.00000687,-0.00038727,0.00049737,-0.000
 25810,-0.00018234,-0.00006159,-0.00021227,-0.00049588,0.00001375,0.000
 19211,0.00006074,-0.00004984,0.00002848,0.00010427,-0.00004792,0.00011
 735,-0.00000565,-0.00000676,-0.00001443,-0.00002951,0.00000065,0.00000
 981,0.00000282,-0.00000179,0.00000951,0.00000335,-0.00000410,-0.000000
 06,0.00021522,-0.00009652,-0.00001567,0.00056242,-0.00011284,0.0002307
 9,-0.00002004,-0.00003003,-0.00000006,0.00010116,-0.00010082,-0.000086
 69,0.00003692,-0.00002762,-0.00000190,-0.00000056,-0.00000032,-0.00000
 337,-0.00000413,0.00000130,0.00000250,0.00000234,-0.00000259,0.0000025
 8,-0.06918262,-0.11324369,0.31281633\\-0.00000048,0.00000382,0.0000015
 1,-0.00000099,0.00000238,0.00000038,-0.00000014,0.00000059,0.00000021,
 -0.00000048,-0.00000129,-0.00000106,0.00000034,-0.00000307,-0.00000123
 ,-0.00000006,-0.00000497,-0.00000249,0.00000003,0.00000511,0.00000255,
 0.00000069,0.00000347,0.00000224,0.00000081,-0.00000672,-0.00000267,-0
 .00000057,0.00000421,0.00000162,-0.00000036,0.00000196,0.00000067,-0.0
 0000180,0.00000449,0.00000076,-0.00000236,0.00000252,-0.00000065,0.000
 00128,0.00000039,0.00000121,-0.00000053,0.00000095,0.00000003,-0.00000
 192,-0.00000109,-0.00000207,-0.00000012,-0.00000163,-0.00000088,0.0000
 0173,-0.00000330,-0.00000024,-0.00000007,-0.00000275,-0.00000141,0.000
 00035,-0.00000530,-0.00000234,-0.00000145,-0.00000475,-0.00000351,0.00
 000142,0.00000485,0.00000352,-0.00000059,0.00000666,0.00000280,0.00000
 200,0.00000274,0.00000296,0.00000027,0.00000251,0.00000146,0.00000063,
 0.00000486,0.00000290,0.00000220,-0.00000700,-0.00000168,0.00000038,-0
 .00000645,-0.00000287,0.00000052,-0.00000808,-0.00000357,-0.00000072,0
 .00000490,0.00000184\\\@


 TO BEHOLD HARMS OF OUR OWN HANDS DOING,
 WHERE NONE BESIDE US WROUGHT,
 CAUSES SHARP RUING...

                                         SOPHOCLES
 Job cpu time:  1 days 14 hours 16 minutes 32.6 seconds.
 File lengths (MBytes):  RWF=   2976 Int=      0 D2E=      0 Chk=     48 Scr=     32
 Normal termination of Gaussian 09 at Tue Jul 25 11:20:40 2017.
