 Entering Gaussian System, Link 0=/shared/apps/gaussian/G09_LINUX_LINDA/g09/g09
 Input=/gss_gpfs_scratch/harms.n/QMscratch/AQICCZMPYQHHFO-UHFFFAOYSA-u6.gjf
 Output=/gss_gpfs_scratch/harms.n/QMscratch/AQICCZMPYQHHFO-UHFFFAOYSA-u6.log
 Initial command:
 /shared/apps/gaussian/G09_LINUX_LINDA/g09/l1.exe /gss_gpfs_scratch/harms.n/comparerTST/Gau-45481.inp -scrdir=/gss_gpfs_scratch/harms.n/comparerTST/
 Entering Link 1 = /shared/apps/gaussian/G09_LINUX_LINDA/g09/l1.exe PID=     45494.
  
 Copyright (c) 1988,1990,1992,1993,1995,1998,2003,2009,2010,
            Gaussian, Inc.  All Rights Reserved.
  
 This is part of the Gaussian(R) 09 program.  It is based on
 the Gaussian(R) 03 system (copyright 2003, Gaussian, Inc.),
 the Gaussian(R) 98 system (copyright 1998, Gaussian, Inc.),
 the Gaussian(R) 94 system (copyright 1995, Gaussian, Inc.),
 the Gaussian 92(TM) system (copyright 1992, Gaussian, Inc.),
 the Gaussian 90(TM) system (copyright 1990, Gaussian, Inc.),
 the Gaussian 88(TM) system (copyright 1988, Gaussian, Inc.),
 the Gaussian 86(TM) system (copyright 1986, Carnegie Mellon
 University), and the Gaussian 82(TM) system (copyright 1983,
 Carnegie Mellon University). Gaussian is a federally registered
 trademark of Gaussian, Inc.
  
 This software contains proprietary and confidential information,
 including trade secrets, belonging to Gaussian, Inc.
  
 This software is provided under written license and may be
 used, copied, transmitted, or stored only in accord with that
 written license.
  
 The following legend is applicable only to US Government
 contracts under FAR:
  
                    RESTRICTED RIGHTS LEGEND
  
 Use, reproduction and disclosure by the US Government is
 subject to restrictions as set forth in subparagraphs (a)
 and (c) of the Commercial Computer Software - Restricted
 Rights clause in FAR 52.227-19.
  
 Gaussian, Inc.
 340 Quinnipiac St., Bldg. 40, Wallingford CT 06492
  
  
 ---------------------------------------------------------------
 Warning -- This program may not be used in any manner that
 competes with the business of Gaussian, Inc. or will provide
 assistance to any competitor of Gaussian, Inc.  The licensee
 of this program is prohibited from giving any competitor of
 Gaussian, Inc. access to this program.  By using this program,
 the user acknowledges that Gaussian, Inc. is engaged in the
 business of creating and licensing software in the field of
 computational chemistry and represents and warrants to the
 licensee that it is not a competitor of Gaussian, Inc. and that
 it will not use this program in any manner prohibited above.
 ---------------------------------------------------------------
  

 Cite this work as:
 Gaussian 09, Revision B.01,
 M. J. Frisch, G. W. Trucks, H. B. Schlegel, G. E. Scuseria, 
 M. A. Robb, J. R. Cheeseman, G. Scalmani, V. Barone, B. Mennucci, 
 G. A. Petersson, H. Nakatsuji, M. Caricato, X. Li, H. P. Hratchian, 
 A. F. Izmaylov, J. Bloino, G. Zheng, J. L. Sonnenberg, M. Hada, 
 M. Ehara, K. Toyota, R. Fukuda, J. Hasegawa, M. Ishida, T. Nakajima, 
 Y. Honda, O. Kitao, H. Nakai, T. Vreven, J. A. Montgomery, Jr., 
 J. E. Peralta, F. Ogliaro, M. Bearpark, J. J. Heyd, E. Brothers, 
 K. N. Kudin, V. N. Staroverov, T. Keith, R. Kobayashi, J. Normand, 
 K. Raghavachari, A. Rendell, J. C. Burant, S. S. Iyengar, J. Tomasi, 
 M. Cossi, N. Rega, J. M. Millam, M. Klene, J. E. Knox, J. B. Cross, 
 V. Bakken, C. Adamo, J. Jaramillo, R. Gomperts, R. E. Stratmann, 
 O. Yazyev, A. J. Austin, R. Cammi, C. Pomelli, J. W. Ochterski, 
 R. L. Martin, K. Morokuma, V. G. Zakrzewski, G. A. Voth, 
 P. Salvador, J. J. Dannenberg, S. Dapprich, A. D. Daniels, 
 O. Farkas, J. B. Foresman, J. V. Ortiz, J. Cioslowski, 
 and D. J. Fox, Gaussian, Inc., Wallingford CT, 2010.
 
 ******************************************
 Gaussian 09:  EM64L-G09RevB.01 12-Aug-2010
                30-Sep-2017 
 ******************************************
 %nprocshared=20
 Will use up to   20 processors via shared memory.
 %mem=5GB
 ----------------------------------------------------------------------
 # m062x/6-311+g(2df,2p) opt=(verytight,gdiis) freq IOP(2/16=3) IOP(4/2
 1=2)
 ----------------------------------------------------------------------

 Warning!  Use of Opt=GDIIS is deprecated since it is seldom a good choice.

 1/7=1,14=-1,18=20,19=11,26=3,38=1/1,3;
 2/9=110,12=2,16=3,17=6,18=5,40=1/2;
 3/5=4,6=6,7=214,11=2,16=1,25=1,30=1,71=1,74=-55/1,2,3;
 4/21=2/1;
 5/5=2,38=5/2;
 6/7=2,8=2,9=2,10=2,28=1/1;
 7//1,2,3,16;
 1/7=1,14=-1,18=20,19=11/3(2);
 2/9=110,16=3/2;
 99//99;
 2/9=110,16=3/2;
 3/5=4,6=6,7=214,11=2,16=1,25=1,30=1,71=1,74=-55/1,2,3;
 4/5=5,16=3,21=2/1;
 5/5=2,38=5/2;
 7//1,2,3,16;
 1/7=1,14=-1,18=20,19=11/3(-5);
 2/9=110,16=3/2;
 6/7=2,8=2,9=2,10=2,19=2,28=1/1;
 99/9=1/99;
 ---------------------------------------------
 InChI=1S/C5H11O2/c1-5(2,3)4-7-6/h4H2,1-3H3/u6
 ---------------------------------------------
 Symbolic Z-matrix:
 Charge =  0 Multiplicity = 2
 C                    -0.1871    0.0247    0.0624 
 C                     1.2617    0.4024   -0.3291 
 C                    -0.9165   -0.5983   -1.1451 
 C                    -0.1745   -0.9811    1.2313 
 C                    -0.9382    1.2971    0.5018 
 O                     1.9786   -0.7358   -0.7362 
 H                     1.7689    0.8726    0.5453 
 H                     1.237     1.147    -1.1585 
 H                    -0.4162   -1.5358   -1.4697 
 H                    -0.9261    0.1078   -2.0034 
 H                    -1.9687   -0.8429   -0.8831 
 H                     0.3578   -0.5545    2.1089 
 H                     0.3355   -1.9236    0.9377 
 H                    -1.2117   -1.2334    1.5416 
 H                    -0.4367    1.7666    1.3757 
 H                    -0.9674    2.0404   -0.3241 
 H                    -1.9845    1.0565    0.7898 
 O                     3.1881   -0.3094   -1.0452 
 

 GradGradGradGradGradGradGradGradGradGradGradGradGradGradGradGradGradGrad
 Berny optimization.
 Initialization pass.
                           ----------------------------
                           !    Initial Parameters    !
                           ! (Angstroms and Degrees)  !
 --------------------------                            --------------------------
 ! Name  Definition              Value          Derivative Info.                !
 --------------------------------------------------------------------------------
 ! R1    R(1,2)                  1.5476         estimate D2E/DX2                !
 ! R2    R(1,3)                  1.5421         estimate D2E/DX2                !
 ! R3    R(1,4)                  1.5421         estimate D2E/DX2                !
 ! R4    R(1,5)                  1.5415         estimate D2E/DX2                !
 ! R5    R(2,6)                  1.4054         estimate D2E/DX2                !
 ! R6    R(2,7)                  1.1149         estimate D2E/DX2                !
 ! R7    R(2,8)                  1.1149         estimate D2E/DX2                !
 ! R8    R(3,9)                  1.1111         estimate D2E/DX2                !
 ! R9    R(3,10)                 1.1115         estimate D2E/DX2                !
 ! R10   R(3,11)                 1.1116         estimate D2E/DX2                !
 ! R11   R(4,12)                 1.1115         estimate D2E/DX2                !
 ! R12   R(4,13)                 1.1111         estimate D2E/DX2                !
 ! R13   R(4,14)                 1.1116         estimate D2E/DX2                !
 ! R14   R(5,15)                 1.1116         estimate D2E/DX2                !
 ! R15   R(5,16)                 1.1115         estimate D2E/DX2                !
 ! R16   R(5,17)                 1.1116         estimate D2E/DX2                !
 ! R17   R(6,18)                 1.3192         estimate D2E/DX2                !
 ! A1    A(2,1,3)              110.0785         estimate D2E/DX2                !
 ! A2    A(2,1,4)              110.0772         estimate D2E/DX2                !
 ! A3    A(2,1,5)              109.0754         estimate D2E/DX2                !
 ! A4    A(3,1,4)              109.5045         estimate D2E/DX2                !
 ! A5    A(3,1,5)              109.0378         estimate D2E/DX2                !
 ! A6    A(4,1,5)              109.0433         estimate D2E/DX2                !
 ! A7    A(1,2,6)              110.6812         estimate D2E/DX2                !
 ! A8    A(1,2,7)              109.2949         estimate D2E/DX2                !
 ! A9    A(1,2,8)              109.2969         estimate D2E/DX2                !
 ! A10   A(6,2,7)              109.6753         estimate D2E/DX2                !
 ! A11   A(6,2,8)              109.6761         estimate D2E/DX2                !
 ! A12   A(7,2,8)              108.1725         estimate D2E/DX2                !
 ! A13   A(1,3,9)              110.8939         estimate D2E/DX2                !
 ! A14   A(1,3,10)             110.6154         estimate D2E/DX2                !
 ! A15   A(1,3,11)             110.6131         estimate D2E/DX2                !
 ! A16   A(9,3,10)             108.3195         estimate D2E/DX2                !
 ! A17   A(9,3,11)             108.0237         estimate D2E/DX2                !
 ! A18   A(10,3,11)            108.2783         estimate D2E/DX2                !
 ! A19   A(1,4,12)             110.6129         estimate D2E/DX2                !
 ! A20   A(1,4,13)             110.8977         estimate D2E/DX2                !
 ! A21   A(1,4,14)             110.6091         estimate D2E/DX2                !
 ! A22   A(12,4,13)            108.3225         estimate D2E/DX2                !
 ! A23   A(12,4,14)            108.2726         estimate D2E/DX2                !
 ! A24   A(13,4,14)            108.0291         estimate D2E/DX2                !
 ! A25   A(1,5,15)             110.665          estimate D2E/DX2                !
 ! A26   A(1,5,16)             110.6701         estimate D2E/DX2                !
 ! A27   A(1,5,17)             110.7219         estimate D2E/DX2                !
 ! A28   A(15,5,16)            108.2739         estimate D2E/DX2                !
 ! A29   A(15,5,17)            108.2037         estimate D2E/DX2                !
 ! A30   A(16,5,17)            108.2122         estimate D2E/DX2                !
 ! A31   A(2,6,18)             105.8886         estimate D2E/DX2                !
 ! D1    D(3,1,2,6)            -60.4048         estimate D2E/DX2                !
 ! D2    D(3,1,2,7)            178.7008         estimate D2E/DX2                !
 ! D3    D(3,1,2,8)             60.4917         estimate D2E/DX2                !
 ! D4    D(4,1,2,6)             60.3979         estimate D2E/DX2                !
 ! D5    D(4,1,2,7)            -60.4965         estimate D2E/DX2                !
 ! D6    D(4,1,2,8)           -178.7055         estimate D2E/DX2                !
 ! D7    D(5,1,2,6)            179.9995         estimate D2E/DX2                !
 ! D8    D(5,1,2,7)             59.1051         estimate D2E/DX2                !
 ! D9    D(5,1,2,8)            -59.1039         estimate D2E/DX2                !
 ! D10   D(2,1,3,9)             61.9996         estimate D2E/DX2                !
 ! D11   D(2,1,3,10)           -58.2031         estimate D2E/DX2                !
 ! D12   D(2,1,3,11)          -178.1704         estimate D2E/DX2                !
 ! D13   D(4,1,3,9)            -59.1465         estimate D2E/DX2                !
 ! D14   D(4,1,3,10)          -179.3492         estimate D2E/DX2                !
 ! D15   D(4,1,3,11)            60.6835         estimate D2E/DX2                !
 ! D16   D(5,1,3,9)           -178.3819         estimate D2E/DX2                !
 ! D17   D(5,1,3,10)            61.4154         estimate D2E/DX2                !
 ! D18   D(5,1,3,11)           -58.5519         estimate D2E/DX2                !
 ! D19   D(2,1,4,12)            58.2103         estimate D2E/DX2                !
 ! D20   D(2,1,4,13)           -61.9971         estimate D2E/DX2                !
 ! D21   D(2,1,4,14)           178.1663         estimate D2E/DX2                !
 ! D22   D(3,1,4,12)           179.3572         estimate D2E/DX2                !
 ! D23   D(3,1,4,13)            59.1498         estimate D2E/DX2                !
 ! D24   D(3,1,4,14)           -60.6868         estimate D2E/DX2                !
 ! D25   D(5,1,4,12)           -61.4108         estimate D2E/DX2                !
 ! D26   D(5,1,4,13)           178.3818         estimate D2E/DX2                !
 ! D27   D(5,1,4,14)            58.5452         estimate D2E/DX2                !
 ! D28   D(2,1,5,15)           -60.0183         estimate D2E/DX2                !
 ! D29   D(2,1,5,16)            60.0131         estimate D2E/DX2                !
 ! D30   D(2,1,5,17)          -179.9956         estimate D2E/DX2                !
 ! D31   D(3,1,5,15)           179.7435         estimate D2E/DX2                !
 ! D32   D(3,1,5,16)           -60.2251         estimate D2E/DX2                !
 ! D33   D(3,1,5,17)            59.7662         estimate D2E/DX2                !
 ! D34   D(4,1,5,15)            60.2216         estimate D2E/DX2                !
 ! D35   D(4,1,5,16)          -179.7469         estimate D2E/DX2                !
 ! D36   D(4,1,5,17)           -59.7557         estimate D2E/DX2                !
 ! D37   D(1,2,6,18)           179.9978         estimate D2E/DX2                !
 ! D38   D(7,2,6,18)           -59.3338         estimate D2E/DX2                !
 ! D39   D(8,2,6,18)            59.3265         estimate D2E/DX2                !
 --------------------------------------------------------------------------------
 Trust Radius=3.00D-01 FncErr=1.00D-07 GrdErr=1.00D-06
 Number of steps in this run=     97 maximum allowed number of steps=    108.
 GradGradGradGradGradGradGradGradGradGradGradGradGradGradGradGradGradGrad

                          Input orientation:                          
 ---------------------------------------------------------------------
 Center     Atomic      Atomic             Coordinates (Angstroms)
 Number     Number       Type             X           Y           Z
 ---------------------------------------------------------------------
      1          6           0       -0.187100    0.024700    0.062400
      2          6           0        1.261700    0.402400   -0.329100
      3          6           0       -0.916500   -0.598300   -1.145100
      4          6           0       -0.174500   -0.981100    1.231300
      5          6           0       -0.938200    1.297100    0.501800
      6          8           0        1.978600   -0.735800   -0.736200
      7          1           0        1.768900    0.872600    0.545300
      8          1           0        1.237000    1.147000   -1.158500
      9          1           0       -0.416200   -1.535800   -1.469700
     10          1           0       -0.926100    0.107800   -2.003400
     11          1           0       -1.968700   -0.842900   -0.883100
     12          1           0        0.357800   -0.554500    2.108900
     13          1           0        0.335500   -1.923600    0.937700
     14          1           0       -1.211700   -1.233400    1.541600
     15          1           0       -0.436700    1.766600    1.375700
     16          1           0       -0.967400    2.040400   -0.324100
     17          1           0       -1.984500    1.056500    0.789800
     18          8           0        3.188100   -0.309400   -1.045200
 ---------------------------------------------------------------------
                    Distance matrix (angstroms):
                    1          2          3          4          5
     1  C    0.000000
     2  C    1.547563   0.000000
     3  C    1.542144   2.532156   0.000000
     4  C    1.542115   2.532112   2.518805   0.000000
     5  C    1.541501   2.516037   2.511034   2.511096   0.000000
     6  O    2.430304   1.405409   2.927065   2.926955   3.764711
     7  H    2.185878   1.114861   3.497481   2.771931   2.740526
     8  H    2.185913   1.114874   2.771969   3.497468   2.740551
     9  H    2.198858   2.805875   1.111113   2.767944   3.490647
    10  H    2.195577   2.770657   1.111462   3.494838   2.773195
    11  H    2.195632   3.506162   1.111575   2.776498   2.749451
    12  H    2.195575   2.770656   3.494893   1.111536   2.773231
    13  H    2.198894   2.805870   2.768028   1.111129   3.490735
    14  H    2.195599   3.506147   2.776482   1.111632   2.749439
    15  H    2.195740   2.766215   3.489612   2.763956   1.111591
    16  H    2.195745   2.766217   2.763941   3.489616   1.111512
    17  H    2.196445   3.495368   2.760946   2.760948   1.111565
    18  O    3.567965   2.174966   4.115967   4.115910   4.690459
                    6          7          8          9         10
     6  O    0.000000
     7  H    2.067164   0.000000
     8  H    2.067183   1.805865   0.000000
     9  H    2.629275   3.825608   3.166596   0.000000
    10  H    3.279442   3.787323   2.544169   1.801737   0.000000
    11  H    3.951484   4.353495   3.783128   1.798462   1.801643
    12  H    3.279399   2.544143   3.787347   3.790568   4.358675
    13  H    2.629180   3.166599   3.825616   2.551669   3.790553
    14  H    3.951455   3.783097   4.353502   3.129248   3.800975
    15  H    4.068882   2.520609   3.099572   4.359193   3.795978
    16  H    4.068910   3.099508   2.520668   3.795448   2.560605
    17  H    4.609466   3.765848   3.765916   3.779540   3.134040
    18  O    1.319162   2.437405   2.437361   3.830827   4.244861
                   11         12         13         14         15
    11  H    0.000000
    12  H    3.801032   0.000000
    13  H    3.129307   1.801844   0.000000
    14  H    2.569963   1.801684   1.798583   0.000000
    15  H    3.776068   2.560531   3.795486   3.102926   0.000000
    16  H    3.102983   3.795939   4.359241   3.776014   1.801646
    17  H    2.531119   3.133962   3.779586   2.531021   1.800890
    18  O    5.186857   4.244881   3.830778   5.186863   4.828013
                   16         17         18
    16  H    0.000000
    17  H    1.800923   0.000000
    18  O    4.828015   5.655855   0.000000
 Stoichiometry    C5H11O2(2)
 Framework group  C1[X(C5H11O2)]
 Deg. of freedom    48
 Full point group                 C1      NOp   1
 Largest Abelian subgroup         C1      NOp   1
 Largest concise Abelian subgroup C1      NOp   1
                         Standard orientation:                         
 ---------------------------------------------------------------------
 Center     Atomic      Atomic             Coordinates (Angstroms)
 Number     Number       Type             X           Y           Z
 ---------------------------------------------------------------------
      1          6           0        0.792303    0.020162   -0.000018
      2          6           0       -0.630548    0.628804   -0.000068
      3          6           0        0.997737   -0.845636    1.259507
      4          6           0        0.997640   -0.845962   -1.259298
      5          6           0        1.828455    1.161483   -0.000126
      6          8           0       -1.604012   -0.384875    0.000017
      7          1           0       -0.756759    1.270352   -0.903064
      8          1           0       -0.756782    1.270549    0.902801
      9          1           0        0.283753   -1.696826    1.276034
     10          1           0        0.842348   -0.241405    2.179348
     11          1           0        2.028542   -1.260827    1.285121
     12          1           0        0.842304   -0.241868   -2.179328
     13          1           0        0.283634   -1.697159   -1.275636
     14          1           0        2.028531   -1.261096   -1.284842
     15          1           0        1.707315    1.801206   -0.901077
     16          1           0        1.707345    1.801436    0.900569
     17          1           0        2.862582    0.753860   -0.000173
     18          8           0       -2.769281    0.233459    0.000016
 ---------------------------------------------------------------------
 Rotational constants (GHZ):      4.2695836      1.5711341      1.5551234
 Standard basis: 6-311+G(2df,2p) (5D, 7F)
 There are   337 symmetry adapted basis functions of A   symmetry.
 Integral buffers will be    131072 words long.
 Raffenetti 2 integral format.
 Two-electron integral symmetry is turned on.
   337 basis functions,   485 primitive gaussians,   372 cartesian basis functions
    29 alpha electrons       28 beta electrons
       nuclear repulsion energy       329.0988796903 Hartrees.
 NAtoms=   18 NActive=   18 NUniq=   18 SFac= 1.00D+00 NAtFMM=   50 NAOKFM=F Big=F
 One-electron integrals computed using PRISM.
 NBasis=   337 RedAO= T  NBF=   337
 NBsUse=   337 1.00D-06 NBFU=   337
 Harris functional with IExCor= 1009 diagonalized for initial guess.
 ExpMin= 4.38D-02 ExpMax= 8.59D+03 ExpMxC= 1.30D+03 IAcc=2 IRadAn=         0 AccDes= 0.00D+00
 HarFok:  IExCor= 1009 AccDes= 0.00D+00 IRadAn=         0 IDoV= 1
 ScaDFX=  1.000000  1.000000  1.000000  1.000000
 FoFCou: FMM=F IPFlag=           0 FMFlag=      100000 FMFlg1=           0
         NFxFlg=           0 DoJE=T BraDBF=F KetDBF=T FulRan=T
         Omega=  0.000000  0.000000  1.000000  0.000000  0.000000 ICntrl=     500 IOpCl=  0
         NMat0=    1 NMatS0=    1 NMatT0=    0 NMatD0=    1 NMtDS0=    0 NMtDT0=    0
         I1Cent=           4 NGrid=           0.
 Petite list used in FoFCou.
 Initial guess orbital symmetries:
 Alpha Orbitals:
       Occupied  (A) (A) (A) (A) (A) (A) (A) (A) (A) (A) (A) (A)
                 (A) (A) (A) (A) (A) (A) (A) (A) (A) (A) (A) (A)
                 (A) (A) (A) (A) (A)
       Virtual   (A) (A) (A) (A) (A) (A) (A) (A) (A) (A) (A) (A)
                 (A) (A) (A) (A) (A) (A) (A) (A) (A) (A) (A) (A)
                 (A) (A) (A) (A) (A) (A) (A) (A) (A) (A) (A) (A)
                 (A) (A) (A) (A) (A) (A) (A) (A) (A) (A) (A) (A)
                 (A) (A) (A) (A) (A) (A) (A) (A) (A) (A) (A) (A)
                 (A) (A) (A) (A) (A) (A) (A) (A) (A) (A) (A) (A)
                 (A) (A) (A) (A) (A) (A) (A) (A) (A) (A) (A) (A)
                 (A) (A) (A) (A) (A) (A) (A) (A) (A) (A) (A) (A)
                 (A) (A) (A) (A) (A) (A) (A) (A) (A) (A) (A) (A)
                 (A) (A) (A) (A) (A) (A) (A) (A) (A) (A) (A) (A)
                 (A) (A) (A) (A) (A) (A) (A) (A) (A) (A) (A) (A)
                 (A) (A) (A) (A) (A) (A) (A) (A) (A) (A) (A) (A)
                 (A) (A) (A) (A) (A) (A) (A) (A) (A) (A) (A) (A)
                 (A) (A) (A) (A) (A) (A) (A) (A) (A) (A) (A) (A)
                 (A) (A) (A) (A) (A) (A) (A) (A) (A) (A) (A) (A)
                 (A) (A) (A) (A) (A) (A) (A) (A) (A) (A) (A) (A)
                 (A) (A) (A) (A) (A) (A) (A) (A) (A) (A) (A) (A)
                 (A) (A) (A) (A) (A) (A) (A) (A) (A) (A) (A) (A)
                 (A) (A) (A) (A) (A) (A) (A) (A) (A) (A) (A) (A)
                 (A) (A) (A) (A) (A) (A) (A) (A) (A) (A) (A) (A)
                 (A) (A) (A) (A) (A) (A) (A) (A) (A) (A) (A) (A)
                 (A) (A) (A) (A) (A) (A) (A) (A) (A) (A) (A) (A)
                 (A) (A) (A) (A) (A) (A) (A) (A) (A) (A) (A) (A)
                 (A) (A) (A) (A) (A) (A) (A) (A) (A) (A) (A) (A)
                 (A) (A) (A) (A) (A) (A) (A) (A) (A) (A) (A) (A)
                 (A) (A) (A) (A) (A) (A) (A) (A)
 Beta  Orbitals:
       Occupied  (A) (A) (A) (A) (A) (A) (A) (A) (A) (A) (A) (A)
                 (A) (A) (A) (A) (A) (A) (A) (A) (A) (A) (A) (A)
                 (A) (A) (A) (A)
       Virtual   (A) (A) (A) (A) (A) (A) (A) (A) (A) (A) (A) (A)
                 (A) (A) (A) (A) (A) (A) (A) (A) (A) (A) (A) (A)
                 (A) (A) (A) (A) (A) (A) (A) (A) (A) (A) (A) (A)
                 (A) (A) (A) (A) (A) (A) (A) (A) (A) (A) (A) (A)
                 (A) (A) (A) (A) (A) (A) (A) (A) (A) (A) (A) (A)
                 (A) (A) (A) (A) (A) (A) (A) (A) (A) (A) (A) (A)
                 (A) (A) (A) (A) (A) (A) (A) (A) (A) (A) (A) (A)
                 (A) (A) (A) (A) (A) (A) (A) (A) (A) (A) (A) (A)
                 (A) (A) (A) (A) (A) (A) (A) (A) (A) (A) (A) (A)
                 (A) (A) (A) (A) (A) (A) (A) (A) (A) (A) (A) (A)
                 (A) (A) (A) (A) (A) (A) (A) (A) (A) (A) (A) (A)
                 (A) (A) (A) (A) (A) (A) (A) (A) (A) (A) (A) (A)
                 (A) (A) (A) (A) (A) (A) (A) (A) (A) (A) (A) (A)
                 (A) (A) (A) (A) (A) (A) (A) (A) (A) (A) (A) (A)
                 (A) (A) (A) (A) (A) (A) (A) (A) (A) (A) (A) (A)
                 (A) (A) (A) (A) (A) (A) (A) (A) (A) (A) (A) (A)
                 (A) (A) (A) (A) (A) (A) (A) (A) (A) (A) (A) (A)
                 (A) (A) (A) (A) (A) (A) (A) (A) (A) (A) (A) (A)
                 (A) (A) (A) (A) (A) (A) (A) (A) (A) (A) (A) (A)
                 (A) (A) (A) (A) (A) (A) (A) (A) (A) (A) (A) (A)
                 (A) (A) (A) (A) (A) (A) (A) (A) (A) (A) (A) (A)
                 (A) (A) (A) (A) (A) (A) (A) (A) (A) (A) (A) (A)
                 (A) (A) (A) (A) (A) (A) (A) (A) (A) (A) (A) (A)
                 (A) (A) (A) (A) (A) (A) (A) (A) (A) (A) (A) (A)
                 (A) (A) (A) (A) (A) (A) (A) (A) (A) (A) (A) (A)
                 (A) (A) (A) (A) (A) (A) (A) (A) (A)
 The electronic state of the initial guess is 2-A.
 Initial guess <Sx>= 0.0000 <Sy>= 0.0000 <Sz>= 0.5000 <S**2>= 0.7500 S= 0.5000
 Requested convergence on RMS density matrix=1.00D-08 within 128 cycles.
 Requested convergence on MAX density matrix=1.00D-06.
 Requested convergence on             energy=1.00D-06.
 No special actions if energy rises.
 SCF Done:  E(UM062X) =  -347.426654192     A.U. after   15 cycles
             Convg  =    0.6235D-08             -V/T =  2.0048
 <Sx>= 0.0000 <Sy>= 0.0000 <Sz>= 0.5000 <S**2>= 0.7553 S= 0.5027
 <L.S>= 0.000000000000E+00
 Annihilation of the first spin contaminant:
 S**2 before annihilation     0.7553,   after     0.7500

 **********************************************************************

            Population analysis using the SCF density.

 **********************************************************************

 Orbital symmetries:
 Alpha Orbitals:
       Occupied  (A) (A) (A) (A) (A) (A) (A) (A) (A) (A) (A) (A)
                 (A) (A) (A) (A) (A) (A) (A) (A) (A) (A) (A) (A)
                 (A) (A) (A) (A) (A)
       Virtual   (A) (A) (A) (A) (A) (A) (A) (A) (A) (A) (A) (A)
                 (A) (A) (A) (A) (A) (A) (A) (A) (A) (A) (A) (A)
                 (A) (A) (A) (A) (A) (A) (A) (A) (A) (A) (A) (A)
                 (A) (A) (A) (A) (A) (A) (A) (A) (A) (A) (A) (A)
                 (A) (A) (A) (A) (A) (A) (A) (A) (A) (A) (A) (A)
                 (A) (A) (A) (A) (A) (A) (A) (A) (A) (A) (A) (A)
                 (A) (A) (A) (A) (A) (A) (A) (A) (A) (A) (A) (A)
                 (A) (A) (A) (A) (A) (A) (A) (A) (A) (A) (A) (A)
                 (A) (A) (A) (A) (A) (A) (A) (A) (A) (A) (A) (A)
                 (A) (A) (A) (A) (A) (A) (A) (A) (A) (A) (A) (A)
                 (A) (A) (A) (A) (A) (A) (A) (A) (A) (A) (A) (A)
                 (A) (A) (A) (A) (A) (A) (A) (A) (A) (A) (A) (A)
                 (A) (A) (A) (A) (A) (A) (A) (A) (A) (A) (A) (A)
                 (A) (A) (A) (A) (A) (A) (A) (A) (A) (A) (A) (A)
                 (A) (A) (A) (A) (A) (A) (A) (A) (A) (A) (A) (A)
                 (A) (A) (A) (A) (A) (A) (A) (A) (A) (A) (A) (A)
                 (A) (A) (A) (A) (A) (A) (A) (A) (A) (A) (A) (A)
                 (A) (A) (A) (A) (A) (A) (A) (A) (A) (A) (A) (A)
                 (A) (A) (A) (A) (A) (A) (A) (A) (A) (A) (A) (A)
                 (A) (A) (A) (A) (A) (A) (A) (A) (A) (A) (A) (A)
                 (A) (A) (A) (A) (A) (A) (A) (A) (A) (A) (A) (A)
                 (A) (A) (A) (A) (A) (A) (A) (A) (A) (A) (A) (A)
                 (A) (A) (A) (A) (A) (A) (A) (A) (A) (A) (A) (A)
                 (A) (A) (A) (A) (A) (A) (A) (A) (A) (A) (A) (A)
                 (A) (A) (A) (A) (A) (A) (A) (A) (A) (A) (A) (A)
                 (A) (A) (A) (A) (A) (A) (A) (A)
 Beta  Orbitals:
       Occupied  (A) (A) (A) (A) (A) (A) (A) (A) (A) (A) (A) (A)
                 (A) (A) (A) (A) (A) (A) (A) (A) (A) (A) (A) (A)
                 (A) (A) (A) (A)
       Virtual   (A) (A) (A) (A) (A) (A) (A) (A) (A) (A) (A) (A)
                 (A) (A) (A) (A) (A) (A) (A) (A) (A) (A) (A) (A)
                 (A) (A) (A) (A) (A) (A) (A) (A) (A) (A) (A) (A)
                 (A) (A) (A) (A) (A) (A) (A) (A) (A) (A) (A) (A)
                 (A) (A) (A) (A) (A) (A) (A) (A) (A) (A) (A) (A)
                 (A) (A) (A) (A) (A) (A) (A) (A) (A) (A) (A) (A)
                 (A) (A) (A) (A) (A) (A) (A) (A) (A) (A) (A) (A)
                 (A) (A) (A) (A) (A) (A) (A) (A) (A) (A) (A) (A)
                 (A) (A) (A) (A) (A) (A) (A) (A) (A) (A) (A) (A)
                 (A) (A) (A) (A) (A) (A) (A) (A) (A) (A) (A) (A)
                 (A) (A) (A) (A) (A) (A) (A) (A) (A) (A) (A) (A)
                 (A) (A) (A) (A) (A) (A) (A) (A) (A) (A) (A) (A)
                 (A) (A) (A) (A) (A) (A) (A) (A) (A) (A) (A) (A)
                 (A) (A) (A) (A) (A) (A) (A) (A) (A) (A) (A) (A)
                 (A) (A) (A) (A) (A) (A) (A) (A) (A) (A) (A) (A)
                 (A) (A) (A) (A) (A) (A) (A) (A) (A) (A) (A) (A)
                 (A) (A) (A) (A) (A) (A) (A) (A) (A) (A) (A) (A)
                 (A) (A) (A) (A) (A) (A) (A) (A) (A) (A) (A) (A)
                 (A) (A) (A) (A) (A) (A) (A) (A) (A) (A) (A) (A)
                 (A) (A) (A) (A) (A) (A) (A) (A) (A) (A) (A) (A)
                 (A) (A) (A) (A) (A) (A) (A) (A) (A) (A) (A) (A)
                 (A) (A) (A) (A) (A) (A) (A) (A) (A) (A) (A) (A)
                 (A) (A) (A) (A) (A) (A) (A) (A) (A) (A) (A) (A)
                 (A) (A) (A) (A) (A) (A) (A) (A) (A) (A) (A) (A)
                 (A) (A) (A) (A) (A) (A) (A) (A) (A) (A) (A) (A)
                 (A) (A) (A) (A) (A) (A) (A) (A) (A)
 The electronic state is 2-A.
 Alpha  occ. eigenvalues --  -19.75068 -19.69961 -10.60432 -10.56746 -10.54387
 Alpha  occ. eigenvalues --  -10.53786 -10.53784  -1.33994  -1.01509  -0.92070
 Alpha  occ. eigenvalues --   -0.78674  -0.78232  -0.77441  -0.64227  -0.62320
 Alpha  occ. eigenvalues --   -0.60478  -0.57397  -0.52593  -0.50981  -0.50270
 Alpha  occ. eigenvalues --   -0.47670  -0.45904  -0.44229  -0.43458  -0.41052
 Alpha  occ. eigenvalues --   -0.39388  -0.39382  -0.37118  -0.36725
 Alpha virt. eigenvalues --    0.00933   0.02698   0.02907   0.03291   0.05490
 Alpha virt. eigenvalues --    0.05730   0.06179   0.06744   0.06772   0.07210
 Alpha virt. eigenvalues --    0.09537   0.10076   0.10223   0.10294   0.10961
 Alpha virt. eigenvalues --    0.11010   0.13058   0.15838   0.16164   0.17579
 Alpha virt. eigenvalues --    0.18821   0.19139   0.20765   0.21980   0.22494
 Alpha virt. eigenvalues --    0.22816   0.24169   0.24358   0.24391   0.25256
 Alpha virt. eigenvalues --    0.25598   0.25943   0.26843   0.27656   0.28040
 Alpha virt. eigenvalues --    0.28662   0.29767   0.30494   0.30585   0.31266
 Alpha virt. eigenvalues --    0.32647   0.35968   0.36980   0.40140   0.40348
 Alpha virt. eigenvalues --    0.43477   0.44614   0.45681   0.46302   0.47529
 Alpha virt. eigenvalues --    0.48712   0.50078   0.51582   0.52710   0.53994
 Alpha virt. eigenvalues --    0.54992   0.55569   0.56816   0.57429   0.58096
 Alpha virt. eigenvalues --    0.59847   0.60233   0.60842   0.63197   0.63578
 Alpha virt. eigenvalues --    0.64456   0.65706   0.68077   0.68284   0.70328
 Alpha virt. eigenvalues --    0.70495   0.71369   0.73516   0.75882   0.77290
 Alpha virt. eigenvalues --    0.79561   0.81282   0.87592   0.87802   0.90430
 Alpha virt. eigenvalues --    0.93813   0.96456   0.97353   0.99547   1.00250
 Alpha virt. eigenvalues --    1.01291   1.02098   1.02301   1.04480   1.04841
 Alpha virt. eigenvalues --    1.07393   1.07974   1.09911   1.11665   1.13479
 Alpha virt. eigenvalues --    1.13952   1.14334   1.15797   1.16732   1.18112
 Alpha virt. eigenvalues --    1.18117   1.22668   1.24209   1.24350   1.25873
 Alpha virt. eigenvalues --    1.26491   1.26956   1.28138   1.29056   1.31245
 Alpha virt. eigenvalues --    1.31523   1.35247   1.35739   1.36620   1.36696
 Alpha virt. eigenvalues --    1.38260   1.38531   1.40073   1.41551   1.42429
 Alpha virt. eigenvalues --    1.42898   1.43918   1.43960   1.46217   1.48073
 Alpha virt. eigenvalues --    1.49041   1.49773   1.52811   1.55754   1.57073
 Alpha virt. eigenvalues --    1.59583   1.59924   1.60464   1.60939   1.62559
 Alpha virt. eigenvalues --    1.63098   1.63897   1.64331   1.67391   1.72361
 Alpha virt. eigenvalues --    1.74721   1.76787   1.78268   1.80871   1.88174
 Alpha virt. eigenvalues --    2.02082   2.11679   2.15749   2.21236   2.25909
 Alpha virt. eigenvalues --    2.31488   2.40653   2.46908   2.52451   2.53005
 Alpha virt. eigenvalues --    2.57144   2.58374   2.58424   2.63923   2.66666
 Alpha virt. eigenvalues --    2.71159   2.72062   2.75026   2.82410   2.82554
 Alpha virt. eigenvalues --    2.82961   2.89851   2.90327   2.91147   2.94858
 Alpha virt. eigenvalues --    2.95398   2.96290   2.98931   2.99525   3.00903
 Alpha virt. eigenvalues --    3.07564   3.08565   3.09687   3.10501   3.11051
 Alpha virt. eigenvalues --    3.13540   3.16829   3.26515   3.26683   3.27167
 Alpha virt. eigenvalues --    3.31328   3.32031   3.33357   3.33663   3.35306
 Alpha virt. eigenvalues --    3.35426   3.35995   3.37160   3.41345   3.43110
 Alpha virt. eigenvalues --    3.43710   3.50291   3.55168   3.55459   3.55898
 Alpha virt. eigenvalues --    3.56777   3.59541   3.63861   3.64548   3.66141
 Alpha virt. eigenvalues --    3.67574   3.69034   3.71052   3.71761   3.72860
 Alpha virt. eigenvalues --    3.73728   3.74151   3.76026   3.77947   3.79480
 Alpha virt. eigenvalues --    3.81777   3.89457   3.91609   3.95233   3.96420
 Alpha virt. eigenvalues --    3.99787   4.02203   4.03257   4.03497   4.03765
 Alpha virt. eigenvalues --    4.03801   4.06193   4.10029   4.11457   4.16917
 Alpha virt. eigenvalues --    4.17501   4.18475   4.18503   4.20952   4.21829
 Alpha virt. eigenvalues --    4.22811   4.23344   4.27874   4.30948   4.33047
 Alpha virt. eigenvalues --    4.33674   4.36131   4.41219   4.42058   4.43221
 Alpha virt. eigenvalues --    4.43494   4.50121   4.54770   4.55638   4.56127
 Alpha virt. eigenvalues --    4.58362   4.58927   4.60865   4.62308   4.62443
 Alpha virt. eigenvalues --    4.64823   4.66058   4.67303   4.69483   4.82478
 Alpha virt. eigenvalues --    4.83687   4.94260   4.94606   4.99544   5.01510
 Alpha virt. eigenvalues --    5.04449   5.05433   5.05594   5.13284   5.16687
 Alpha virt. eigenvalues --    5.18159   5.20562   5.28613   5.34480   5.35347
 Alpha virt. eigenvalues --    5.39651   5.46739   5.47725   5.56308   5.56759
 Alpha virt. eigenvalues --    5.57143   5.58282   5.58904   5.60561   5.61812
 Alpha virt. eigenvalues --    5.79392   5.80535   6.31515   6.39921   6.51675
 Alpha virt. eigenvalues --    6.74155   6.79906   6.87680   6.99355   7.13903
 Alpha virt. eigenvalues --    7.18428   7.29675   7.32426   7.66176   7.91863
 Alpha virt. eigenvalues --    7.95542  24.13015  24.32915  24.33164  24.38332
 Alpha virt. eigenvalues --   24.44161  49.97509  50.09417
  Beta  occ. eigenvalues --  -19.74270 -19.68557 -10.60460 -10.56748 -10.54388
  Beta  occ. eigenvalues --  -10.53786 -10.53784  -1.30839  -0.98186  -0.91043
  Beta  occ. eigenvalues --   -0.78590  -0.78212  -0.76463  -0.63858  -0.58615
  Beta  occ. eigenvalues --   -0.57143  -0.56688  -0.50947  -0.50332  -0.50178
  Beta  occ. eigenvalues --   -0.45854  -0.45547  -0.43461  -0.41906  -0.40561
  Beta  occ. eigenvalues --   -0.39337  -0.38909  -0.34791
  Beta virt. eigenvalues --   -0.06965   0.00934   0.02707   0.02952   0.03296
  Beta virt. eigenvalues --    0.05578   0.05736   0.06189   0.06778   0.06822
  Beta virt. eigenvalues --    0.07276   0.09555   0.10100   0.10284   0.10326
  Beta virt. eigenvalues --    0.11059   0.11064   0.13553   0.15852   0.16181
  Beta virt. eigenvalues --    0.17767   0.18892   0.19279   0.21282   0.22279
  Beta virt. eigenvalues --    0.22781   0.22849   0.24081   0.24246   0.24686
  Beta virt. eigenvalues --    0.25322   0.25579   0.25971   0.26981   0.27764
  Beta virt. eigenvalues --    0.28160   0.28971   0.29927   0.30489   0.30867
  Beta virt. eigenvalues --    0.31748   0.32706   0.36070   0.36904   0.39980
  Beta virt. eigenvalues --    0.40386   0.43503   0.44670   0.45666   0.46339
  Beta virt. eigenvalues --    0.47537   0.48732   0.49989   0.51546   0.52776
  Beta virt. eigenvalues --    0.53961   0.55096   0.55580   0.56840   0.57426
  Beta virt. eigenvalues --    0.58044   0.59824   0.60229   0.60827   0.63134
  Beta virt. eigenvalues --    0.63618   0.64326   0.65687   0.68022   0.68395
  Beta virt. eigenvalues --    0.70323   0.70508   0.71374   0.73464   0.75926
  Beta virt. eigenvalues --    0.77345   0.79753   0.81290   0.87822   0.87852
  Beta virt. eigenvalues --    0.90485   0.93881   0.96540   0.97399   0.99555
  Beta virt. eigenvalues --    1.00353   1.01328   1.02222   1.02315   1.04920
  Beta virt. eigenvalues --    1.05681   1.07594   1.08221   1.10004   1.12739
  Beta virt. eigenvalues --    1.13505   1.14656   1.15069   1.16200   1.17834
  Beta virt. eigenvalues --    1.18448   1.19273   1.22698   1.24285   1.24610
  Beta virt. eigenvalues --    1.26049   1.26508   1.27017   1.28644   1.29089
  Beta virt. eigenvalues --    1.31603   1.31634   1.35308   1.35723   1.36741
  Beta virt. eigenvalues --    1.36758   1.38315   1.38685   1.40140   1.41622
  Beta virt. eigenvalues --    1.42381   1.42941   1.43901   1.44657   1.46244
  Beta virt. eigenvalues --    1.48395   1.49087   1.49742   1.53014   1.56514
  Beta virt. eigenvalues --    1.57685   1.59753   1.59976   1.61103   1.61489
  Beta virt. eigenvalues --    1.62706   1.63729   1.64417   1.65149   1.67386
  Beta virt. eigenvalues --    1.72643   1.75337   1.76923   1.78865   1.80979
  Beta virt. eigenvalues --    1.88624   2.02445   2.12079   2.16929   2.22820
  Beta virt. eigenvalues --    2.26118   2.32037   2.40703   2.46937   2.52456
  Beta virt. eigenvalues --    2.53025   2.57220   2.58429   2.58484   2.63977
  Beta virt. eigenvalues --    2.66701   2.71290   2.72080   2.75039   2.82429
  Beta virt. eigenvalues --    2.82551   2.82924   2.89839   2.90353   2.91119
  Beta virt. eigenvalues --    2.94847   2.95387   2.96290   2.98939   2.99529
  Beta virt. eigenvalues --    3.00869   3.07561   3.08523   3.09663   3.10444
  Beta virt. eigenvalues --    3.11058   3.13580   3.16823   3.26491   3.26684
  Beta virt. eigenvalues --    3.27050   3.31328   3.32015   3.33372   3.33663
  Beta virt. eigenvalues --    3.35316   3.35417   3.35997   3.37120   3.41324
  Beta virt. eigenvalues --    3.43080   3.43557   3.50203   3.55112   3.55323
  Beta virt. eigenvalues --    3.55889   3.56787   3.59477   3.63805   3.64539
  Beta virt. eigenvalues --    3.66099   3.67484   3.69047   3.71037   3.71738
  Beta virt. eigenvalues --    3.72828   3.73721   3.74137   3.76016   3.77919
  Beta virt. eigenvalues --    3.79474   3.81738   3.89426   3.91596   3.95220
  Beta virt. eigenvalues --    3.96407   3.99753   4.02215   4.03269   4.03482
  Beta virt. eigenvalues --    4.03762   4.03787   4.06260   4.10012   4.11445
  Beta virt. eigenvalues --    4.16883   4.17536   4.18453   4.18477   4.20933
  Beta virt. eigenvalues --    4.21829   4.22809   4.23329   4.27861   4.30987
  Beta virt. eigenvalues --    4.33094   4.33674   4.36094   4.41214   4.42054
  Beta virt. eigenvalues --    4.43242   4.43515   4.51435   4.54770   4.56139
  Beta virt. eigenvalues --    4.56308   4.58877   4.58914   4.60889   4.62420
  Beta virt. eigenvalues --    4.62474   4.64737   4.66065   4.67368   4.69889
  Beta virt. eigenvalues --    4.82448   4.85056   4.94598   4.95003   4.99613
  Beta virt. eigenvalues --    5.02419   5.07328   5.07467   5.12033   5.13965
  Beta virt. eigenvalues --    5.18669   5.19480   5.22106   5.28939   5.34646
  Beta virt. eigenvalues --    5.35352   5.40157   5.47103   5.48074   5.56355
  Beta virt. eigenvalues --    5.56790   5.57142   5.58286   5.58925   5.60603
  Beta virt. eigenvalues --    5.62553   5.79413   5.81458   6.34455   6.40554
  Beta virt. eigenvalues --    6.52026   6.84595   6.88047   6.93370   7.02854
  Beta virt. eigenvalues --    7.15762   7.21654   7.33633   7.33777   7.66317
  Beta virt. eigenvalues --    7.93068   7.95706  24.13008  24.32913  24.33164
  Beta virt. eigenvalues --   24.38287  24.44129  49.97019  50.08866
          Condensed to atoms (all electrons):
              1          2          3          4          5          6
     1  C    5.798571  -0.111713   0.021353   0.021274   0.309571   0.131039
     2  C   -0.111713   5.784674  -0.068869  -0.068886  -0.154783   0.049316
     3  C    0.021353  -0.068869   5.852313  -0.230136  -0.247857  -0.029441
     4  C    0.021274  -0.068886  -0.230136   5.852417  -0.247903  -0.029440
     5  C    0.309571  -0.154783  -0.247857  -0.247903   5.637818   0.046352
     6  O    0.131039   0.049316  -0.029441  -0.029440   0.046352   7.813704
     7  H    0.010891   0.407998   0.021308  -0.023074  -0.014035  -0.033970
     8  H    0.010900   0.407991  -0.023075   0.021309  -0.014034  -0.033968
     9  H   -0.034513  -0.014331   0.402651   0.005012   0.018889  -0.003013
    10  H    0.018562  -0.023381   0.378252   0.025439  -0.016593  -0.002531
    11  H   -0.033669   0.034752   0.408791  -0.019128  -0.013307   0.000059
    12  H    0.018574  -0.023379   0.025433   0.378232  -0.016589  -0.002533
    13  H   -0.034535  -0.014317   0.005016   0.402660   0.018886  -0.003013
    14  H   -0.033682   0.034754  -0.019125   0.408785  -0.013306   0.000059
    15  H    0.006805  -0.018875   0.029278  -0.015239   0.375069   0.000149
    16  H    0.006810  -0.018873  -0.015235   0.029275   0.375076   0.000149
    17  H   -0.032768   0.030511  -0.023178  -0.023175   0.428749  -0.000484
    18  O   -0.070640  -0.035640   0.024518   0.024516  -0.019264   0.129404
              7          8          9         10         11         12
     1  C    0.010891   0.010900  -0.034513   0.018562  -0.033669   0.018574
     2  C    0.407998   0.407991  -0.014331  -0.023381   0.034752  -0.023379
     3  C    0.021308  -0.023075   0.402651   0.378252   0.408791   0.025433
     4  C   -0.023074   0.021309   0.005012   0.025439  -0.019128   0.378232
     5  C   -0.014035  -0.014034   0.018889  -0.016593  -0.013307  -0.016589
     6  O   -0.033970  -0.033968  -0.003013  -0.002531   0.000059  -0.002533
     7  H    0.480046  -0.030507  -0.000221   0.000185  -0.000314  -0.000178
     8  H   -0.030507   0.480048   0.000775  -0.000177   0.000073   0.000185
     9  H   -0.000221   0.000775   0.499263  -0.023018  -0.023940   0.000085
    10  H    0.000185  -0.000177  -0.023018   0.509057  -0.025045  -0.000462
    11  H   -0.000314   0.000073  -0.023940  -0.025045   0.511542   0.000143
    12  H   -0.000178   0.000185   0.000085  -0.000462   0.000143   0.509090
    13  H    0.000775  -0.000221   0.000939   0.000085   0.000000  -0.023012
    14  H    0.000073  -0.000314   0.000000   0.000143   0.000700  -0.025053
    15  H    0.000805  -0.000279  -0.000392   0.000031   0.000135   0.000615
    16  H   -0.000280   0.000804   0.000082   0.000614   0.000344   0.000031
    17  H   -0.000056  -0.000056   0.000101   0.000267   0.000716   0.000266
    18  O    0.000348   0.000345   0.000011  -0.000322   0.000058  -0.000322
             13         14         15         16         17         18
     1  C   -0.034535  -0.033682   0.006805   0.006810  -0.032768  -0.070640
     2  C   -0.014317   0.034754  -0.018875  -0.018873   0.030511  -0.035640
     3  C    0.005016  -0.019125   0.029278  -0.015235  -0.023178   0.024518
     4  C    0.402660   0.408785  -0.015239   0.029275  -0.023175   0.024516
     5  C    0.018886  -0.013306   0.375069   0.375076   0.428749  -0.019264
     6  O   -0.003013   0.000059   0.000149   0.000149  -0.000484   0.129404
     7  H    0.000775   0.000073   0.000805  -0.000280  -0.000056   0.000348
     8  H   -0.000221  -0.000314  -0.000279   0.000804  -0.000056   0.000345
     9  H    0.000939   0.000000  -0.000392   0.000082   0.000101   0.000011
    10  H    0.000085   0.000143   0.000031   0.000614   0.000267  -0.000322
    11  H    0.000000   0.000700   0.000135   0.000344   0.000716   0.000058
    12  H   -0.023012  -0.025053   0.000615   0.000031   0.000266  -0.000322
    13  H    0.499243  -0.023931   0.000082  -0.000392   0.000101   0.000011
    14  H   -0.023931   0.511575   0.000343   0.000135   0.000717   0.000058
    15  H    0.000082   0.000343   0.513684  -0.025071  -0.023477   0.000125
    16  H   -0.000392   0.000135  -0.025071   0.513628  -0.023464   0.000125
    17  H    0.000101   0.000717  -0.023477  -0.023464   0.503147   0.000105
    18  O    0.000011   0.000058   0.000125   0.000125   0.000105   8.050286
 Mulliken atomic charges:
              1
     1  C   -0.002829
     2  C   -0.196948
     3  C   -0.511998
     4  C   -0.511935
     5  C   -0.452737
     6  O   -0.031839
     7  H    0.180206
     8  H    0.180202
     9  H    0.171619
    10  H    0.158895
    11  H    0.158089
    12  H    0.158872
    13  H    0.171621
    14  H    0.158068
    15  H    0.156212
    16  H    0.156242
    17  H    0.161979
    18  O   -0.103719
 Sum of Mulliken atomic charges =   0.00000
 Mulliken charges with hydrogens summed into heavy atoms:
              1
     1  C   -0.002829
     2  C    0.163459
     3  C   -0.023395
     4  C   -0.023373
     5  C    0.021696
     6  O   -0.031839
    18  O   -0.103719
 Sum of Mulliken charges with hydrogens summed into heavy atoms =   0.00000
          Atomic-Atomic Spin Densities.
              1          2          3          4          5          6
     1  C   -0.033699   0.000264   0.018966   0.018905  -0.004330   0.012265
     2  C    0.000264  -0.016307  -0.000056  -0.000049  -0.004639  -0.014215
     3  C    0.018966  -0.000056  -0.027250   0.008857   0.001732   0.000467
     4  C    0.018905  -0.000049   0.008857  -0.027202   0.001729   0.000473
     5  C   -0.004330  -0.004639   0.001732   0.001729   0.003466   0.001492
     6  O    0.012265  -0.014215   0.000467   0.000473   0.001492   0.432880
     7  H   -0.000241   0.004544  -0.002759   0.002678  -0.000601  -0.003349
     8  H   -0.000250   0.004546   0.002680  -0.002756  -0.000601  -0.003347
     9  H   -0.000206   0.000221   0.000650  -0.001362   0.000568  -0.000431
    10  H    0.000556   0.000506  -0.002206   0.000613   0.000065  -0.000487
    11  H   -0.002001   0.000056   0.003395  -0.001390   0.000207   0.000156
    12  H    0.000557   0.000505   0.000612  -0.002206   0.000066  -0.000487
    13  H   -0.000201   0.000220  -0.001363   0.000648   0.000568  -0.000431
    14  H   -0.002001   0.000056  -0.001390   0.003397   0.000206   0.000156
    15  H    0.000317   0.000035   0.000043  -0.000334   0.000054  -0.000035
    16  H    0.000317   0.000035  -0.000334   0.000043   0.000054  -0.000035
    17  H   -0.000689   0.000300  -0.000095  -0.000094   0.000615  -0.000010
    18  O   -0.011041   0.020378  -0.000377  -0.000377  -0.000715  -0.158633
              7          8          9         10         11         12
     1  C   -0.000241  -0.000250  -0.000206   0.000556  -0.002001   0.000557
     2  C    0.004544   0.004546   0.000221   0.000506   0.000056   0.000505
     3  C   -0.002759   0.002680   0.000650  -0.002206   0.003395   0.000612
     4  C    0.002678  -0.002756  -0.001362   0.000613  -0.001390  -0.002206
     5  C   -0.000601  -0.000601   0.000568   0.000065   0.000207   0.000066
     6  O   -0.003349  -0.003347  -0.000431  -0.000487   0.000156  -0.000487
     7  H    0.005410  -0.001318  -0.000020  -0.000062   0.000035   0.000235
     8  H   -0.001318   0.005410   0.000059   0.000235  -0.000072  -0.000062
     9  H   -0.000020   0.000059   0.000489   0.000250  -0.000315  -0.000026
    10  H   -0.000062   0.000235   0.000250   0.000040   0.000009  -0.000007
    11  H    0.000035  -0.000072  -0.000315   0.000009   0.000016   0.000010
    12  H    0.000235  -0.000062  -0.000026  -0.000007   0.000010   0.000040
    13  H    0.000059  -0.000020  -0.000028  -0.000026   0.000086   0.000250
    14  H   -0.000072   0.000035   0.000086   0.000010   0.000042   0.000009
    15  H    0.000087  -0.000049  -0.000004  -0.000001  -0.000003   0.000017
    16  H   -0.000049   0.000087   0.000009   0.000017   0.000007  -0.000001
    17  H    0.000007   0.000007   0.000000  -0.000002  -0.000003  -0.000002
    18  O    0.004279   0.004278   0.000231   0.000088  -0.000004   0.000088
             13         14         15         16         17         18
     1  C   -0.000201  -0.002001   0.000317   0.000317  -0.000689  -0.011041
     2  C    0.000220   0.000056   0.000035   0.000035   0.000300   0.020378
     3  C   -0.001363  -0.001390   0.000043  -0.000334  -0.000095  -0.000377
     4  C    0.000648   0.003397  -0.000334   0.000043  -0.000094  -0.000377
     5  C    0.000568   0.000206   0.000054   0.000054   0.000615  -0.000715
     6  O   -0.000431   0.000156  -0.000035  -0.000035  -0.000010  -0.158633
     7  H    0.000059  -0.000072   0.000087  -0.000049   0.000007   0.004279
     8  H   -0.000020   0.000035  -0.000049   0.000087   0.000007   0.004278
     9  H   -0.000028   0.000086  -0.000004   0.000009   0.000000   0.000231
    10  H   -0.000026   0.000010  -0.000001   0.000017  -0.000002   0.000088
    11  H    0.000086   0.000042  -0.000003   0.000007  -0.000003  -0.000004
    12  H    0.000250   0.000009   0.000017  -0.000001  -0.000002   0.000088
    13  H    0.000489  -0.000315   0.000009  -0.000004   0.000000   0.000231
    14  H   -0.000315   0.000016   0.000007  -0.000003  -0.000003  -0.000003
    15  H    0.000009   0.000007  -0.000272   0.000018   0.000013   0.000007
    16  H   -0.000004  -0.000003   0.000018  -0.000272   0.000013   0.000007
    17  H    0.000000  -0.000003   0.000013   0.000013  -0.000293  -0.000003
    18  O    0.000231  -0.000003   0.000007   0.000007  -0.000003   0.860859
 Mulliken atomic spin densities:
              1
     1  C   -0.002512
     2  C   -0.003600
     3  C    0.001572
     4  C    0.001573
     5  C   -0.000064
     6  O    0.266429
     7  H    0.008863
     8  H    0.008862
     9  H    0.000171
    10  H   -0.000401
    11  H    0.000233
    12  H   -0.000401
    13  H    0.000171
    14  H    0.000233
    15  H   -0.000092
    16  H   -0.000092
    17  H   -0.000237
    18  O    0.719292
 Sum of Mulliken atomic spin densities =   1.00000
 Electronic spatial extent (au):  <R**2>=            902.5981
 Charge=              0.0000 electrons
 Dipole moment (field-independent basis, Debye):
    X=              2.7113    Y=              0.6996    Z=              0.0000  Tot=              2.8001
 Quadrupole moment (field-independent basis, Debye-Ang):
   XX=            -52.0944   YY=            -44.6613   ZZ=            -44.0880
   XY=             -0.6716   XZ=              0.0002   YZ=              0.0002
 Traceless Quadrupole moment (field-independent basis, Debye-Ang):
   XX=             -5.1465   YY=              2.2866   ZZ=              2.8599
   XY=             -0.6716   XZ=              0.0002   YZ=              0.0002
 Octapole moment (field-independent basis, Debye-Ang**2):
  XXX=              8.1319  YYY=             -0.8279  ZZZ=              0.0004  XYY=             -5.8391
  XXY=             -1.8916  XXZ=             -0.0001  XZZ=             -7.8688  YZZ=              2.7035
  YYZ=              0.0014  XYZ=             -0.0002
 Hexadecapole moment (field-independent basis, Debye-Ang**3):
 XXXX=           -749.6449 YYYY=           -245.8782 ZZZZ=           -237.4239 XXXY=             -6.9876
 XXXZ=              0.0008 YYYX=              1.3446 YYYZ=              0.0023 ZZZX=              0.0005
 ZZZY=             -0.0011 XXYY=           -160.5733 XXZZ=           -156.5331 YYZZ=            -78.4391
 XXYZ=              0.0001 YYXZ=              0.0018 ZZXY=              0.7912
 N-N= 3.290988796903D+02 E-N=-2.193944951533D+03  KE= 5.170203904952D+02
                          Isotropic Fermi Contact Couplings
        Atom                 a.u.       MegaHertz       Gauss      10(-4) cm-1
     1  C(13)             -0.00160      -1.79456      -0.64034      -0.59860
     2  C(13)             -0.01467     -16.49375      -5.88538      -5.50172
     3  C(13)              0.00021       0.24006       0.08566       0.08007
     4  C(13)              0.00021       0.24005       0.08565       0.08007
     5  C(13)             -0.00063      -0.70822      -0.25271      -0.23624
     6  O(17)              0.06495     -39.37036     -14.04832     -13.13254
     7  H(1)               0.00517      23.10827       8.24560       7.70809
     8  H(1)               0.00517      23.10547       8.24461       7.70715
     9  H(1)               0.00018       0.81023       0.28911       0.27026
    10  H(1)              -0.00001      -0.05032      -0.01796      -0.01679
    11  H(1)               0.00008       0.34235       0.12216       0.11420
    12  H(1)              -0.00001      -0.05039      -0.01798      -0.01681
    13  H(1)               0.00018       0.81024       0.28911       0.27027
    14  H(1)               0.00008       0.34270       0.12228       0.11431
    15  H(1)               0.00003       0.12181       0.04347       0.04063
    16  H(1)               0.00003       0.12179       0.04346       0.04063
    17  H(1)              -0.00010      -0.43874      -0.15655      -0.14635
    18  O(17)              0.10342     -62.69493     -22.37111     -20.91278
 --------------------------------------------------------
       Center         ----  Spin Dipole Couplings  ----
                      3XX-RR        3YY-RR        3ZZ-RR
 --------------------------------------------------------
     1   Atom        0.007540     -0.004139     -0.003402
     2   Atom        0.018683      0.000904     -0.019587
     3   Atom        0.005184     -0.002866     -0.002318
     4   Atom        0.005184     -0.002866     -0.002318
     5   Atom        0.002583     -0.001440     -0.001143
     6   Atom       -0.819189     -0.810757      1.629946
     7   Atom        0.006252      0.000723     -0.006975
     8   Atom        0.006253      0.000725     -0.006978
     9   Atom        0.003156     -0.000884     -0.002272
    10   Atom        0.002588     -0.002522     -0.000066
    11   Atom        0.002283     -0.001154     -0.001129
    12   Atom        0.002588     -0.002522     -0.000066
    13   Atom        0.003156     -0.000883     -0.002273
    14   Atom        0.002283     -0.001154     -0.001129
    15   Atom        0.002189     -0.000805     -0.001384
    16   Atom        0.002189     -0.000804     -0.001384
    17   Atom        0.001882     -0.000937     -0.000945
    18   Atom       -1.548127     -1.510624      3.058752
 --------------------------------------------------------
                        XY            XZ            YZ
 --------------------------------------------------------
     1   Atom        0.002097     -0.000001      0.000000
     2   Atom        0.015395     -0.000002     -0.000002
     3   Atom       -0.001169      0.003355     -0.000259
     4   Atom       -0.001170     -0.003355      0.000259
     5   Atom        0.000843      0.000000      0.000000
     6   Atom        0.049875      0.000065      0.000126
     7   Atom        0.011335     -0.007616     -0.005877
     8   Atom        0.011336      0.007613      0.005875
     9   Atom       -0.004892      0.003768     -0.002594
    10   Atom       -0.000326      0.003648     -0.000073
    11   Atom       -0.001062      0.001088     -0.000258
    12   Atom       -0.000326     -0.003648      0.000074
    13   Atom       -0.004893     -0.003767      0.002594
    14   Atom       -0.001062     -0.001087      0.000258
    15   Atom        0.001618     -0.000747     -0.000321
    16   Atom        0.001618      0.000746      0.000321
    17   Atom        0.000466      0.000000      0.000000
    18   Atom        0.012744      0.000126      0.000232
 --------------------------------------------------------


 ---------------------------------------------------------------------------------
              Anisotropic Spin Dipole Couplings in Principal Axis System
 ---------------------------------------------------------------------------------

       Atom             a.u.   MegaHertz   Gauss  10(-4) cm-1        Axes

              Baa    -0.0045    -0.604    -0.216    -0.202 -0.1715  0.9852 -0.0002
     1 C(13)  Bbb    -0.0034    -0.456    -0.163    -0.152  0.0000  0.0002  1.0000
              Bcc     0.0079     1.061     0.379     0.354  0.9852  0.1715  0.0000
 
              Baa    -0.0196    -2.628    -0.938    -0.877  0.0000  0.0001  1.0000
     2 C(13)  Bbb    -0.0080    -1.071    -0.382    -0.357 -0.5000  0.8660 -0.0001
              Bcc     0.0276     3.700     1.320     1.234  0.8660  0.5000  0.0000
 
              Baa    -0.0036    -0.489    -0.175    -0.163 -0.3729 -0.2634  0.8897
     3 C(13)  Bbb    -0.0030    -0.398    -0.142    -0.133  0.0176  0.9567  0.2906
              Bcc     0.0066     0.887     0.317     0.296  0.9277 -0.1240  0.3521
 
              Baa    -0.0036    -0.489    -0.175    -0.163  0.3729  0.2637  0.8896
     4 C(13)  Bbb    -0.0030    -0.398    -0.142    -0.133  0.0176  0.9566 -0.2909
              Bcc     0.0066     0.887     0.317     0.296  0.9277 -0.1242 -0.3520
 
              Baa    -0.0016    -0.216    -0.077    -0.072 -0.1971  0.9804  0.0001
     5 C(13)  Bbb    -0.0011    -0.153    -0.055    -0.051  0.0000  0.0000  1.0000
              Bcc     0.0028     0.369     0.132     0.123  0.9804  0.1971  0.0000
 
              Baa    -0.8650    62.593    22.335    20.879  0.7363 -0.6767  0.0000
     6 O(17)  Bbb    -0.7649    55.349    19.750    18.462  0.6767  0.7363 -0.0001
              Bcc     1.6299  -117.942   -42.085   -39.341  0.0000  0.0001  1.0000
 
              Baa    -0.0106    -5.642    -2.013    -1.882  0.2951  0.1909  0.9362
     7 H(1)   Bbb    -0.0082    -4.363    -1.557    -1.455 -0.6077  0.7936  0.0297
              Bcc     0.0188    10.005     3.570     3.337  0.7373  0.5777 -0.3502
 
              Baa    -0.0106    -5.642    -2.013    -1.882 -0.2951 -0.1908  0.9362
     8 H(1)   Bbb    -0.0082    -4.363    -1.557    -1.455 -0.6077  0.7936 -0.0298
              Bcc     0.0188    10.005     3.570     3.337  0.7373  0.5778  0.3501
 
              Baa    -0.0043    -2.275    -0.812    -0.759 -0.0311  0.5799  0.8141
     9 H(1)   Bbb    -0.0041    -2.202    -0.786    -0.735  0.6459  0.6332 -0.4264
              Bcc     0.0084     4.477     1.598     1.493  0.7628 -0.5126  0.3943
 
              Baa    -0.0027    -1.447    -0.516    -0.483 -0.4852 -0.5815  0.6530
    10 H(1)   Bbb    -0.0024    -1.304    -0.465    -0.435 -0.3068  0.8125  0.4957
              Bcc     0.0052     2.750     0.981     0.917  0.8188 -0.0402  0.5726
 
              Baa    -0.0015    -0.798    -0.285    -0.266  0.3725  0.6908 -0.6197
    11 H(1)   Bbb    -0.0014    -0.746    -0.266    -0.249 -0.0234  0.6745  0.7379
              Bcc     0.0029     1.544     0.551     0.515  0.9277 -0.2604  0.2675
 
              Baa    -0.0027    -1.447    -0.516    -0.483  0.4852  0.5815  0.6529
    12 H(1)   Bbb    -0.0024    -1.304    -0.465    -0.435 -0.3067  0.8125 -0.4957
              Bcc     0.0052     2.750     0.981     0.917  0.8188 -0.0403 -0.5726
 
              Baa    -0.0043    -2.275    -0.812    -0.759  0.0308 -0.5800  0.8140
    13 H(1)   Bbb    -0.0041    -2.202    -0.786    -0.735  0.6459  0.6331  0.4266
              Bcc     0.0084     4.477     1.598     1.494  0.7628 -0.5127 -0.3941
 
              Baa    -0.0015    -0.798    -0.285    -0.266  0.3725  0.6911  0.6194
    14 H(1)   Bbb    -0.0014    -0.746    -0.266    -0.249  0.0235 -0.6742  0.7381
              Bcc     0.0029     1.544     0.551     0.515  0.9277 -0.2604 -0.2674
 
              Baa    -0.0015    -0.819    -0.292    -0.273  0.2443 -0.1179  0.9625
    15 H(1)   Bbb    -0.0015    -0.806    -0.288    -0.269 -0.3577  0.9116  0.2025
              Bcc     0.0030     1.625     0.580     0.542  0.9013  0.3938 -0.1805
 
              Baa    -0.0015    -0.819    -0.292    -0.273 -0.2444  0.1185  0.9624
    16 H(1)   Bbb    -0.0015    -0.806    -0.288    -0.269 -0.3576  0.9115 -0.2031
              Bcc     0.0030     1.625     0.580     0.542  0.9013  0.3938  0.1804
 
              Baa    -0.0010    -0.540    -0.193    -0.180 -0.1590  0.9873  0.0001
    17 H(1)   Bbb    -0.0009    -0.504    -0.180    -0.168  0.0000 -0.0001  1.0000
              Bcc     0.0020     1.044     0.373     0.348  0.9873  0.1590  0.0000
 
              Baa    -1.5520   112.305    40.073    37.461  0.9558 -0.2941  0.0000
    18 O(17)  Bbb    -1.5067   109.024    38.902    36.366  0.2941  0.9558 -0.0001
              Bcc     3.0588  -221.329   -78.976   -73.827  0.0000  0.0001  1.0000
 

 ---------------------------------------------------------------------------------

 Calling FoFJK, ICntrl=      2127 FMM=F ISym2X=0 I1Cent= 0 IOpClX= 1 NMat=1 NMatS=1 NMatT=0.
 ***** Axes restored to original set *****
 -------------------------------------------------------------------
 Center     Atomic                   Forces (Hartrees/Bohr)
 Number     Number              X              Y              Z
 -------------------------------------------------------------------
      1        6          -0.004128480   -0.005575004    0.000369860
      2        6          -0.033547435    0.030002518    0.015299720
      3        6          -0.000413408   -0.003440039   -0.005621379
      4        6           0.002452297   -0.004910480    0.003686420
      5        6           0.003029869    0.006631038    0.000181250
      6        8           0.027127531    0.010168448   -0.006834867
      7        1          -0.003514095   -0.008323993   -0.011734833
      8        1           0.002872016   -0.011624942    0.008728790
      9        1          -0.006134181    0.011040437    0.003063268
     10        1          -0.000399848   -0.008219970    0.009154308
     11        1           0.012540917    0.003270316   -0.002714423
     12        1          -0.006167518   -0.005272956   -0.009311423
     13        1          -0.005792686    0.010870854    0.004187865
     14        1           0.012198397    0.003458770   -0.003925235
     15        1          -0.006400702   -0.004528766   -0.009520322
     16        1          -0.000409704   -0.007600375    0.009653626
     17        1           0.013228482    0.001912851   -0.003830069
     18        8          -0.006541451   -0.017858708   -0.000832557
 -------------------------------------------------------------------
 Cartesian Forces:  Max     0.033547435 RMS     0.010207208

 GradGradGradGradGradGradGradGradGradGradGradGradGradGradGradGradGradGrad
 Berny optimization.
 Internal  Forces:  Max     0.037653189 RMS     0.007002179
 Search for a local minimum.
 Step number   1 out of a maximum of   97
 All quantities printed in internal units (Hartrees-Bohrs-Radians)
 Swaping is turned off.
 Second derivative matrix not updated -- first step.
 ITU=  0
     Eigenvalues ---    0.00230   0.00230   0.00230   0.00230   0.01620
     Eigenvalues ---    0.04580   0.04778   0.04847   0.05005   0.05471
     Eigenvalues ---    0.05471   0.05489   0.05492   0.05501   0.05502
     Eigenvalues ---    0.05848   0.11450   0.13849   0.14350   0.14416
     Eigenvalues ---    0.16000   0.16000   0.16000   0.16000   0.16000
     Eigenvalues ---    0.16000   0.16000   0.16000   0.16000   0.22045
     Eigenvalues ---    0.25000   0.27859   0.28330   0.28332   0.28386
     Eigenvalues ---    0.32089   0.32091   0.32428   0.32432   0.32434
     Eigenvalues ---    0.32435   0.32438   0.32440   0.32446   0.32481
     Eigenvalues ---    0.32482   0.44736   0.62141
 Angle between quadratic step and forces=  35.95 degrees.
 Linear search not attempted -- option 19 set.
 Iteration  1 RMS(Cart)=  0.04817270 RMS(Int)=  0.00300577
 Iteration  2 RMS(Cart)=  0.00287140 RMS(Int)=  0.00021971
 Iteration  3 RMS(Cart)=  0.00000081 RMS(Int)=  0.00021971
 Variable       Old X    -DE/DX   Delta X   Delta X   Delta X     New X
                                 (Linear)    (Quad)   (Total)
    R1        2.92447  -0.01333   0.00000  -0.04783  -0.04783   2.87664
    R2        2.91423  -0.00675   0.00000  -0.02384  -0.02384   2.89039
    R3        2.91418  -0.00675   0.00000  -0.02381  -0.02381   2.89037
    R4        2.91301  -0.00857   0.00000  -0.03018  -0.03018   2.88284
    R5        2.65584   0.01894   0.00000   0.04233   0.04233   2.69817
    R6        2.10678  -0.01431   0.00000  -0.04460  -0.04460   2.06219
    R7        2.10681  -0.01432   0.00000  -0.04462  -0.04462   2.06218
    R8        2.09970  -0.01297   0.00000  -0.03993  -0.03993   2.05977
    R9        2.10036  -0.01229   0.00000  -0.03787  -0.03787   2.06249
   R10        2.10057  -0.01323   0.00000  -0.04080  -0.04080   2.05977
   R11        2.10050  -0.01233   0.00000  -0.03801  -0.03801   2.06249
   R12        2.09973  -0.01298   0.00000  -0.03997  -0.03997   2.05976
   R13        2.10068  -0.01326   0.00000  -0.04090  -0.04090   2.05978
   R14        2.10060  -0.01229   0.00000  -0.03789  -0.03789   2.06271
   R15        2.10045  -0.01225   0.00000  -0.03775  -0.03775   2.06270
   R16        2.10055  -0.01385   0.00000  -0.04271  -0.04271   2.05784
   R17        2.49285  -0.01157   0.00000  -0.01862  -0.01862   2.47423
    A1        1.92123   0.00018   0.00000  -0.00672  -0.00657   1.91467
    A2        1.92121   0.00018   0.00000  -0.00668  -0.00653   1.91468
    A3        1.90372  -0.00266   0.00000  -0.03417  -0.03403   1.86970
    A4        1.91121  -0.00039   0.00000   0.01294   0.01260   1.92382
    A5        1.90307   0.00136   0.00000   0.01752   0.01706   1.92012
    A6        1.90316   0.00135   0.00000   0.01742   0.01696   1.92012
    A7        1.93175  -0.00375   0.00000  -0.02327  -0.02310   1.90865
    A8        1.90756   0.00347   0.00000   0.02829   0.02766   1.93521
    A9        1.90759   0.00347   0.00000   0.02827   0.02764   1.93523
   A10        1.91420  -0.00135   0.00000  -0.02476  -0.02455   1.88965
   A11        1.91421  -0.00135   0.00000  -0.02478  -0.02457   1.88964
   A12        1.88797  -0.00037   0.00000   0.01756   0.01636   1.90432
   A13        1.93546   0.00109   0.00000   0.00816   0.00814   1.94361
   A14        1.93060   0.00096   0.00000   0.00583   0.00581   1.93641
   A15        1.93056  -0.00112   0.00000  -0.00817  -0.00816   1.92241
   A16        1.89053  -0.00084   0.00000  -0.00299  -0.00303   1.88750
   A17        1.88537   0.00006   0.00000   0.00068   0.00070   1.88607
   A18        1.88981  -0.00019   0.00000  -0.00380  -0.00379   1.88602
   A19        1.93056   0.00096   0.00000   0.00588   0.00586   1.93642
   A20        1.93553   0.00108   0.00000   0.00809   0.00808   1.94361
   A21        1.93049  -0.00111   0.00000  -0.00809  -0.00808   1.92242
   A22        1.89059  -0.00084   0.00000  -0.00304  -0.00308   1.88750
   A23        1.88971  -0.00019   0.00000  -0.00374  -0.00373   1.88598
   A24        1.88546   0.00005   0.00000   0.00060   0.00062   1.88608
   A25        1.93147   0.00170   0.00000   0.01232   0.01225   1.94372
   A26        1.93156   0.00169   0.00000   0.01224   0.01216   1.94372
   A27        1.93246  -0.00237   0.00000  -0.01821  -0.01816   1.91430
   A28        1.88974  -0.00108   0.00000  -0.00026  -0.00044   1.88930
   A29        1.88851   0.00001   0.00000  -0.00314  -0.00309   1.88542
   A30        1.88866   0.00001   0.00000  -0.00324  -0.00319   1.88547
   A31        1.84811   0.03765   0.00000   0.15061   0.15061   1.99872
    D1       -1.05426   0.00013   0.00000  -0.00362  -0.00352  -1.05778
    D2        3.11892   0.00194   0.00000   0.02353   0.02403  -3.14024
    D3        1.05578  -0.00168   0.00000  -0.03081  -0.03110   1.02468
    D4        1.05414  -0.00013   0.00000   0.00385   0.00374   1.05789
    D5       -1.05586   0.00168   0.00000   0.03100   0.03129  -1.02457
    D6       -3.11900  -0.00193   0.00000  -0.02335  -0.02384   3.14034
    D7        3.14158   0.00000   0.00000   0.00006   0.00006  -3.14154
    D8        1.03158   0.00180   0.00000   0.02722   0.02761   1.05919
    D9       -1.03156  -0.00181   0.00000  -0.02713  -0.02752  -1.05908
   D10        1.08210   0.00082   0.00000  -0.01733  -0.01728   1.06481
   D11       -1.01584   0.00052   0.00000  -0.02279  -0.02277  -1.03861
   D12       -3.10966   0.00086   0.00000  -0.01652  -0.01649  -3.12615
   D13       -1.03230   0.00073   0.00000  -0.01308  -0.01304  -1.04534
   D14       -3.13023   0.00043   0.00000  -0.01854  -0.01853   3.13442
   D15        1.05913   0.00077   0.00000  -0.01226  -0.01224   1.04689
   D16       -3.11335  -0.00149   0.00000  -0.05243  -0.05247   3.11736
   D17        1.07190  -0.00179   0.00000  -0.05789  -0.05796   1.01394
   D18       -1.02192  -0.00145   0.00000  -0.05161  -0.05168  -1.07360
   D19        1.01596  -0.00052   0.00000   0.02267   0.02265   1.03862
   D20       -1.08205  -0.00082   0.00000   0.01728   0.01723  -1.06482
   D21        3.10959  -0.00086   0.00000   0.01656   0.01653   3.12612
   D22        3.13037  -0.00044   0.00000   0.01840   0.01839  -3.13442
   D23        1.03236  -0.00073   0.00000   0.01301   0.01297   1.04533
   D24       -1.05919  -0.00077   0.00000   0.01228   0.01226  -1.04692
   D25       -1.07182   0.00179   0.00000   0.05781   0.05788  -1.01394
   D26        3.11335   0.00150   0.00000   0.05242   0.05246  -3.11737
   D27        1.02181   0.00146   0.00000   0.05169   0.05176   1.07356
   D28       -1.04752  -0.00043   0.00000  -0.00783  -0.00789  -1.05541
   D29        1.04743   0.00043   0.00000   0.00790   0.00796   1.05539
   D30       -3.14152   0.00000   0.00000  -0.00005  -0.00005  -3.14157
   D31        3.13712   0.00013   0.00000   0.01035   0.01042  -3.13565
   D32       -1.05113   0.00100   0.00000   0.02608   0.02627  -1.02485
   D33        1.04312   0.00056   0.00000   0.01812   0.01826   1.06137
   D34        1.05107  -0.00099   0.00000  -0.02602  -0.02622   1.02485
   D35       -3.13718  -0.00013   0.00000  -0.01029  -0.01037   3.13564
   D36       -1.04293  -0.00057   0.00000  -0.01825  -0.01838  -1.06131
   D37        3.14155   0.00000   0.00000   0.00000   0.00000   3.14155
   D38       -1.03557   0.00104   0.00000   0.00423   0.00433  -1.03124
   D39        1.03544  -0.00104   0.00000  -0.00419  -0.00429   1.03115
         Item               Value     Threshold  Converged?
 Maximum Force            0.037653     0.000002     NO 
 RMS     Force            0.007002     0.000001     NO 
 Maximum Displacement     0.312287     0.000006     NO 
 RMS     Displacement     0.048668     0.000004     NO 
 Predicted change in Energy=-7.583670D-03
 GradGradGradGradGradGradGradGradGradGradGradGradGradGradGradGradGradGrad

                          Input orientation:                          
 ---------------------------------------------------------------------
 Center     Atomic      Atomic             Coordinates (Angstroms)
 Number     Number       Type             X           Y           Z
 ---------------------------------------------------------------------
      1          6           0       -0.202311    0.031123    0.068187
      2          6           0        1.214697    0.440538   -0.308269
      3          6           0       -0.899115   -0.589035   -1.143969
      4          6           0       -0.159996   -0.970336    1.223483
      5          6           0       -0.935634    1.296887    0.500995
      6          8           0        1.946426   -0.713373   -0.722645
      7          1           0        1.730706    0.884808    0.544498
      8          1           0        1.206965    1.155083   -1.133020
      9          1           0       -0.378193   -1.482901   -1.487057
     10          1           0       -0.942271    0.118750   -1.973654
     11          1           0       -1.920142   -0.870711   -0.886617
     12          1           0        0.328840   -0.537008    2.097822
     13          1           0        0.381190   -1.874665    0.945356
     14          1           0       -1.172104   -1.256589    1.509432
     15          1           0       -0.452470    1.761552    1.362449
     16          1           0       -0.973512    2.030356   -0.306491
     17          1           0       -1.958790    1.050477    0.780767
     18          8           0        3.185714   -0.474655   -1.071166
 ---------------------------------------------------------------------
                    Distance matrix (angstroms):
                    1          2          3          4          5
     1  C    0.000000
     2  C    1.522252   0.000000
     3  C    1.529528   2.495318   0.000000
     4  C    1.529516   2.495318   2.509286   0.000000
     5  C    1.525531   2.451972   2.502788   2.502779   0.000000
     6  O    2.407646   1.427811   2.879249   2.879316   3.720848
     7  H    2.166149   1.091262   3.455299   2.734472   2.698345
     8  H    2.166158   1.091260   2.734527   3.455300   2.698304
     9  H    2.177611   2.761604   1.089984   2.767193   3.462704
    10  H    2.173554   2.744006   1.091421   3.466951   2.740792
    11  H    2.162382   3.446893   1.089985   2.749647   2.755577
    12  H    2.173549   2.744014   3.466957   1.091423   2.740789
    13  H    2.177597   2.761607   2.767183   1.089976   3.462690
    14  H    2.162380   3.446896   2.749670   1.089986   2.755558
    15  H    2.175334   2.704778   3.465095   2.751012   1.091542
    16  H    2.175331   2.704770   2.751020   3.465080   1.091533
    17  H    2.152225   3.410139   2.741445   2.741412   1.088963
    18  O    3.610077   2.303150   4.087079   4.087162   4.753479
                    6          7          8          9         10
     6  O    0.000000
     7  H    2.050943   0.000000
     8  H    2.050935   1.778038   0.000000
     9  H    2.565220   3.765729   3.097907   0.000000
    10  H    3.256075   3.751365   2.529796   1.766422   0.000000
    11  H    3.873240   4.296350   3.734080   1.764344   1.765478
    12  H    3.256182   2.529744   3.751349   3.774383   4.315398
    13  H    2.565305   3.097833   3.765756   2.578134   3.774370
    14  H    3.873304   3.734031   4.296357   3.108127   3.751835
    15  H    4.028346   2.490779   3.057597   4.318759   3.750772
    16  H    4.028308   3.057655   2.490729   3.753813   2.536660
    17  H    4.541159   3.700763   3.700747   3.749575   3.080303
    18  O    1.309308   2.564285   2.564238   3.727058   4.266952
                   11         12         13         14         15
    11  H    0.000000
    12  H    3.751820   0.000000
    13  H    3.108082   1.766421   0.000000
    14  H    2.539588   1.765456   1.764348   0.000000
    15  H    3.760474   2.536651   3.753802   3.106228   0.000000
    16  H    3.106258   3.750760   4.318741   3.760454   1.768927
    17  H    2.544135   3.080259   3.749540   2.544086   1.764364
    18  O    5.124518   4.267095   3.727163   5.124597   4.915231
                   16         17         18
    16  H    0.000000
    17  H    1.764389   0.000000
    18  O    4.915177   5.676408   0.000000
 Stoichiometry    C5H11O2(2)
 Framework group  C1[X(C5H11O2)]
 Deg. of freedom    48
 Full point group                 C1      NOp   1
 Largest Abelian subgroup         C1      NOp   1
 Largest concise Abelian subgroup C1      NOp   1
                         Standard orientation:                         
 ---------------------------------------------------------------------
 Center     Atomic      Atomic             Coordinates (Angstroms)
 Number     Number       Type             X           Y           Z
 ---------------------------------------------------------------------
      1          6           0       -0.805686    0.006588   -0.000001
      2          6           0        0.552880    0.693281   -0.000011
      3          6           0       -0.947057   -0.856832   -1.254583
      4          6           0       -0.947159   -0.856617    1.254703
      5          6           0       -1.864266    1.105065   -0.000136
      6          8           0        1.582937   -0.295469    0.000038
      7          1           0        0.674777    1.314307    0.888989
      8          1           0        0.674813    1.314242   -0.889049
      9          1           0       -0.184670   -1.635068   -1.288913
     10          1           0       -0.855151   -0.250893   -2.157683
     11          1           0       -1.924040   -1.339887   -1.269719
     12          1           0       -0.855327   -0.250532    2.157715
     13          1           0       -0.184789   -1.634851    1.289221
     14          1           0       -1.924157   -1.339644    1.269869
     15          1           0       -1.779496    1.739162    0.884283
     16          1           0       -1.779424    1.739015   -0.884644
     17          1           0       -2.857072    0.657653   -0.000110
     18          8           0        2.799846    0.187668   -0.000013
 ---------------------------------------------------------------------
 Rotational constants (GHZ):      4.3538862      1.5769839      1.5661819
 Standard basis: 6-311+G(2df,2p) (5D, 7F)
 There are   337 symmetry adapted basis functions of A   symmetry.
 Integral buffers will be    131072 words long.
 Raffenetti 2 integral format.
 Two-electron integral symmetry is turned on.
   337 basis functions,   485 primitive gaussians,   372 cartesian basis functions
    29 alpha electrons       28 beta electrons
       nuclear repulsion energy       331.1616016735 Hartrees.
 NAtoms=   18 NActive=   18 NUniq=   18 SFac= 1.00D+00 NAtFMM=   50 NAOKFM=F Big=F
 One-electron integrals computed using PRISM.
 NBasis=   337 RedAO= T  NBF=   337
 NBsUse=   337 1.00D-06 NBFU=   337
 Initial guess read from the read-write file.
 B after Tr=     0.000000    0.000000    0.000000
         Rot=    1.000000    0.000000    0.000000    0.000000 Ang=   0.00 deg.
 Initial guess orbital symmetries:
 Alpha Orbitals:
       Occupied  (A) (A) (A) (A) (A) (A) (A) (A) (A) (A) (A) (A)
                 (A) (A) (A) (A) (A) (A) (A) (A) (A) (A) (A) (A)
                 (A) (A) (A) (A) (A)
       Virtual   (A) (A) (A) (A) (A) (A) (A) (A) (A) (A) (A) (A)
                 (A) (A) (A) (A) (A) (A) (A) (A) (A) (A) (A) (A)
                 (A) (A) (A) (A) (A) (A) (A) (A) (A) (A) (A) (A)
                 (A) (A) (A) (A) (A) (A) (A) (A) (A) (A) (A) (A)
                 (A) (A) (A) (A) (A) (A) (A) (A) (A) (A) (A) (A)
                 (A) (A) (A) (A) (A) (A) (A) (A) (A) (A) (A) (A)
                 (A) (A) (A) (A) (A) (A) (A) (A) (A) (A) (A) (A)
                 (A) (A) (A) (A) (A) (A) (A) (A) (A) (A) (A) (A)
                 (A) (A) (A) (A) (A) (A) (A) (A) (A) (A) (A) (A)
                 (A) (A) (A) (A) (A) (A) (A) (A) (A) (A) (A) (A)
                 (A) (A) (A) (A) (A) (A) (A) (A) (A) (A) (A) (A)
                 (A) (A) (A) (A) (A) (A) (A) (A) (A) (A) (A) (A)
                 (A) (A) (A) (A) (A) (A) (A) (A) (A) (A) (A) (A)
                 (A) (A) (A) (A) (A) (A) (A) (A) (A) (A) (A) (A)
                 (A) (A) (A) (A) (A) (A) (A) (A) (A) (A) (A) (A)
                 (A) (A) (A) (A) (A) (A) (A) (A) (A) (A) (A) (A)
                 (A) (A) (A) (A) (A) (A) (A) (A) (A) (A) (A) (A)
                 (A) (A) (A) (A) (A) (A) (A) (A) (A) (A) (A) (A)
                 (A) (A) (A) (A) (A) (A) (A) (A) (A) (A) (A) (A)
                 (A) (A) (A) (A) (A) (A) (A) (A) (A) (A) (A) (A)
                 (A) (A) (A) (A) (A) (A) (A) (A) (A) (A) (A) (A)
                 (A) (A) (A) (A) (A) (A) (A) (A) (A) (A) (A) (A)
[...]
 20244,0.0137093,-0.0109165,0.0373676,-0.6547041,-0.0235779,0.1590564,-
 0.0411591,-0.2438804,-0.0049767,0.1562233,-0.0104644,-0.1836503,-0.043
 3658,-0.0260088,-0.0482712,0.0558184,0.0273817,-0.0381988,-0.0303162,-
 0.069517,-0.0401449,0.0018657,0.0114221,0.0297802,0.0630062,-0.0076666
 ,0.01928,0.0333098,0.0922568,-0.0503259,0.0473478,0.0708132,0.0186832,
 0.05148,-0.0453381,-0.0658854,0.0007194,-0.0349326,0.0311028,0.0635326
 ,-0.0169783,-0.006695,0.0078512,-0.029611,0.1145722,-0.0249316,0.06532
 46,-0.0643653,-0.1148314,-0.0539114,0.0187612,-0.0382743,0.0589835,-0.
 0022775,0.0670038,0.0129351,0.0393884,0.0281639,-0.0329288,-0.0840816,
 -0.0461613,0.0158874,-0.0769115,-0.0639775,-0.0240433,-0.0744951,0.046
 7397,0.0721266,0.0031381,0.0690972,-0.0549418,-0.0024521,0.0175002,-0.
 0403881,0.0413159,-0.1125347,-0.0583458,0.0671868,-0.0238562,0.0532236
 ,0.0227121,0.0270182,0.0231525,0.0428512,0.0213867,-0.0420002,-0.08537
 98,-0.0071919,0.013103,-0.0564419,-0.0569604,-0.0867749,-0.0584874,0.0
 655171,0.0060193,0.0107779,0.0244665,-0.0397426,0.0682529,-0.0090633,0
 .115214,-0.049772,-0.1048718,-0.0048795,0.0539744,-0.0593638,0.0356521
 ,0.0129225,0.0451988,-0.0040894,0.0557317,0.1118829,0.1569277,-0.06388
 32,0.1224376,-0.1718978,-0.0379542,-0.0694372,-0.0487254,-0.1597913\Po
 lar=79.7648307,-2.1354028,66.2609843,-5.0154544,0.9013375,66.51604\PG=
 C01 [X(C5H11O2)]\NImag=0\\0.51615973,0.00569314,0.51486225,-0.00074725
 ,-0.00112845,0.51088118,-0.17065777,-0.04470533,0.02086613,0.50179265,
 -0.03524302,-0.09174888,0.00923716,0.06167526,0.51198555,0.02239011,0.
 01219183,-0.08580167,0.04624527,-0.03634831,0.59779303,-0.10106784,-0.
 02110148,-0.03905039,-0.02401890,-0.01789935,-0.02816540,0.55475861,-0
 .01936749,-0.09541525,-0.03419414,-0.00898068,-0.00512013,-0.00730799,
 -0.02177841,0.56344258,-0.03808848,-0.03462406,-0.14491006,-0.00270651
 ,0.00235755,0.00656308,-0.04196291,-0.03360232,0.50766663,-0.07870221,
 0.00080450,-0.00158890,-0.00197731,-0.02541897,0.02741450,-0.00096658,
 0.01024432,-0.01440453,0.57895286,0.00219416,-0.12378748,0.05248168,-0
 .00578730,-0.00875299,0.01066036,0.00066515,0.00904172,-0.00754679,0.0
 0000588,0.53453156,-0.00204759,0.05388683,-0.13890380,0.00655404,0.009
 90982,-0.01184555,-0.00474145,0.01814637,-0.03059500,-0.00248398,0.055
 76269,0.51238198,-0.10453558,0.04513740,0.01610586,-0.02124192,0.02963
 533,0.01125436,0.00802126,-0.01223687,-0.00415035,-0.00125743,0.004075
 94,-0.00152163,0.55071999,0.04242495,-0.14952388,-0.02505093,0.0060123
 9,0.00399442,-0.00115585,0.00626680,-0.01818612,-0.01083662,0.01426762
 ,-0.02825911,-0.00189774,0.04343848,0.50067145,0.01566901,-0.02589793,
 -0.08530249,0.00744964,-0.00853214,-0.00418590,0.01262578,-0.02712789,
 -0.01341133,-0.01367586,0.02335365,0.00594005,0.01561027,-0.02606829,0
 .56923335,-0.02427830,0.02991359,0.01194931,-0.06914473,0.03846965,0.0
 1144246,-0.00059448,-0.00066985,0.00015000,0.00009020,-0.00000173,-0.0
 0030355,-0.00605466,-0.00397950,0.00128763,0.53685205,0.00188418,0.010
 26505,0.00129684,0.00315174,-0.19272662,-0.02359308,-0.00041871,0.0003
 7987,-0.00011054,-0.00062452,-0.00004073,0.00059555,-0.00201940,0.0001
 9797,0.00064285,0.04673886,0.32666241,0.00743498,-0.00745549,-0.004962
 19,0.00575449,-0.03462184,-0.05971529,-0.00138879,-0.00078968,-0.00012
 971,0.00117546,0.00115861,-0.00039384,0.00160340,0.00125492,-0.0001767
 8,-0.14545521,0.03045382,0.09726978,-0.01391394,-0.01063183,-0.0239356
 3,-0.11433357,-0.05374138,-0.10814352,-0.00534405,-0.00111158,0.003326
 28,0.00125447,0.00077469,-0.00124297,0.00089601,-0.00104762,-0.0011119
 1,0.00151909,0.01446494,0.02021661,0.12396138,-0.00515669,-0.00308288,
 -0.00626401,-0.04755400,-0.08084440,-0.07173626,-0.00054185,0.00027624
 ,0.00081703,-0.00009608,-0.00003949,-0.00101071,0.00071484,0.00053415,
 0.00026875,-0.00352059,-0.02685374,-0.02849957,0.05035299,0.09753270,0
 .00401969,0.00394422,0.00633138,-0.10348310,-0.07464845,-0.21213091,0.
 00182452,0.00068011,0.00023574,0.00053055,0.00013425,0.00122824,-0.000
 13227,0.00053484,0.00046913,0.00186367,-0.01085796,-0.00688170,0.10975
 961,0.08832361,0.22499313,0.00052550,-0.01884768,0.02328115,-0.0472742
 3,-0.00703374,0.00274008,0.00165710,0.00008548,0.00115838,-0.00613792,
 -0.00093217,0.00058146,0.00126814,-0.00131655,0.00009381,-0.00867938,0
 .02001300,-0.00950757,0.00149953,0.00942113,-0.01292686,0.05278246,-0.
 00088561,-0.00488967,0.00691139,-0.00248844,-0.14602416,0.12617051,0.0
 0055105,-0.00012493,0.00048829,-0.00099437,0.00062834,-0.00052775,0.00
 048741,0.00069110,-0.00046666,0.01052435,-0.03424681,0.01496567,-0.000
 53223,0.00981240,-0.00895001,-0.00228179,0.17076999,-0.00089923,0.0040
 2150,-0.00630096,-0.00019196,0.13243433,-0.21401095,-0.00068038,-0.000
 78318,0.00091104,0.00216490,-0.00023238,0.00067749,-0.00031139,0.00038
 089,-0.00006000,0.00442033,-0.01125502,0.01070944,0.00135882,0.0155575
 0,-0.01697837,-0.00453905,-0.13886781,0.22293512,0.00807966,-0.0139333
 5,-0.00459269,0.00111843,-0.00027141,0.00062619,-0.10831673,0.10687455
 ,0.03974916,0.00032458,-0.00039086,0.00057784,-0.00141623,-0.00113603,
 -0.00232820,-0.00133204,-0.00020598,-0.00053308,0.00016154,0.00016109,
 -0.00000934,-0.00009827,0.00000690,0.00007365,0.11484875,0.00560939,-0
 .01146012,-0.00291269,0.00103069,-0.00087306,-0.00080633,0.10504763,-0
 .22782411,-0.06569343,0.00000403,0.00065490,0.00083992,-0.00230475,-0.
 00016973,-0.00220988,0.00068855,0.00050032,0.00079607,0.00000553,0.000
 02778,-0.00001713,-0.00008159,-0.00003064,-0.00003847,-0.11512783,0.24
 601123,0.01377407,-0.02073421,-0.00834267,0.00084303,0.00004908,0.0004
 5399,0.03864897,-0.06466417,-0.07096128,0.00097689,-0.00092040,0.00127
 765,-0.00331016,-0.00135980,-0.00407739,-0.00006050,-0.00001569,0.0001
 5630,0.00007605,0.00002639,-0.00007702,-0.00014127,0.00004815,-0.00003
 882,-0.04086870,0.07417919,0.07637520,-0.00196274,0.01070598,-0.011378
 74,0.00083437,0.00145454,-0.00100498,-0.04725409,0.00477297,-0.0050766
 3,-0.00146336,-0.00171381,-0.00219127,0.00007514,0.00035789,0.00065199
 ,0.00008291,-0.00002561,0.00029487,0.00022415,-0.00013187,0.00019077,-
 0.00023947,-0.00040980,0.00022111,-0.00058777,0.00957200,-0.01292424,0
 .04703681,0.00006636,0.00787023,-0.01045252,0.00031142,0.00072625,-0.0
 0006068,0.00507433,-0.16023718,0.13005566,-0.00103016,-0.00045367,-0.0
 0219823,-0.00027823,0.00125220,-0.00058804,0.00021573,-0.00020487,-0.0
 0004734,0.00020957,0.00008098,-0.00004215,0.00023295,0.00008629,0.0002
 0237,-0.00113968,-0.01605019,0.02039062,-0.00422906,0.17102735,0.00026
 079,0.01750124,-0.02033687,0.00129664,0.00107392,0.00071655,-0.0054211
 7,0.12869438,-0.19495399,-0.00290513,-0.00390239,-0.00343904,0.0001147
 6,0.00169907,0.00071433,-0.00020092,-0.00013350,-0.00006310,0.00022893
 ,-0.00026597,0.00022840,-0.00074387,-0.00044702,0.00052449,-0.00041336
 ,-0.00693467,0.00852611,0.00855621,-0.14125334,0.21401092,-0.01534207,
 -0.00397696,0.00387898,0.00018467,-0.00063270,-0.00320406,-0.27777164,
 -0.06011088,0.06173736,0.00028865,0.00006815,0.00112931,0.00078555,0.0
 0087225,0.00080212,0.00005290,-0.00033530,-0.00029983,-0.00088651,-0.0
 0013963,0.00021687,0.00021750,0.00005792,0.00003499,-0.01335179,-0.004
 44683,0.00326078,0.00245460,0.00085403,-0.00051912,0.30197077,-0.01284
 108,-0.00513638,0.00346855,-0.00090767,-0.00163021,-0.00333671,-0.0596
 9321,-0.06210043,0.01635016,0.00063662,0.00019601,0.00060974,-0.000900
 37,0.00051718,0.00100326,0.00066846,0.00012361,0.00037625,-0.00098275,
 0.00011961,0.00002851,0.00031850,0.00020835,-0.00019672,0.02550088,0.0
 0839548,-0.00648233,-0.02033617,-0.00513876,0.00422983,0.06769338,0.06
 402841,-0.02558793,-0.00689122,0.00514965,-0.00187607,-0.00247770,-0.0
 0508045,0.06301003,0.01687932,-0.06195873,-0.00051695,-0.00044397,0.00
 159514,-0.00069656,0.00093725,0.00124053,0.00043922,0.00000355,0.00014
 452,-0.00152121,-0.00037138,0.00063375,-0.00000544,-0.00022012,0.00003
 251,0.00821895,0.00324091,-0.00324360,0.02328287,0.00449234,-0.0055390
 7,-0.06583497,-0.01571495,0.06704126,-0.00200790,-0.00004900,0.0001751
 4,0.00074335,0.00028494,0.00115705,0.00037610,0.00067995,0.00010500,-0
 .10112899,-0.04813368,-0.09408440,-0.00011958,-0.00048869,-0.00020860,
 0.00001542,0.00012970,-0.00031518,0.00023848,-0.00008348,-0.00008431,0
 .00005259,0.00005858,-0.00005044,-0.00001656,-0.00020958,-0.00011886,0
 .00049560,-0.00011909,-0.00029232,0.00041911,0.00010473,0.00024388,0.1
 0520248,0.01052620,0.00803452,0.01701057,0.00068369,0.00116176,-0.0001
 3403,0.00006138,-0.00274086,0.00315157,-0.04875401,-0.09084724,-0.0854
 1162,0.00013235,0.00152890,0.00084914,0.00012793,-0.00022173,-0.000125
 38,-0.00021967,0.00002427,-0.00030009,0.00021151,0.00002739,-0.0001949
 2,-0.00011112,0.00006132,0.00023671,0.00051150,0.00076541,0.00115901,0
 .00004590,-0.00016368,-0.00006616,0.05347698,0.09601986,-0.01147499,-0
 .01096316,-0.02045595,-0.00126446,-0.00150104,0.00037208,0.00082931,0.
 00487607,-0.00299132,-0.09379114,-0.08414998,-0.21046955,0.00032623,-0
 .00144277,0.00063230,0.00021923,0.00003555,0.00002127,0.00096226,0.000
 50748,0.00010858,-0.00000897,0.00018327,0.00045355,0.00011097,0.000079
 85,0.00030291,-0.00095736,-0.00051743,-0.00135990,-0.00003846,0.000006
 29,0.00028124,0.10432267,0.09023376,0.23085310,-0.00080854,-0.00084414
 ,-0.00047929,0.00031607,-0.00021015,-0.00054969,-0.00011712,0.00016614
 ,0.00034633,-0.11157656,0.10901965,0.03443936,0.00028479,-0.00010602,-
 0.00042725,-0.00058781,-0.00033213,0.00088133,-0.00005430,-0.00000095,
 -0.00006291,0.00006797,0.00013320,-0.00004248,0.00012402,0.00003300,-0
 .00043020,0.00004691,-0.00022479,-0.00002693,-0.00011334,0.00013735,0.
 00002077,0.00818601,-0.01403909,-0.00368345,0.11713789,0.00976345,-0.0
 1798973,-0.00641355,0.00134350,-0.00085253,-0.00052346,-0.00038989,0.0
 0068832,-0.00103188,0.10785089,-0.22951053,-0.05936068,-0.00082696,-0.
 00191591,0.00435215,0.00005005,0.00069671,-0.00074906,-0.00008345,-0.0
 0003731,0.00009858,0.00006049,0.00003871,0.00002145,0.00019073,0.00045
 627,0.00050237,-0.00028032,0.00013955,0.00002932,-0.00004588,-0.000041
 13,0.00012631,0.00592110,-0.00984775,-0.00244609,-0.11941455,0.2498259
 4,-0.01398973,0.02082282,0.00707502,-0.00030656,-0.00048720,0.00123585
 ,-0.00007867,0.00067817,0.00168596,0.03505705,-0.06132548,-0.06601309,
 0.00025042,0.00291207,-0.00403224,0.00061443,0.00046133,-0.00078419,0.
 00012446,-0.00004139,-0.00007611,-0.00016464,-0.00009335,0.00000562,0.
 00011069,-0.00028178,-0.00037772,0.00017809,-0.00017561,0.00016120,-0.
 00002711,-0.00011390,-0.00006160,0.01376752,-0.02019403,-0.00645006,-0
 .03815247,0.06283033,0.07026930,-0.00002913,0.00030310,-0.00070558,0.0
 0105236,0.00074040,-0.00032067,0.00045420,0.00038706,-0.00031100,-0.27
 718124,-0.06087718,0.06369735,0.00077685,0.00033846,-0.00050998,0.0000
 2349,-0.00035263,0.00023104,0.00019529,0.00019713,-0.00005801,0.000124
 55,0.00005041,0.00014832,-0.00008770,-0.00011449,0.00001830,0.00029159
 ,0.00002322,0.00004118,0.00033257,0.00016098,0.00028134,-0.01240983,-0
 .00241928,0.00407047,-0.01360834,-0.00457585,0.00299297,0.29953826,-0.
 02082111,-0.00730197,0.00557285,0.00138416,-0.00375151,0.00394898,-0.0
 0022718,0.00043303,-0.00114019,-0.05989224,-0.06175755,0.01567296,-0.0
 0151101,0.00110981,-0.00028997,0.00043527,0.00026064,-0.00069298,0.000
 37585,0.00011288,-0.00000178,-0.00132811,-0.00006929,0.00062809,0.0001
 7572,-0.00003235,0.00002791,0.00010980,-0.00012066,-0.00022920,0.00036
 385,0.00044586,0.00013785,-0.01198182,-0.00380464,0.00406274,0.0256171
 8,0.00847032,-0.00639610,0.06663179,0.06576854,0.02393129,0.00656841,-
 0.00799752,-0.00158927,0.00320508,-0.00382687,0.00132786,-0.00010080,0
 .00119255,0.06265055,0.01558180,-0.06289140,0.00040531,-0.00135498,0.0
 0065662,-0.00021943,0.00023917,0.00003687,0.00005317,0.00015880,0.0001
 5021,0.00152858,0.00033428,-0.00018840,0.00004668,-0.00006446,-0.00009
 600,-0.00021775,-0.00011134,0.00036574,-0.00069823,-0.00000658,-0.0003
 9468,-0.02468477,-0.00580237,0.00799120,0.00772150,0.00265998,-0.00306
 189,-0.06962263,-0.02117477,0.06773298,0.00669928,0.00616746,0.0132797
 1,0.00092504,0.00068891,0.00113992,-0.00144400,0.00238896,0.00091922,0
 .00042437,-0.00060969,0.00051081,-0.10034559,-0.04949070,-0.09396278,0
 .00028780,-0.00018017,-0.00018670,-0.00024112,0.00012759,-0.00016040,-
 0.00007477,-0.00014176,0.00000103,0.00070692,0.00056913,0.00061038,-0.
 00017293,0.00002599,-0.00004898,0.00026514,0.00029717,0.00003861,0.000
 13696,-0.00017821,-0.00014537,-0.00002965,-0.00013829,0.00018810,-0.00
 006728,-0.00000474,-0.00016448,0.10623314,-0.01332382,-0.01173533,-0.0
 2072963,-0.00128943,0.00025895,-0.00026542,0.00394542,-0.00469109,-0.0
 0069085,-0.00117156,0.00141951,-0.00116776,-0.04893554,-0.09177086,-0.
 08496542,-0.00007127,0.00014016,0.00046194,0.00061587,0.00043802,0.000
 10575,0.00015187,-0.00002535,0.00009719,-0.00075867,-0.00049279,-0.001
 68868,0.00004155,0.00020864,-0.00017874,0.00018254,0.00016819,0.000305
 52,0.00046473,-0.00025079,0.00076294,0.00018675,0.00033771,0.00020347,
 -0.00000459,-0.00012376,0.00003561,0.05218030,0.09951071,-0.00387138,-
 0.00291653,-0.00857425,-0.00101877,-0.00023621,-0.00046810,0.00216211,
 -0.00188517,0.00027283,-0.00005097,0.00092488,0.00067114,-0.09355488,-
 0.08602307,-0.21067519,0.00023369,0.00037030,0.00038652,0.00069881,-0.
 00002756,0.00012542,-0.00004332,-0.00009783,-0.00006333,-0.00057265,-0
 .00053157,-0.00025604,0.00006034,0.00013055,0.00045368,-0.00015589,0.0
 0009625,0.00007173,-0.00005207,-0.00018687,0.00054991,0.00023955,0.000
 05690,0.00009060,0.00013638,-0.00000967,-0.00003411,0.10236835,0.09659
 847,0.22743402,-0.00184277,0.00996879,-0.01281918,0.00041407,0.0011371
 6,-0.00138750,0.00017761,-0.00084111,-0.00036454,-0.00175817,0.0024558
 7,0.00145515,-0.04699652,0.00473123,-0.00559515,0.00023553,-0.00041129
 ,0.00010116,-0.00005064,-0.00005138,-0.00004019,-0.00031860,0.00004964
 ,0.00049236,-0.00019537,-0.00008759,-0.00005104,0.00034469,-0.00014888
 ,0.00015791,-0.00004654,-0.00005361,0.00015929,0.00002594,-0.00013490,
 0.00032757,0.00047887,0.00090522,-0.00064368,0.00027398,0.00023197,-0.
 00013480,-0.00091904,0.01063365,-0.01060455,0.04768170,-0.00025537,-0.
 01816427,0.02047464,-0.00100918,0.00001916,0.00109176,-0.00027731,0.00
 114319,0.00173995,0.00336266,-0.00434140,-0.00335244,0.00469339,-0.161
 60275,0.12933928,-0.00025675,0.00036895,-0.00036684,0.00005663,-0.0000
 2927,-0.00014675,0.00060288,0.00050556,-0.00040070,0.00009929,0.000400
 76,-0.00022708,-0.00014845,-0.00000496,-0.00101410,0.00000763,-0.00011
 035,-0.00005810,0.00008053,0.00021861,0.00008037,0.00017321,-0.0010861
 4,0.00156585,-0.00002956,0.00030887,-0.00026971,0.00023799,0.01027534,
 -0.01061885,-0.00791494,0.17709212,-0.00045453,-0.00661695,0.00639694,
 0.00010680,-0.00022544,0.00028269,0.00019750,-0.00035197,0.00119412,0.
 00060900,-0.00138890,0.00023730,-0.00591959,0.13055838,-0.19419151,-0.
 00027678,-0.00019294,0.00021004,0.00006885,0.00017370,-0.00008356,-0.0
 0019908,0.00005784,0.00013536,-0.00002002,0.00007936,0.00019325,0.0001
 6825,0.00013660,0.00009630,-0.00013167,0.00000633,-0.00006823,0.000255
 45,-0.00015680,0.00024486,0.00020761,-0.00023444,0.00056536,-0.0000008
 8,-0.00017790,-0.00007779,0.00062522,0.01688163,-0.01764073,0.00563848
 ,-0.14269620,0.20840294,-0.01689554,-0.00338165,0.00419749,0.00051635,
 0.00386105,0.00031150,0.00084357,-0.00097024,-0.00069940,0.00054886,-0
 .00127724,0.00001754,-0.27846095,-0.05946084,0.06310292,-0.00078667,-0
 .00060979,0.00032389,0.00029709,0.00005492,-0.00005626,0.00016339,-0.0
 0011186,0.00002082,0.00028336,0.00011699,-0.00022504,-0.00004852,0.000
 12865,-0.00001702,0.00058630,0.00033031,0.00049609,-0.00010792,0.00007
 699,0.00004320,0.00043900,0.00003922,-0.00003661,0.00029343,0.00065459
 ,-0.00047637,-0.01242881,-0.00286348,0.00398924,0.00246643,0.00056933,
 -0.00082526,0.30284077,0.02771451,0.00454644,-0.00764631,0.00008730,-0
 .00499856,-0.00075540,0.00071559,0.00146839,0.00081929,0.00049958,0.00
 181661,-0.00072892,-0.06062012,-0.05998179,0.01662679,0.00196095,0.000
 73154,-0.00058553,0.00009774,-0.00015655,0.00016198,0.00003775,-0.0000
 0400,-0.00029076,-0.00005754,0.00011103,0.00030271,-0.00016284,-0.0000
 6712,-0.00004846,-0.00053170,-0.00009092,-0.00004458,-0.00006783,-0.00
 007368,0.00012659,-0.00024162,0.00020467,-0.00012685,-0.00045119,-0.00
 022181,0.00023110,-0.01186517,-0.00368764,0.00437802,-0.02041664,-0.00
 501082,0.00408257,0.06250528,0.06589328,0.00920620,0.00206330,-0.00425
 056,-0.00029630,-0.00193381,-0.00069655,0.00077664,0.00088820,0.000324
 52,-0.00090075,0.00028335,0.00027100,0.06291605,0.01626480,-0.06271830
 ,0.00073797,0.00021720,0.00036970,0.00025333,0.00021132,0.00019277,-0.
 00025778,-0.00028001,0.00017392,-0.00028360,0.00007271,0.00008158,0.00
 009291,0.00004344,-0.00012018,-0.00023203,-0.00044834,0.00001752,-0.00
 013700,-0.00010154,-0.00005418,-0.00005138,-0.00003903,-0.00016772,-0.
 00006518,0.00002040,0.00044126,-0.02497326,-0.00579969,0.00765049,0.02
 330712,0.00489687,-0.00592139,-0.07040812,-0.01616869,0.06448652,0.000
 58017,0.00877745,0.00156388,-0.05924892,0.00250348,0.01805437,0.000606
 98,0.00046769,0.00027262,0.00026578,0.00046417,-0.00034603,-0.00239925
 ,-0.00168412,0.00052657,-0.42770130,-0.08086687,0.11966911,0.00457713,
 -0.00375316,-0.00139205,0.00446390,-0.00407360,-0.00222140,-0.00024479
 ,-0.00030427,-0.00007848,-0.00015788,0.00002764,-0.00006759,-0.0000458
 6,-0.00013352,-0.00015194,-0.00010124,0.00000184,0.00015230,-0.0001858
 8,-0.00036944,0.00011576,0.00002696,-0.00021397,0.00014281,0.00004451,
 0.00001569,0.00003601,0.00002884,0.00000802,-0.00004936,-0.00055013,0.
 00079596,0.00031519,0.48004099,0.00201783,-0.00534267,-0.00166147,0.03
 704190,0.01917697,-0.00803993,0.00000002,-0.00043325,-0.00050281,0.000
 30582,-0.00049846,0.00023199,0.00131812,0.00091296,-0.00028965,-0.1212
 9370,-0.08603273,0.02446643,0.00139674,0.00208462,0.00095245,0.0006860
 4,0.00264672,-0.00108337,0.00012332,0.00031389,0.00032923,-0.00008829,
 0.00012051,0.00002062,0.00007422,0.00020917,0.00016512,-0.00006807,0.0
 0010832,0.00006555,-0.00005303,0.00042283,-0.00023835,-0.00000778,0.00
 027362,-0.00012922,-0.00007476,0.00002039,-0.00002206,-0.00005319,0.00
 001739,0.00006514,0.00033778,-0.00047908,-0.00019048,0.07833704,0.0664
 7879,0.00047497,-0.00377216,0.00030483,0.02361697,0.00274518,-0.009655
 02,0.00008644,-0.00003532,-0.00013506,-0.00026071,-0.00043097,0.000271
 29,0.00101016,0.00064782,-0.00005518,0.11315845,0.01184257,-0.03619763
 ,-0.00117196,0.00217228,0.00153093,-0.00084562,0.00079115,0.00108229,0
 .00010751,0.00020239,0.00010354,0.00005356,-0.00000490,0.00001441,0.00
 008096,0.00012435,0.00013849,0.00000121,0.00003305,-0.00003004,0.00004
 962,0.00012080,-0.00006430,-0.00002342,0.00004079,0.00000124,-0.000039
 38,0.00003367,0.00000540,0.00000160,-0.00003794,0.00002408,0.00024139,
 -0.00033355,-0.00008040,-0.13654177,-0.01413918,0.04274113\\0.00000009
 ,-0.00000044,-0.00000008,-0.00000097,0.00000297,0.00000046,0.00000169,
 -0.00000157,-0.00000069,0.00000168,-0.00000104,-0.00000072,-0.00000320
 ,-0.00000239,0.00000056,0.00000203,0.00000505,0.00000045,-0.00000215,0
 .00000356,0.00000135,-0.00000214,0.00000358,0.00000126,0.00000385,0.00
 000025,-0.00000123,0.00000048,-0.00000069,-0.00000025,0.00000231,-0.00
 000378,-0.00000138,0.00000046,-0.00000068,-0.00000025,0.00000400,0.000
 00008,-0.00000129,0.00000231,-0.00000380,-0.00000131,-0.00000452,-0.00
 000201,0.00000112,-0.00000450,-0.00000207,0.00000118,-0.00000266,-0.00
 000501,0.00000003,0.00000124,0.00000800,0.00000080\\\@


 IN SO FAR AS QUANTUM MECHANICS IS CORRECT, CHEMICAL 
 QUESTIONS ARE PROBLEMS IN APPLIED MATHEMATICS.

                    -- EYRING, WALTER, & KIMBALL, 1944
 Job cpu time:  0 days  6 hours 22 minutes 23.1 seconds.
 File lengths (MBytes):  RWF=   2640 Int=      0 D2E=      0 Chk=     32 Scr=     32
 Normal termination of Gaussian 09 at Sun Oct  1 00:48:31 2017.
