 Entering Gaussian System, Link 0=/shared/apps/gaussian/G09_LINUX_LINDA/g09/g09
 Input=/gss_gpfs_scratch/westgroup/QMscratch/AQMHNCQZLQUNJI-UHFFFAOYSA-u1.gjf
 Output=/gss_gpfs_scratch/westgroup/QMscratch/AQMHNCQZLQUNJI-UHFFFAOYSA-u1.log
 Initial command:
 /shared/apps/gaussian/G09_LINUX_LINDA/g09/l1.exe /gss_gpfs_scratch/westgroup/rwest-autotst-1/Gau-40466.inp -scrdir=/gss_gpfs_scratch/westgroup/rwest-autotst-1/
 Entering Link 1 = /shared/apps/gaussian/G09_LINUX_LINDA/g09/l1.exe PID=     40467.
  
 Copyright (c) 1988,1990,1992,1993,1995,1998,2003,2009,2010,
            Gaussian, Inc.  All Rights Reserved.
  
 This is part of the Gaussian(R) 09 program.  It is based on
 the Gaussian(R) 03 system (copyright 2003, Gaussian, Inc.),
 the Gaussian(R) 98 system (copyright 1998, Gaussian, Inc.),
 the Gaussian(R) 94 system (copyright 1995, Gaussian, Inc.),
 the Gaussian 92(TM) system (copyright 1992, Gaussian, Inc.),
 the Gaussian 90(TM) system (copyright 1990, Gaussian, Inc.),
 the Gaussian 88(TM) system (copyright 1988, Gaussian, Inc.),
 the Gaussian 86(TM) system (copyright 1986, Carnegie Mellon
 University), and the Gaussian 82(TM) system (copyright 1983,
 Carnegie Mellon University). Gaussian is a federally registered
 trademark of Gaussian, Inc.
  
 This software contains proprietary and confidential information,
 including trade secrets, belonging to Gaussian, Inc.
  
 This software is provided under written license and may be
 used, copied, transmitted, or stored only in accord with that
 written license.
  
 The following legend is applicable only to US Government
 contracts under FAR:
  
                    RESTRICTED RIGHTS LEGEND
  
 Use, reproduction and disclosure by the US Government is
 subject to restrictions as set forth in subparagraphs (a)
 and (c) of the Commercial Computer Software - Restricted
 Rights clause in FAR 52.227-19.
  
 Gaussian, Inc.
 340 Quinnipiac St., Bldg. 40, Wallingford CT 06492
  
  
 ---------------------------------------------------------------
 Warning -- This program may not be used in any manner that
 competes with the business of Gaussian, Inc. or will provide
 assistance to any competitor of Gaussian, Inc.  The licensee
 of this program is prohibited from giving any competitor of
 Gaussian, Inc. access to this program.  By using this program,
 the user acknowledges that Gaussian, Inc. is engaged in the
 business of creating and licensing software in the field of
 computational chemistry and represents and warrants to the
 licensee that it is not a competitor of Gaussian, Inc. and that
 it will not use this program in any manner prohibited above.
 ---------------------------------------------------------------
  

 Cite this work as:
 Gaussian 09, Revision B.01,
 M. J. Frisch, G. W. Trucks, H. B. Schlegel, G. E. Scuseria, 
 M. A. Robb, J. R. Cheeseman, G. Scalmani, V. Barone, B. Mennucci, 
 G. A. Petersson, H. Nakatsuji, M. Caricato, X. Li, H. P. Hratchian, 
 A. F. Izmaylov, J. Bloino, G. Zheng, J. L. Sonnenberg, M. Hada, 
 M. Ehara, K. Toyota, R. Fukuda, J. Hasegawa, M. Ishida, T. Nakajima, 
 Y. Honda, O. Kitao, H. Nakai, T. Vreven, J. A. Montgomery, Jr., 
 J. E. Peralta, F. Ogliaro, M. Bearpark, J. J. Heyd, E. Brothers, 
 K. N. Kudin, V. N. Staroverov, T. Keith, R. Kobayashi, J. Normand, 
 K. Raghavachari, A. Rendell, J. C. Burant, S. S. Iyengar, J. Tomasi, 
 M. Cossi, N. Rega, J. M. Millam, M. Klene, J. E. Knox, J. B. Cross, 
 V. Bakken, C. Adamo, J. Jaramillo, R. Gomperts, R. E. Stratmann, 
 O. Yazyev, A. J. Austin, R. Cammi, C. Pomelli, J. W. Ochterski, 
 R. L. Martin, K. Morokuma, V. G. Zakrzewski, G. A. Voth, 
 P. Salvador, J. J. Dannenberg, S. Dapprich, A. D. Daniels, 
 O. Farkas, J. B. Foresman, J. V. Ortiz, J. Cioslowski, 
 and D. J. Fox, Gaussian, Inc., Wallingford CT, 2010.
 
 ******************************************
 Gaussian 09:  EM64L-G09RevB.01 12-Aug-2010
                15-Mar-2017 
 ******************************************
 %nprocshared=20
 Will use up to   20 processors via shared memory.
 %mem=5GB
 --------------------------------------------------------------
 # m062x/6-311+g(2df,2p) opt=(verytight,gdiis) freq IOP(2/16=3)
 --------------------------------------------------------------

 Warning!  Use of Opt=GDIIS is deprecated since it is seldom a good choice.

 1/7=1,14=-1,18=20,19=11,26=3,38=1/1,3;
 2/9=110,12=2,16=3,17=6,18=5,40=1/2;
 3/5=4,6=6,7=214,11=2,16=1,25=1,30=1,71=1,74=-55/1,2,3;
 4//1;
 5/5=2,38=5/2;
 6/7=2,8=2,9=2,10=2,28=1/1;
 7//1,2,3,16;
 1/7=1,14=-1,18=20,19=11/3(2);
 2/9=110,16=3/2;
 99//99;
 2/9=110,16=3/2;
 3/5=4,6=6,7=214,11=2,16=1,25=1,30=1,71=1,74=-55/1,2,3;
 4/5=5,16=3/1;
 5/5=2,38=5/2;
 7//1,2,3,16;
 1/7=1,14=-1,18=20,19=11/3(-5);
 2/9=110,16=3/2;
 6/7=2,8=2,9=2,10=2,19=2,28=1/1;
 99/9=1/99;
 ---------------------------------------------
 InChI=1S/C7H15/c1-3-5-7-6-4-2/h1,3-7H2,2H3/u1
 ---------------------------------------------
 Symbolic Z-matrix:
 Charge =  0 Multiplicity = 2
 C                    -0.2518   -0.401    -0.241 
 C                     1.1392    0.142     0.1071 
 C                    -1.3527    0.5364    0.2693 
 C                     2.2392   -0.7958   -0.4032 
 C                    -2.7415   -0.006    -0.0795 
 C                     3.6253   -0.2586   -0.0588 
 C                    -3.8276    0.9221    0.4472 
 H                    -1.2664    0.6403    1.3737 
 H                    -1.2235    1.5407   -0.1917 
 H                    -0.3806   -1.4051    0.2205 
 H                    -0.3403   -0.5054   -1.345 
 H                     1.2278    0.2464    1.2111 
 H                     1.2684    1.1459   -0.3546 
 H                     2.1187   -1.8008    0.0571 
 H                     2.1591   -0.9021   -1.5072 
 H                    -2.8771   -1.0089    0.38 
 H                    -2.847    -0.1015   -1.1822 
 H                     4.3998   -0.957    -0.4399 
 H                     3.7408   -0.1667    1.0423 
 H                     3.7815    0.7358   -0.5286 
 H                    -4.8288    0.4838    0.251 
 H                    -3.7627    1.9154   -0.046 
 

 GradGradGradGradGradGradGradGradGradGradGradGradGradGradGradGradGradGrad
 Berny optimization.
 Initialization pass.
                           ----------------------------
                           !    Initial Parameters    !
                           ! (Angstroms and Degrees)  !
 --------------------------                            --------------------------
 ! Name  Definition              Value          Derivative Info.                !
 --------------------------------------------------------------------------------
 ! R1    R(1,2)                  1.5333         estimate D2E/DX2                !
 ! R2    R(1,3)                  1.5333         estimate D2E/DX2                !
 ! R3    R(1,10)                 1.1126         estimate D2E/DX2                !
 ! R4    R(1,11)                 1.1125         estimate D2E/DX2                !
 ! R5    R(2,4)                  1.5329         estimate D2E/DX2                !
 ! R6    R(2,12)                 1.1125         estimate D2E/DX2                !
 ! R7    R(2,13)                 1.1125         estimate D2E/DX2                !
 ! R8    R(3,5)                  1.5312         estimate D2E/DX2                !
 ! R9    R(3,8)                  1.1126         estimate D2E/DX2                !
 ! R10   R(3,9)                  1.1126         estimate D2E/DX2                !
 ! R11   R(4,6)                  1.5259         estimate D2E/DX2                !
 ! R12   R(4,14)                 1.1119         estimate D2E/DX2                !
 ! R13   R(4,15)                 1.112          estimate D2E/DX2                !
 ! R14   R(5,7)                  1.5226         estimate D2E/DX2                !
 ! R15   R(5,16)                 1.1115         estimate D2E/DX2                !
 ! R16   R(5,17)                 1.1118         estimate D2E/DX2                !
 ! R17   R(6,18)                 1.1103         estimate D2E/DX2                !
 ! R18   R(6,19)                 1.1109         estimate D2E/DX2                !
 ! R19   R(6,20)                 1.1108         estimate D2E/DX2                !
 ! R20   R(7,21)                 1.1104         estimate D2E/DX2                !
 ! R21   R(7,22)                 1.1109         estimate D2E/DX2                !
 ! A1    A(2,1,3)              111.057          estimate D2E/DX2                !
 ! A2    A(2,1,10)             109.2976         estimate D2E/DX2                !
 ! A3    A(2,1,11)             109.3122         estimate D2E/DX2                !
 ! A4    A(3,1,10)             109.304          estimate D2E/DX2                !
 ! A5    A(3,1,11)             109.301          estimate D2E/DX2                !
 ! A6    A(10,1,11)            108.5269         estimate D2E/DX2                !
 ! A7    A(1,2,4)              111.0244         estimate D2E/DX2                !
 ! A8    A(1,2,12)             109.317          estimate D2E/DX2                !
 ! A9    A(1,2,13)             109.3119         estimate D2E/DX2                !
 ! A10   A(4,2,12)             109.3066         estimate D2E/DX2                !
 ! A11   A(4,2,13)             109.3026         estimate D2E/DX2                !
 ! A12   A(12,2,13)            108.5371         estimate D2E/DX2                !
 ! A13   A(1,3,5)              111.0286         estimate D2E/DX2                !
 ! A14   A(1,3,8)              109.3746         estimate D2E/DX2                !
 ! A15   A(1,3,9)              109.3037         estimate D2E/DX2                !
 ! A16   A(5,3,8)              109.2407         estimate D2E/DX2                !
 ! A17   A(5,3,9)              109.3108         estimate D2E/DX2                !
 ! A18   A(8,3,9)              108.5412         estimate D2E/DX2                !
 ! A19   A(2,4,6)              111.1812         estimate D2E/DX2                !
 ! A20   A(2,4,14)             109.7163         estimate D2E/DX2                !
 ! A21   A(2,4,15)             109.7119         estimate D2E/DX2                !
 ! A22   A(6,4,14)             108.8563         estimate D2E/DX2                !
 ! A23   A(6,4,15)             108.8542         estimate D2E/DX2                !
 ! A24   A(14,4,15)            108.4681         estimate D2E/DX2                !
 ! A25   A(3,5,7)              110.625          estimate D2E/DX2                !
 ! A26   A(3,5,16)             109.6401         estimate D2E/DX2                !
 ! A27   A(3,5,17)             110.0236         estimate D2E/DX2                !
 ! A28   A(7,5,16)             108.6612         estimate D2E/DX2                !
 ! A29   A(7,5,17)             109.1318         estimate D2E/DX2                !
 ! A30   A(16,5,17)            108.7198         estimate D2E/DX2                !
 ! A31   A(4,6,18)             109.555          estimate D2E/DX2                !
 ! A32   A(4,6,19)             110.3197         estimate D2E/DX2                !
 ! A33   A(4,6,20)             110.3298         estimate D2E/DX2                !
 ! A34   A(18,6,19)            108.6447         estimate D2E/DX2                !
 ! A35   A(18,6,20)            108.6524         estimate D2E/DX2                !
 ! A36   A(19,6,20)            109.2996         estimate D2E/DX2                !
 ! A37   A(5,7,21)             109.9644         estimate D2E/DX2                !
 ! A38   A(5,7,22)             110.473          estimate D2E/DX2                !
 ! A39   A(21,7,22)            109.0968         estimate D2E/DX2                !
 ! D1    D(3,1,2,4)            179.9912         estimate D2E/DX2                !
 ! D2    D(3,1,2,12)            59.3235         estimate D2E/DX2                !
 ! D3    D(3,1,2,13)           -59.3492         estimate D2E/DX2                !
 ! D4    D(10,1,2,4)            59.3187         estimate D2E/DX2                !
 ! D5    D(10,1,2,12)          -61.3491         estimate D2E/DX2                !
 ! D6    D(10,1,2,13)          179.9782         estimate D2E/DX2                !
 ! D7    D(11,1,2,4)           -59.3303         estimate D2E/DX2                !
 ! D8    D(11,1,2,12)         -179.9981         estimate D2E/DX2                !
 ! D9    D(11,1,2,13)           61.3292         estimate D2E/DX2                !
 ! D10   D(2,1,3,5)            179.9617         estimate D2E/DX2                !
 ! D11   D(2,1,3,8)            -59.4122         estimate D2E/DX2                !
 ! D12   D(2,1,3,9)             59.2947         estimate D2E/DX2                !
 ! D13   D(10,1,3,5)           -59.3695         estimate D2E/DX2                !
 ! D14   D(10,1,3,8)            61.2565         estimate D2E/DX2                !
 ! D15   D(10,1,3,9)           179.9634         estimate D2E/DX2                !
 ! D16   D(11,1,3,5)            59.2767         estimate D2E/DX2                !
 ! D17   D(11,1,3,8)           179.9027         estimate D2E/DX2                !
 ! D18   D(11,1,3,9)           -61.3904         estimate D2E/DX2                !
 ! D19   D(1,2,4,6)            179.9916         estimate D2E/DX2                !
 ! D20   D(1,2,4,14)           -59.5397         estimate D2E/DX2                !
 ! D21   D(1,2,4,15)            59.5286         estimate D2E/DX2                !
 ! D22   D(12,2,4,6)           -59.3345         estimate D2E/DX2                !
 ! D23   D(12,2,4,14)           61.1342         estimate D2E/DX2                !
 ! D24   D(12,2,4,15)         -179.7975         estimate D2E/DX2                !
 ! D25   D(13,2,4,6)            59.3266         estimate D2E/DX2                !
 ! D26   D(13,2,4,14)          179.7952         estimate D2E/DX2                !
 ! D27   D(13,2,4,15)          -61.1365         estimate D2E/DX2                !
 ! D28   D(1,3,5,7)            179.2558         estimate D2E/DX2                !
 ! D29   D(1,3,5,16)            59.433          estimate D2E/DX2                !
 ! D30   D(1,3,5,17)           -60.0883         estimate D2E/DX2                !
 ! D31   D(8,3,5,7)             58.5506         estimate D2E/DX2                !
 ! D32   D(8,3,5,16)           -61.2722         estimate D2E/DX2                !
 ! D33   D(8,3,5,17)           179.2065         estimate D2E/DX2                !
 ! D34   D(9,3,5,7)            -60.0814         estimate D2E/DX2                !
 ! D35   D(9,3,5,16)          -179.9042         estimate D2E/DX2                !
 ! D36   D(9,3,5,17)            60.5745         estimate D2E/DX2                !
 ! D37   D(2,4,6,18)           179.9959         estimate D2E/DX2                !
 ! D38   D(2,4,6,19)            60.4374         estimate D2E/DX2                !
 ! D39   D(2,4,6,20)           -60.4298         estimate D2E/DX2                !
 ! D40   D(14,4,6,18)           59.0209         estimate D2E/DX2                !
 ! D41   D(14,4,6,19)          -60.5377         estimate D2E/DX2                !
 ! D42   D(14,4,6,20)          178.5951         estimate D2E/DX2                !
 ! D43   D(15,4,6,18)          -59.0359         estimate D2E/DX2                !
 ! D44   D(15,4,6,19)         -178.5945         estimate D2E/DX2                !
 ! D45   D(15,4,6,20)           60.5383         estimate D2E/DX2                !
 ! D46   D(3,5,7,21)          -176.0655         estimate D2E/DX2                !
 ! D47   D(3,5,7,22)            63.4586         estimate D2E/DX2                !
 ! D48   D(16,5,7,21)          -55.6566         estimate D2E/DX2                !
 ! D49   D(16,5,7,22)         -176.1325         estimate D2E/DX2                !
 ! D50   D(17,5,7,21)           62.7491         estimate D2E/DX2                !
 ! D51   D(17,5,7,22)          -57.7268         estimate D2E/DX2                !
 --------------------------------------------------------------------------------
 Trust Radius=3.00D-01 FncErr=1.00D-07 GrdErr=1.00D-06
 Number of steps in this run=    121 maximum allowed number of steps=    132.
 GradGradGradGradGradGradGradGradGradGradGradGradGradGradGradGradGradGrad

                          Input orientation:                          
 ---------------------------------------------------------------------
 Center     Atomic      Atomic             Coordinates (Angstroms)
 Number     Number       Type             X           Y           Z
 ---------------------------------------------------------------------
      1          6           0       -0.251800   -0.401000   -0.241000
      2          6           0        1.139200    0.142000    0.107100
      3          6           0       -1.352700    0.536400    0.269300
      4          6           0        2.239200   -0.795800   -0.403200
      5          6           0       -2.741500   -0.006000   -0.079500
      6          6           0        3.625300   -0.258600   -0.058800
      7          6           0       -3.827600    0.922100    0.447200
      8          1           0       -1.266400    0.640300    1.373700
      9          1           0       -1.223500    1.540700   -0.191700
     10          1           0       -0.380600   -1.405100    0.220500
     11          1           0       -0.340300   -0.505400   -1.345000
     12          1           0        1.227800    0.246400    1.211100
     13          1           0        1.268400    1.145900   -0.354600
     14          1           0        2.118700   -1.800800    0.057100
     15          1           0        2.159100   -0.902100   -1.507200
     16          1           0       -2.877100   -1.008900    0.380000
     17          1           0       -2.847000   -0.101500   -1.182200
     18          1           0        4.399800   -0.957000   -0.439900
     19          1           0        3.740800   -0.166700    1.042300
     20          1           0        3.781500    0.735800   -0.528600
     21          1           0       -4.828800    0.483800    0.251000
     22          1           0       -3.762700    1.915400   -0.046000
 ---------------------------------------------------------------------
                    Distance matrix (angstroms):
                    1          2          3          4          5
     1  C    0.000000
     2  C    1.533266   0.000000
     3  C    1.533332   2.528127   0.000000
     4  C    2.527302   1.532930   3.889571   0.000000
     5  C    2.526007   3.888002   1.531217   5.053310   0.000000
     6  C    3.883990   2.523628   5.051748   1.525932   6.371843
     7  C    3.874346   5.039179   2.511084   6.362423   1.522628
     8  H    2.172780   2.763963   1.112629   4.184374   2.169197
     9  H    2.171826   2.761882   1.112579   4.182614   2.170068
    10  H    1.112559   2.171674   2.171815   2.761087   2.760676
    11  H    1.112451   2.171783   2.171696   2.761366   2.759828
    12  H    2.171851   1.112459   2.762258   2.171422   4.181471
    13  H    2.171822   1.112508   2.762410   2.171408   4.181130
    14  H    2.769038   2.176325   4.190245   1.111945   5.182809
    15  H    2.768899   2.176305   4.190224   1.111994   5.182394
    16  H    2.765390   4.186850   2.173477   5.180284   1.111457
    17  H    2.776800   4.196591   2.178693   5.192141   1.111844
    18  H    4.688932   3.484038   5.985354   2.166916   7.213353
    19  H    4.200311   2.781765   5.199579   2.177163   6.580613
    20  H    4.200302   2.781809   5.199655   2.177203   6.580387
    21  H    4.687629   5.979512   3.476546   7.212626   2.169321
    22  H    4.210719   5.215075   2.794487   6.595529   2.176178
                    6          7          8          9         10
     6  C    0.000000
     7  C    7.562791   0.000000
     8  H    5.175790   2.738167   0.000000
     9  H    5.173587   2.751762   1.806388   0.000000
    10  H    4.176087   4.165220   2.509616   3.091622   0.000000
    11  H    4.176267   4.172649   3.092187   2.509316   1.806066
    12  H    2.759652   5.157246   2.530342   3.106756   2.509122
    13  H    2.759546   5.163544   3.109319   2.528234   3.091527
    14  H    2.159087   6.551706   4.376221   4.732634   2.535701
    15  H    2.159096   6.556521   4.734198   4.374905   3.112560
    16  H    6.560236   2.153306   2.510310   3.092199   2.532771
    17  H    6.570949   2.159694   3.095349   2.512700   3.122510
    18  H    1.110338   8.485757   6.160060   6.158053   4.846560
    19  H    1.110949   7.669440   5.082630   5.392796   4.381202
    20  H    1.110829   7.673676   5.395291   5.080491   4.740008
    21  H    8.492287   1.110407   3.738401   3.783016   4.832738
    22  H    7.701233   1.110902   3.142124   2.570830   4.747140
                   11         12         13         14         15
    11  H    0.000000
    12  H    3.091567   0.000000
    13  H    2.509103   1.806146   0.000000
    14  H    3.112977   2.513254   3.094438   0.000000
    15  H    2.535879   3.094435   2.513193   1.804530   0.000000
    16  H    3.108777   4.372266   4.729479   5.068470   5.379242
    17  H    2.544245   4.738451   4.379206   5.392742   5.080120
    18  H    4.846823   3.773004   3.772947   2.482423   2.482515
    19  H    4.740179   2.552315   3.128420   2.504418   3.089100
    20  H    4.381361   3.128490   2.552279   3.089059   2.504507
    21  H    4.865425   6.136820   6.162871   7.316061   7.337761
    22  H    4.388678   5.410264   5.098954   6.957847   6.718715
                   16         17         18         19         20
    16  H    0.000000
    17  H    1.806862   0.000000
    18  H    7.323128   7.334780   0.000000
    19  H    6.704069   6.953543   1.804376   0.000000
    20  H    6.943089   6.713068   1.804365   1.812151   0.000000
    21  H    2.460473   2.514790   9.365912   8.630605   8.649193
    22  H    3.085011   2.489446   8.662116   7.862700   7.651099
                   21         22
    21  H    0.000000
    22  H    1.809491   0.000000
 Stoichiometry    C7H15(2)
 Framework group  C1[X(C7H15)]
 Deg. of freedom    60
 Full point group                 C1      NOp   1
 Largest Abelian subgroup         C1      NOp   1
 Largest concise Abelian subgroup C1      NOp   1
                         Standard orientation:                         
 ---------------------------------------------------------------------
 Center     Atomic      Atomic             Coordinates (Angstroms)
 Number     Number       Type             X           Y           Z
 ---------------------------------------------------------------------
      1          6           0       -0.072654    0.488473    0.022652
      2          6           0        1.199652   -0.365511   -0.030773
      3          6           0       -1.328290   -0.388489   -0.050976
      4          6           0        2.454460    0.511950    0.042666
      5          6           0       -2.598478    0.464912    0.003379
      6          6           0        3.723003   -0.334508   -0.010025
      7          6           0       -3.838968   -0.413202   -0.088790
      8          1           0       -1.317427   -0.969764   -0.999630
      9          1           0       -1.328361   -1.103054    0.801801
     10          1           0       -0.072245    1.202581   -0.830482
     11          1           0       -0.085634    1.070371    0.970688
     12          1           0        1.212731   -0.947425   -0.978808
     13          1           0        1.199679   -1.079419    0.822462
     14          1           0        2.463261    1.226051   -0.809627
     15          1           0        2.450059    1.094197    0.990031
     16          1           0       -2.604857    1.179899   -0.847556
     17          1           0       -2.629654    1.041054    0.953793
     18          1           0        4.613428    0.326541    0.044824
     19          1           0        3.764680   -0.908356   -0.960377
     20          1           0        3.751549   -1.040794    0.846880
     21          1           0       -4.750432    0.220256   -0.119875
     22          1           0       -3.899132   -1.093888    0.787081
 ---------------------------------------------------------------------
 Rotational constants (GHZ):     12.1936323      0.7587815      0.7365310
 Standard basis: 6-311+G(2df,2p) (5D, 7F)
 There are   373 symmetry adapted basis functions of A   symmetry.
 Integral buffers will be    131072 words long.
 Raffenetti 2 integral format.
 Two-electron integral symmetry is turned on.
   373 basis functions,   529 primitive gaussians,   408 cartesian basis functions
    29 alpha electrons       28 beta electrons
       nuclear repulsion energy       297.9451995672 Hartrees.
 NAtoms=   22 NActive=   22 NUniq=   22 SFac= 1.00D+00 NAtFMM=   50 NAOKFM=F Big=F
 One-electron integrals computed using PRISM.
 NBasis=   373 RedAO= T  NBF=   373
 NBsUse=   373 1.00D-06 NBFU=   373
 Harris functional with IExCor= 1009 diagonalized for initial guess.
 ExpMin= 4.38D-02 ExpMax= 4.56D+03 ExpMxC= 6.82D+02 IAcc=2 IRadAn=         0 AccDes= 0.00D+00
 HarFok:  IExCor= 1009 AccDes= 0.00D+00 IRadAn=         0 IDoV= 1
 ScaDFX=  1.000000  1.000000  1.000000  1.000000
 FoFCou: FMM=F IPFlag=           0 FMFlag=      100000 FMFlg1=           0
         NFxFlg=           0 DoJE=T BraDBF=F KetDBF=T FulRan=T
         Omega=  0.000000  0.000000  1.000000  0.000000  0.000000 ICntrl=     500 IOpCl=  0
         NMat0=    1 NMatS0=    1 NMatT0=    0 NMatD0=    1 NMtDS0=    0 NMtDT0=    0
         I1Cent=           4 NGrid=           0.
 Petite list used in FoFCou.
 Initial guess orbital symmetries:
 Alpha Orbitals:
       Occupied  (A) (A) (A) (A) (A) (A) (A) (A) (A) (A) (A) (A)
                 (A) (A) (A) (A) (A) (A) (A) (A) (A) (A) (A) (A)
                 (A) (A) (A) (A) (A)
       Virtual   (A) (A) (A) (A) (A) (A) (A) (A) (A) (A) (A) (A)
                 (A) (A) (A) (A) (A) (A) (A) (A) (A) (A) (A) (A)
                 (A) (A) (A) (A) (A) (A) (A) (A) (A) (A) (A) (A)
                 (A) (A) (A) (A) (A) (A) (A) (A) (A) (A) (A) (A)
                 (A) (A) (A) (A) (A) (A) (A) (A) (A) (A) (A) (A)
                 (A) (A) (A) (A) (A) (A) (A) (A) (A) (A) (A) (A)
                 (A) (A) (A) (A) (A) (A) (A) (A) (A) (A) (A) (A)
                 (A) (A) (A) (A) (A) (A) (A) (A) (A) (A) (A) (A)
                 (A) (A) (A) (A) (A) (A) (A) (A) (A) (A) (A) (A)
                 (A) (A) (A) (A) (A) (A) (A) (A) (A) (A) (A) (A)
                 (A) (A) (A) (A) (A) (A) (A) (A) (A) (A) (A) (A)
                 (A) (A) (A) (A) (A) (A) (A) (A) (A) (A) (A) (A)
                 (A) (A) (A) (A) (A) (A) (A) (A) (A) (A) (A) (A)
                 (A) (A) (A) (A) (A) (A) (A) (A) (A) (A) (A) (A)
                 (A) (A) (A) (A) (A) (A) (A) (A) (A) (A) (A) (A)
                 (A) (A) (A) (A) (A) (A) (A) (A) (A) (A) (A) (A)
                 (A) (A) (A) (A) (A) (A) (A) (A) (A) (A) (A) (A)
                 (A) (A) (A) (A) (A) (A) (A) (A) (A) (A) (A) (A)
                 (A) (A) (A) (A) (A) (A) (A) (A) (A) (A) (A) (A)
                 (A) (A) (A) (A) (A) (A) (A) (A) (A) (A) (A) (A)
                 (A) (A) (A) (A) (A) (A) (A) (A) (A) (A) (A) (A)
                 (A) (A) (A) (A) (A) (A) (A) (A) (A) (A) (A) (A)
                 (A) (A) (A) (A) (A) (A) (A) (A) (A) (A) (A) (A)
                 (A) (A) (A) (A) (A) (A) (A) (A) (A) (A) (A) (A)
                 (A) (A) (A) (A) (A) (A) (A) (A) (A) (A) (A) (A)
                 (A) (A) (A) (A) (A) (A) (A) (A) (A) (A) (A) (A)
                 (A) (A) (A) (A) (A) (A) (A) (A) (A) (A) (A) (A)
                 (A) (A) (A) (A) (A) (A) (A) (A) (A) (A) (A) (A)
                 (A) (A) (A) (A) (A) (A) (A) (A)
 Beta  Orbitals:
       Occupied  (A) (A) (A) (A) (A) (A) (A) (A) (A) (A) (A) (A)
                 (A) (A) (A) (A) (A) (A) (A) (A) (A) (A) (A) (A)
                 (A) (A) (A) (A)
       Virtual   (A) (A) (A) (A) (A) (A) (A) (A) (A) (A) (A) (A)
                 (A) (A) (A) (A) (A) (A) (A) (A) (A) (A) (A) (A)
                 (A) (A) (A) (A) (A) (A) (A) (A) (A) (A) (A) (A)
                 (A) (A) (A) (A) (A) (A) (A) (A) (A) (A) (A) (A)
                 (A) (A) (A) (A) (A) (A) (A) (A) (A) (A) (A) (A)
                 (A) (A) (A) (A) (A) (A) (A) (A) (A) (A) (A) (A)
                 (A) (A) (A) (A) (A) (A) (A) (A) (A) (A) (A) (A)
                 (A) (A) (A) (A) (A) (A) (A) (A) (A) (A) (A) (A)
                 (A) (A) (A) (A) (A) (A) (A) (A) (A) (A) (A) (A)
                 (A) (A) (A) (A) (A) (A) (A) (A) (A) (A) (A) (A)
                 (A) (A) (A) (A) (A) (A) (A) (A) (A) (A) (A) (A)
                 (A) (A) (A) (A) (A) (A) (A) (A) (A) (A) (A) (A)
                 (A) (A) (A) (A) (A) (A) (A) (A) (A) (A) (A) (A)
                 (A) (A) (A) (A) (A) (A) (A) (A) (A) (A) (A) (A)
                 (A) (A) (A) (A) (A) (A) (A) (A) (A) (A) (A) (A)
                 (A) (A) (A) (A) (A) (A) (A) (A) (A) (A) (A) (A)
                 (A) (A) (A) (A) (A) (A) (A) (A) (A) (A) (A) (A)
                 (A) (A) (A) (A) (A) (A) (A) (A) (A) (A) (A) (A)
                 (A) (A) (A) (A) (A) (A) (A) (A) (A) (A) (A) (A)
                 (A) (A) (A) (A) (A) (A) (A) (A) (A) (A) (A) (A)
                 (A) (A) (A) (A) (A) (A) (A) (A) (A) (A) (A) (A)
                 (A) (A) (A) (A) (A) (A) (A) (A) (A) (A) (A) (A)
                 (A) (A) (A) (A) (A) (A) (A) (A) (A) (A) (A) (A)
                 (A) (A) (A) (A) (A) (A) (A) (A) (A) (A) (A) (A)
                 (A) (A) (A) (A) (A) (A) (A) (A) (A) (A) (A) (A)
                 (A) (A) (A) (A) (A) (A) (A) (A) (A) (A) (A) (A)
                 (A) (A) (A) (A) (A) (A) (A) (A) (A) (A) (A) (A)
                 (A) (A) (A) (A) (A) (A) (A) (A) (A) (A) (A) (A)
                 (A) (A) (A) (A) (A) (A) (A) (A) (A)
 The electronic state of the initial guess is 2-A.
 Initial guess <Sx>= 0.0000 <Sy>= 0.0000 <Sz>= 0.5000 <S**2>= 0.7500 S= 0.5000
 Requested convergence on RMS density matrix=1.00D-08 within 128 cycles.
 Requested convergence on MAX density matrix=1.00D-06.
 Requested convergence on             energy=1.00D-06.
 No special actions if energy rises.
 SCF Done:  E(UM062X) =  -275.644403630     A.U. after   13 cycles
             Convg  =    0.5596D-08             -V/T =  2.0060
 <Sx>= 0.0000 <Sy>= 0.0000 <Sz>= 0.5000 <S**2>= 0.7544 S= 0.5022
 <L.S>= 0.000000000000E+00
 Annihilation of the first spin contaminant:
 S**2 before annihilation     0.7544,   after     0.7500

 **********************************************************************

            Population analysis using the SCF density.

 **********************************************************************

 Orbital symmetries:
 Alpha Orbitals:
       Occupied  (A) (A) (A) (A) (A) (A) (A) (A) (A) (A) (A) (A)
                 (A) (A) (A) (A) (A) (A) (A) (A) (A) (A) (A) (A)
                 (A) (A) (A) (A) (A)
       Virtual   (A) (A) (A) (A) (A) (A) (A) (A) (A) (A) (A) (A)
                 (A) (A) (A) (A) (A) (A) (A) (A) (A) (A) (A) (A)
                 (A) (A) (A) (A) (A) (A) (A) (A) (A) (A) (A) (A)
                 (A) (A) (A) (A) (A) (A) (A) (A) (A) (A) (A) (A)
                 (A) (A) (A) (A) (A) (A) (A) (A) (A) (A) (A) (A)
                 (A) (A) (A) (A) (A) (A) (A) (A) (A) (A) (A) (A)
                 (A) (A) (A) (A) (A) (A) (A) (A) (A) (A) (A) (A)
                 (A) (A) (A) (A) (A) (A) (A) (A) (A) (A) (A) (A)
                 (A) (A) (A) (A) (A) (A) (A) (A) (A) (A) (A) (A)
                 (A) (A) (A) (A) (A) (A) (A) (A) (A) (A) (A) (A)
                 (A) (A) (A) (A) (A) (A) (A) (A) (A) (A) (A) (A)
                 (A) (A) (A) (A) (A) (A) (A) (A) (A) (A) (A) (A)
                 (A) (A) (A) (A) (A) (A) (A) (A) (A) (A) (A) (A)
                 (A) (A) (A) (A) (A) (A) (A) (A) (A) (A) (A) (A)
                 (A) (A) (A) (A) (A) (A) (A) (A) (A) (A) (A) (A)
                 (A) (A) (A) (A) (A) (A) (A) (A) (A) (A) (A) (A)
                 (A) (A) (A) (A) (A) (A) (A) (A) (A) (A) (A) (A)
                 (A) (A) (A) (A) (A) (A) (A) (A) (A) (A) (A) (A)
                 (A) (A) (A) (A) (A) (A) (A) (A) (A) (A) (A) (A)
                 (A) (A) (A) (A) (A) (A) (A) (A) (A) (A) (A) (A)
                 (A) (A) (A) (A) (A) (A) (A) (A) (A) (A) (A) (A)
                 (A) (A) (A) (A) (A) (A) (A) (A) (A) (A) (A) (A)
                 (A) (A) (A) (A) (A) (A) (A) (A) (A) (A) (A) (A)
                 (A) (A) (A) (A) (A) (A) (A) (A) (A) (A) (A) (A)
                 (A) (A) (A) (A) (A) (A) (A) (A) (A) (A) (A) (A)
                 (A) (A) (A) (A) (A) (A) (A) (A) (A) (A) (A) (A)
                 (A) (A) (A) (A) (A) (A) (A) (A) (A) (A) (A) (A)
                 (A) (A) (A) (A) (A) (A) (A) (A) (A) (A) (A) (A)
                 (A) (A) (A) (A) (A) (A) (A) (A)
 Beta  Orbitals:
       Occupied  (A) (A) (A) (A) (A) (A) (A) (A) (A) (A) (A) (A)
                 (A) (A) (A) (A) (A) (A) (A) (A) (A) (A) (A) (A)
                 (A) (A) (A) (A)
       Virtual   (A) (A) (A) (A) (A) (A) (A) (A) (A) (A) (A) (A)
                 (A) (A) (A) (A) (A) (A) (A) (A) (A) (A) (A) (A)
                 (A) (A) (A) (A) (A) (A) (A) (A) (A) (A) (A) (A)
                 (A) (A) (A) (A) (A) (A) (A) (A) (A) (A) (A) (A)
                 (A) (A) (A) (A) (A) (A) (A) (A) (A) (A) (A) (A)
                 (A) (A) (A) (A) (A) (A) (A) (A) (A) (A) (A) (A)
                 (A) (A) (A) (A) (A) (A) (A) (A) (A) (A) (A) (A)
                 (A) (A) (A) (A) (A) (A) (A) (A) (A) (A) (A) (A)
                 (A) (A) (A) (A) (A) (A) (A) (A) (A) (A) (A) (A)
                 (A) (A) (A) (A) (A) (A) (A) (A) (A) (A) (A) (A)
                 (A) (A) (A) (A) (A) (A) (A) (A) (A) (A) (A) (A)
                 (A) (A) (A) (A) (A) (A) (A) (A) (A) (A) (A) (A)
                 (A) (A) (A) (A) (A) (A) (A) (A) (A) (A) (A) (A)
                 (A) (A) (A) (A) (A) (A) (A) (A) (A) (A) (A) (A)
                 (A) (A) (A) (A) (A) (A) (A) (A) (A) (A) (A) (A)
                 (A) (A) (A) (A) (A) (A) (A) (A) (A) (A) (A) (A)
                 (A) (A) (A) (A) (A) (A) (A) (A) (A) (A) (A) (A)
                 (A) (A) (A) (A) (A) (A) (A) (A) (A) (A) (A) (A)
                 (A) (A) (A) (A) (A) (A) (A) (A) (A) (A) (A) (A)
                 (A) (A) (A) (A) (A) (A) (A) (A) (A) (A) (A) (A)
                 (A) (A) (A) (A) (A) (A) (A) (A) (A) (A) (A) (A)
                 (A) (A) (A) (A) (A) (A) (A) (A) (A) (A) (A) (A)
                 (A) (A) (A) (A) (A) (A) (A) (A) (A) (A) (A) (A)
                 (A) (A) (A) (A) (A) (A) (A) (A) (A) (A) (A) (A)
                 (A) (A) (A) (A) (A) (A) (A) (A) (A) (A) (A) (A)
                 (A) (A) (A) (A) (A) (A) (A) (A) (A) (A) (A) (A)
                 (A) (A) (A) (A) (A) (A) (A) (A) (A) (A) (A) (A)
                 (A) (A) (A) (A) (A) (A) (A) (A) (A) (A) (A) (A)
                 (A) (A) (A) (A) (A) (A) (A) (A) (A)
 The electronic state is 2-A.
 Alpha  occ. eigenvalues --  -10.55065 -10.53672 -10.53077 -10.53006 -10.52970
 Alpha  occ. eigenvalues --  -10.52916 -10.52432  -0.91046  -0.87807  -0.82398
 Alpha  occ. eigenvalues --   -0.75469  -0.68418  -0.65357  -0.64753  -0.55703
 Alpha  occ. eigenvalues --   -0.52667  -0.50180  -0.49170  -0.48104  -0.46011
 Alpha  occ. eigenvalues --   -0.43366  -0.42572  -0.41360  -0.39805  -0.38900
 Alpha  occ. eigenvalues --   -0.38444  -0.38318  -0.35272  -0.29241
 Alpha virt. eigenvalues --    0.01923   0.02528   0.03043   0.03548   0.04167
 Alpha virt. eigenvalues --    0.04748   0.05622   0.06473   0.06615   0.06844
 Alpha virt. eigenvalues --    0.07285   0.08273   0.09043   0.09167   0.10020
 Alpha virt. eigenvalues --    0.10612   0.12213   0.12669   0.13067   0.13907
 Alpha virt. eigenvalues --    0.14967   0.15937   0.17493   0.18201   0.19403
 Alpha virt. eigenvalues --    0.19689   0.20497   0.20714   0.21364   0.21717
 Alpha virt. eigenvalues --    0.22857   0.22901   0.22993   0.23838   0.24146
 Alpha virt. eigenvalues --    0.24733   0.25182   0.26462   0.26515   0.26915
 Alpha virt. eigenvalues --    0.27671   0.29096   0.30559   0.30823   0.31771
 Alpha virt. eigenvalues --    0.32084   0.33462   0.35039   0.36872   0.40963
 Alpha virt. eigenvalues --    0.41677   0.42237   0.43599   0.45460   0.46969
 Alpha virt. eigenvalues --    0.47930   0.48747   0.49766   0.50744   0.52126
 Alpha virt. eigenvalues --    0.52660   0.52844   0.53776   0.55370   0.56090
 Alpha virt. eigenvalues --    0.56897   0.57437   0.58255   0.59273   0.59366
 Alpha virt. eigenvalues --    0.61462   0.61693   0.62327   0.63699   0.64312
 Alpha virt. eigenvalues --    0.64664   0.65105   0.65554   0.66499   0.67305
 Alpha virt. eigenvalues --    0.67993   0.68474   0.69783   0.70936   0.71319
 Alpha virt. eigenvalues --    0.72436   0.72796   0.74178   0.74858   0.76331
 Alpha virt. eigenvalues --    0.77703   0.83202   0.83711   0.84883   0.86803
 Alpha virt. eigenvalues --    0.87256   0.88008   0.88758   0.89106   0.89969
 Alpha virt. eigenvalues --    0.90966   0.94471   0.95328   0.98642   1.00537
 Alpha virt. eigenvalues --    1.01719   1.02174   1.05738   1.07768   1.09147
 Alpha virt. eigenvalues --    1.09926   1.12320   1.13101   1.14271   1.14979
 Alpha virt. eigenvalues --    1.15307   1.15871   1.17156   1.17696   1.18249
 Alpha virt. eigenvalues --    1.19324   1.20664   1.21751   1.22310   1.23273
 Alpha virt. eigenvalues --    1.24966   1.25599   1.26197   1.27811   1.28123
 Alpha virt. eigenvalues --    1.29078   1.31114   1.32367   1.32626   1.33713
 Alpha virt. eigenvalues --    1.34862   1.36935   1.37896   1.41652   1.42310
 Alpha virt. eigenvalues --    1.42965   1.43674   1.44129   1.44793   1.45431
 Alpha virt. eigenvalues --    1.45830   1.47151   1.50366   1.50629   1.52043
 Alpha virt. eigenvalues --    1.53756   1.55098   1.56139   1.56596   1.57642
 Alpha virt. eigenvalues --    1.58811   1.59408   1.60308   1.61029   1.61731
 Alpha virt. eigenvalues --    1.62690   1.63844   1.64252   1.64674   1.70010
 Alpha virt. eigenvalues --    1.73132   1.73646   1.75455   1.75683   1.76082
 Alpha virt. eigenvalues --    1.76451   1.81070   2.37444   2.41373   2.48089
 Alpha virt. eigenvalues --    2.49475   2.50320   2.51545   2.58652   2.61909
 Alpha virt. eigenvalues --    2.63538   2.64775   2.66666   2.67957   2.68361
 Alpha virt. eigenvalues --    2.71115   2.74689   2.76912   2.78689   2.78822
 Alpha virt. eigenvalues --    2.80789   2.82012   2.82249   2.82592   2.83737
 Alpha virt. eigenvalues --    2.85898   2.86883   2.87812   2.88792   2.89472
 Alpha virt. eigenvalues --    2.92561   2.95392   2.96928   2.98728   2.99604
 Alpha virt. eigenvalues --    2.99952   3.02018   3.04845   3.05854   3.08275
 Alpha virt. eigenvalues --    3.09909   3.10647   3.14076   3.14249   3.15823
 Alpha virt. eigenvalues --    3.16401   3.19520   3.21179   3.22331   3.25057
 Alpha virt. eigenvalues --    3.25939   3.28242   3.29418   3.31886   3.32165
 Alpha virt. eigenvalues --    3.34000   3.34921   3.35591   3.36370   3.36900
 Alpha virt. eigenvalues --    3.37774   3.38205   3.40405   3.41977   3.43144
 Alpha virt. eigenvalues --    3.43660   3.46319   3.48079   3.54460   3.55981
 Alpha virt. eigenvalues --    3.57343   3.58738   3.60065   3.61994   3.63535
 Alpha virt. eigenvalues --    3.64802   3.65132   3.66985   3.67709   3.68841
 Alpha virt. eigenvalues --    3.69804   3.69921   3.74925   3.77143   3.80125
 Alpha virt. eigenvalues --    3.80700   3.82335   3.82827   3.83258   3.85785
 Alpha virt. eigenvalues --    3.87564   3.88470   3.89489   3.93036   3.94277
 Alpha virt. eigenvalues --    3.95161   3.96195   3.97035   3.98132   4.00159
 Alpha virt. eigenvalues --    4.00616   4.02028   4.03256   4.07184   4.09186
 Alpha virt. eigenvalues --    4.09724   4.11207   4.13092   4.13617   4.15321
 Alpha virt. eigenvalues --    4.16768   4.17566   4.17836   4.19321   4.21003
 Alpha virt. eigenvalues --    4.21634   4.22559   4.24351   4.27439   4.30568
 Alpha virt. eigenvalues --    4.31535   4.32857   4.35576   4.35902   4.37356
 Alpha virt. eigenvalues --    4.37671   4.38715   4.45249   4.46946   4.47440
 Alpha virt. eigenvalues --    4.48910   4.49332   4.50402   4.50877   4.51098
 Alpha virt. eigenvalues --    4.52972   4.54553   4.55648   4.56538   4.58807
 Alpha virt. eigenvalues --    4.61889   4.62945   4.63716   4.68570   4.70908
 Alpha virt. eigenvalues --    4.73072   4.74869   4.83371   4.87586   4.99360
 Alpha virt. eigenvalues --    5.08579   5.16612   5.19974   5.36319   5.37999
 Alpha virt. eigenvalues --    5.39823   5.42146   5.47360   5.49962   5.51114
 Alpha virt. eigenvalues --    5.51508   5.54456   5.57309   5.57727   5.59486
 Alpha virt. eigenvalues --    5.61757   5.61880  24.10205  24.19002  24.28088
 Alpha virt. eigenvalues --   24.33735  24.38208  24.41885  24.44203
  Beta  occ. eigenvalues --  -10.54186 -10.53700 -10.53058 -10.53006 -10.52970
  Beta  occ. eigenvalues --  -10.52916 -10.52432  -0.90852  -0.87306  -0.81616
  Beta  occ. eigenvalues --   -0.74497  -0.67518  -0.65275  -0.63687  -0.55529
  Beta  occ. eigenvalues --   -0.52221  -0.49693  -0.48762  -0.47521  -0.45514
  Beta  occ. eigenvalues --   -0.42815  -0.42117  -0.40995  -0.39529  -0.38754
  Beta  occ. eigenvalues --   -0.38393  -0.38308  -0.34990
  Beta virt. eigenvalues --   -0.04620   0.01855   0.02443   0.02993   0.03573
  Beta virt. eigenvalues --    0.04163   0.04800   0.05708   0.06444   0.06484
  Beta virt. eigenvalues --    0.06893   0.07451   0.08416   0.08761   0.09231
  Beta virt. eigenvalues --    0.10135   0.10866   0.12122   0.12604   0.13005
  Beta virt. eigenvalues --    0.13333   0.14997   0.15758   0.16999   0.18169
  Beta virt. eigenvalues --    0.19394   0.19680   0.20217   0.20762   0.21369
  Beta virt. eigenvalues --    0.21652   0.22927   0.22964   0.23124   0.23925
  Beta virt. eigenvalues --    0.24200   0.24896   0.25419   0.26429   0.26634
  Beta virt. eigenvalues --    0.27028   0.27886   0.28450   0.30578   0.30980
  Beta virt. eigenvalues --    0.31799   0.32124   0.33563   0.35169   0.37206
  Beta virt. eigenvalues --    0.41032   0.41704   0.42322   0.43638   0.45721
  Beta virt. eigenvalues --    0.47021   0.47937   0.48763   0.50200   0.50894
  Beta virt. eigenvalues --    0.52199   0.52590   0.53237   0.54627   0.55368
  Beta virt. eigenvalues --    0.55975   0.56911   0.58192   0.58330   0.59077
  Beta virt. eigenvalues --    0.59405   0.61113   0.61711   0.62645   0.63440
  Beta virt. eigenvalues --    0.64587   0.64942   0.65274   0.65567   0.66165
  Beta virt. eigenvalues --    0.67000   0.67724   0.68584   0.69864   0.70838
  Beta virt. eigenvalues --    0.71389   0.72544   0.72824   0.74153   0.74521
  Beta virt. eigenvalues --    0.75725   0.76931   0.83173   0.83690   0.84784
  Beta virt. eigenvalues --    0.86693   0.87228   0.87980   0.88726   0.89008
  Beta virt. eigenvalues --    0.89839   0.90920   0.94200   0.95464   0.98224
  Beta virt. eigenvalues --    1.00334   1.01665   1.02294   1.05575   1.07729
  Beta virt. eigenvalues --    1.09093   1.10094   1.12341   1.13135   1.14285
  Beta virt. eigenvalues --    1.14958   1.15306   1.15776   1.17190   1.17702
  Beta virt. eigenvalues --    1.18339   1.19291   1.20737   1.21888   1.22445
  Beta virt. eigenvalues --    1.23220   1.24939   1.25640   1.26248   1.27877
  Beta virt. eigenvalues --    1.28239   1.29350   1.31136   1.32222   1.32625
  Beta virt. eigenvalues --    1.33834   1.34820   1.37108   1.38120   1.41765
  Beta virt. eigenvalues --    1.42274   1.43028   1.43652   1.44080   1.44810
  Beta virt. eigenvalues --    1.45545   1.45843   1.47173   1.50350   1.50805
  Beta virt. eigenvalues --    1.52159   1.53930   1.55083   1.56206   1.56591
  Beta virt. eigenvalues --    1.57670   1.58886   1.59764   1.60319   1.61020
  Beta virt. eigenvalues --    1.61847   1.62679   1.63842   1.64221   1.64691
  Beta virt. eigenvalues --    1.70128   1.72988   1.73642   1.75436   1.75724
  Beta virt. eigenvalues --    1.76204   1.76503   1.81029   2.37555   2.41810
  Beta virt. eigenvalues --    2.48586   2.49611   2.50618   2.52063   2.58793
  Beta virt. eigenvalues --    2.62268   2.63790   2.65489   2.66840   2.68009
  Beta virt. eigenvalues --    2.69055   2.71231   2.75110   2.78349   2.78920
  Beta virt. eigenvalues --    2.79603   2.81206   2.82365   2.82834   2.83728
  Beta virt. eigenvalues --    2.84050   2.86145   2.87617   2.88408   2.89679
  Beta virt. eigenvalues --    2.90718   2.93814   2.95766   2.97680   2.98756
  Beta virt. eigenvalues --    3.00284   3.01787   3.02782   3.05367   3.07320
  Beta virt. eigenvalues --    3.09131   3.10681   3.11431   3.14590   3.15232
  Beta virt. eigenvalues --    3.16541   3.17322   3.21257   3.22381   3.23064
  Beta virt. eigenvalues --    3.25579   3.27286   3.28872   3.30605   3.32314
  Beta virt. eigenvalues --    3.33424   3.34136   3.35091   3.35824   3.36838
  Beta virt. eigenvalues --    3.37579   3.38124   3.38832   3.40760   3.42283
  Beta virt. eigenvalues --    3.43410   3.46291   3.47534   3.52068   3.55162
  Beta virt. eigenvalues --    3.56677   3.58269   3.60036   3.60315   3.63421
  Beta virt. eigenvalues --    3.63781   3.65197   3.65428   3.67650   3.68169
  Beta virt. eigenvalues --    3.69408   3.69791   3.71106   3.76318   3.77480
  Beta virt. eigenvalues --    3.80184   3.80789   3.82521   3.83018   3.83900
  Beta virt. eigenvalues --    3.86218   3.87738   3.88502   3.90317   3.93720
  Beta virt. eigenvalues --    3.94515   3.95194   3.96724   3.97344   3.98517
  Beta virt. eigenvalues --    4.00157   4.00771   4.02517   4.04429   4.07480
  Beta virt. eigenvalues --    4.09982   4.10452   4.11839   4.13910   4.14128
  Beta virt. eigenvalues --    4.15618   4.17159   4.17797   4.18051   4.19563
  Beta virt. eigenvalues --    4.21262   4.21835   4.22689   4.24578   4.28751
  Beta virt. eigenvalues --    4.30747   4.32192   4.33191   4.36088   4.36396
  Beta virt. eigenvalues --    4.37827   4.38178   4.39377   4.45509   4.47767
  Beta virt. eigenvalues --    4.48099   4.49269   4.49647   4.50543   4.50927
  Beta virt. eigenvalues --    4.51396   4.53602   4.54698   4.56311   4.56753
  Beta virt. eigenvalues --    4.59600   4.62021   4.63089   4.63766   4.69051
  Beta virt. eigenvalues --    4.71156   4.73354   4.75246   4.83648   4.87890
  Beta virt. eigenvalues --    4.99956   5.08931   5.17181   5.21053   5.37978
  Beta virt. eigenvalues --    5.38522   5.40276   5.43379   5.49908   5.50449
  Beta virt. eigenvalues --    5.51114   5.52672   5.54531   5.57283   5.57728
  Beta virt. eigenvalues --    5.59504   5.61761   5.61904  24.10925  24.19577
  Beta virt. eigenvalues --   24.28258  24.33797  24.38244  24.41911  24.44213
          Condensed to atoms (all electrons):
              1          2          3          4          5          6
     1  C    5.825386  -0.245380  -0.270449   0.224836   0.217919  -0.099891
     2  C   -0.245380   6.010988   0.009621  -0.289152  -0.011436   0.163207
     3  C   -0.270449   0.009621   6.028898  -0.007431  -0.281817  -0.083072
     4  C    0.224836  -0.289152  -0.007431   5.663239  -0.062839   0.014285
     5  C    0.217919  -0.011436  -0.281817  -0.062839   5.608830   0.004734
     6  C   -0.099891   0.163207  -0.083072   0.014285   0.004734   5.440162
     7  C   -0.089012  -0.079974   0.132226   0.004053   0.107015  -0.001501
     8  H   -0.050946  -0.013001   0.465689   0.002764  -0.059337  -0.000256
     9  H   -0.042828  -0.003959   0.464156   0.003661  -0.063057  -0.000019
    10  H    0.458801  -0.048420  -0.051534  -0.005615  -0.007994   0.001409
    11  H    0.460007  -0.055348  -0.051864  -0.005240  -0.004807   0.001653
    12  H   -0.048092   0.466281  -0.009738  -0.060688   0.002401  -0.001268
    13  H   -0.049858   0.465979  -0.007533  -0.061274   0.003066  -0.002340
    14  H   -0.018312  -0.023481   0.001717   0.433393   0.000433  -0.041877
    15  H   -0.019344  -0.021782   0.000901   0.432945   0.000220  -0.041207
    16  H   -0.006424   0.000008  -0.035162   0.000581   0.445938  -0.000072
    17  H   -0.028113   0.000512  -0.001905  -0.000122   0.413391  -0.000267
    18  H    0.009280   0.045834   0.002227  -0.068381   0.000177   0.391979
    19  H   -0.005100  -0.027799  -0.000289   0.000357  -0.000264   0.403512
    20  H   -0.004948  -0.028055  -0.000218   0.000342  -0.000256   0.403506
    21  H    0.013223   0.002464   0.039904   0.000204  -0.062001   0.000010
    22  H   -0.002723  -0.000645  -0.046379  -0.000313   0.026016  -0.000006
              7          8          9         10         11         12
     1  C   -0.089012  -0.050946  -0.042828   0.458801   0.460007  -0.048092
     2  C   -0.079974  -0.013001  -0.003959  -0.048420  -0.055348   0.466281
     3  C    0.132226   0.465689   0.464156  -0.051534  -0.051864  -0.009738
     4  C    0.004053   0.002764   0.003661  -0.005615  -0.005240  -0.060688
     5  C    0.107015  -0.059337  -0.063057  -0.007994  -0.004807   0.002401
     6  C   -0.001501  -0.000256  -0.000019   0.001409   0.001653  -0.001268
     7  C    5.665285   0.005370  -0.010699   0.001525   0.002397  -0.000367
     8  H    0.005370   0.511065  -0.030009  -0.005406   0.004913   0.000852
     9  H   -0.010699  -0.030009   0.519143   0.004942  -0.005577  -0.000022
    10  H    0.001525  -0.005406   0.004942   0.517100  -0.030053  -0.005623
    11  H    0.002397   0.004913  -0.005577  -0.030053   0.520486   0.005006
    12  H   -0.000367   0.000852  -0.000022  -0.005623   0.005006   0.518263
    13  H    0.000253   0.000025   0.000871   0.004951  -0.005539  -0.030885
    14  H   -0.000091   0.000044  -0.000059   0.000899  -0.000205  -0.006385
    15  H   -0.000150  -0.000059   0.000043  -0.000214   0.000857   0.005182
    16  H   -0.055712  -0.006556   0.005327   0.000829  -0.000277   0.000057
    17  H   -0.044281   0.005288  -0.007517  -0.000237   0.000877  -0.000066
    18  H    0.000009   0.000001   0.000001  -0.000008  -0.000008   0.000063
    19  H   -0.000014  -0.000020   0.000004   0.000038  -0.000040   0.001772
    20  H   -0.000013   0.000004  -0.000021  -0.000039   0.000036  -0.000556
    21  H    0.375253   0.000162   0.000096  -0.000007  -0.000016   0.000001
    22  H    0.376110  -0.000620   0.002564  -0.000037   0.000022   0.000004
             13         14         15         16         17         18
     1  C   -0.049858  -0.018312  -0.019344  -0.006424  -0.028113   0.009280
     2  C    0.465979  -0.023481  -0.021782   0.000008   0.000512   0.045834
     3  C   -0.007533   0.001717   0.000901  -0.035162  -0.001905   0.002227
     4  C   -0.061274   0.433393   0.432945   0.000581  -0.000122  -0.068381
     5  C    0.003066   0.000433   0.000220   0.445938   0.413391   0.000177
     6  C   -0.002340  -0.041877  -0.041207  -0.000072  -0.000267   0.391979
     7  C    0.000253  -0.000091  -0.000150  -0.055712  -0.044281   0.000009
     8  H    0.000025   0.000044  -0.000059  -0.006556   0.005288   0.000001
     9  H    0.000871  -0.000059   0.000043   0.005327  -0.007517   0.000001
    10  H    0.004951   0.000899  -0.000214   0.000829  -0.000237  -0.000008
    11  H   -0.005539  -0.000205   0.000857  -0.000277   0.000877  -0.000008
    12  H   -0.030885  -0.006385   0.005182   0.000057  -0.000066   0.000063
    13  H    0.519266   0.005196  -0.006457  -0.000057   0.000053   0.000060
    14  H    0.005196   0.535734  -0.032343  -0.000024   0.000003  -0.004558
    15  H   -0.006457  -0.032343   0.536471   0.000003  -0.000025  -0.004550
    16  H   -0.000057  -0.000024   0.000003   0.540015  -0.035945   0.000000
    17  H    0.000053   0.000003  -0.000025  -0.035945   0.553125   0.000000
    18  H    0.000060  -0.004558  -0.004550   0.000000   0.000000   0.539819
    19  H   -0.000557  -0.008077   0.006156   0.000000   0.000000  -0.024227
    20  H    0.001809   0.006152  -0.008101   0.000000   0.000000  -0.024309
    21  H    0.000001   0.000000   0.000000  -0.006259  -0.001955   0.000000
    22  H   -0.000021   0.000000   0.000000   0.006238  -0.007970   0.000000
             19         20         21         22
     1  C   -0.005100  -0.004948   0.013223  -0.002723
     2  C   -0.027799  -0.028055   0.002464  -0.000645
     3  C   -0.000289  -0.000218   0.039904  -0.046379
     4  C    0.000357   0.000342   0.000204  -0.000313
     5  C   -0.000264  -0.000256  -0.062001   0.026016
     6  C    0.403512   0.403506   0.000010  -0.000006
     7  C   -0.000014  -0.000013   0.375253   0.376110
     8  H   -0.000020   0.000004   0.000162  -0.000620
     9  H    0.000004  -0.000021   0.000096   0.002564
    10  H    0.000038  -0.000039  -0.000007  -0.000037
    11  H   -0.000040   0.000036  -0.000016   0.000022
    12  H    0.001772  -0.000556   0.000001   0.000004
    13  H   -0.000557   0.001809   0.000001  -0.000021
    14  H   -0.008077   0.006152   0.000000   0.000000
    15  H    0.006156  -0.008101   0.000000   0.000000
    16  H    0.000000   0.000000  -0.006259   0.006238
    17  H    0.000000   0.000000  -0.001955  -0.007970
    18  H   -0.024227  -0.024309   0.000000   0.000000
    19  H    0.556748  -0.034487   0.000000   0.000000
    20  H   -0.034487   0.557190   0.000000   0.000000
    21  H    0.000000   0.000000   0.523556  -0.032500
    22  H    0.000000   0.000000  -0.032500   0.543370
 Mulliken atomic charges:
              1
     1  C   -0.228034
     2  C   -0.316465
     3  C   -0.297948
     4  C   -0.219603
     5  C   -0.276331
     6  C   -0.552679
     7  C   -0.387685
     8  H    0.170033
     9  H    0.162957
    10  H    0.164693
    11  H    0.162721
    12  H    0.163808
    13  H    0.162989
    14  H    0.151842
    15  H    0.151455
    16  H    0.147494
    17  H    0.155156
    18  H    0.136591
    19  H    0.132288
    20  H    0.131964
    21  H    0.147864
    22  H    0.136890
 Sum of Mulliken atomic charges =   0.00000
 Mulliken charges with hydrogens summed into heavy atoms:
              1
     1  C    0.099380
     2  C    0.010332
     3  C    0.035042
     4  C    0.083694
     5  C    0.026320
     6  C   -0.151836
     7  C   -0.102931
 Sum of Mulliken charges with hydrogens summed into heavy atoms =   0.00000
          Atomic-Atomic Spin Densities.
              1          2          3          4          5          6
     1  C    0.044222   0.009952  -0.031213  -0.005342   0.013058  -0.003256
     2  C    0.009952   0.041815  -0.047301   0.006592  -0.004473   0.003933
     3  C   -0.031213  -0.047301   0.115383   0.000454  -0.024752  -0.006289
     4  C   -0.005342   0.006592   0.000454   0.005815  -0.005202  -0.001140
     5  C    0.013058  -0.004473  -0.024752  -0.005202   0.027763  -0.001204
     6  C   -0.003256   0.003933  -0.006289  -0.001140  -0.001204   0.008217
     7  C   -0.035628  -0.013405   0.025220  -0.000732  -0.073933  -0.000329
     8  H    0.000021  -0.009427   0.013613  -0.001256   0.004695  -0.000181
     9  H   -0.001591   0.004932  -0.003445   0.000315  -0.000232   0.000098
    10  H   -0.003027   0.001304   0.000143   0.000384   0.000745  -0.000130
    11  H    0.002942  -0.005852   0.007363  -0.001729  -0.000150  -0.000362
    12  H    0.001054  -0.001328   0.000983  -0.000569  -0.000239   0.000062
    13  H   -0.000073  -0.000580   0.000758  -0.000040   0.000237  -0.000278
    14  H    0.000277  -0.000195  -0.000013  -0.000041   0.000022  -0.000028
    15  H    0.000067   0.000034  -0.000471   0.000161  -0.000009   0.000235
    16  H    0.007342  -0.000139   0.004139   0.000316   0.000861   0.000046
    17  H   -0.013039  -0.002477   0.001046  -0.000750   0.026520  -0.000120
    18  H    0.000081  -0.000196   0.000016   0.000350   0.000003  -0.000266
    19  H   -0.000105  -0.000008  -0.000103   0.000095   0.000001   0.000107
    20  H   -0.000019   0.000060  -0.000006  -0.000071  -0.000003   0.000038
    21  H    0.003075   0.000594   0.003688   0.000044   0.006829   0.000004
    22  H   -0.002887   0.000109   0.006660  -0.000001   0.000232   0.000001
              7          8          9         10         11         12
     1  C   -0.035628   0.000021  -0.001591  -0.003027   0.002942   0.001054
     2  C   -0.013405  -0.009427   0.004932   0.001304  -0.005852  -0.001328
     3  C    0.025220   0.013613  -0.003445   0.000143   0.007363   0.000983
     4  C   -0.000732  -0.001256   0.000315   0.000384  -0.001729  -0.000569
     5  C   -0.073933   0.004695  -0.000232   0.000745  -0.000150  -0.000239
     6  C   -0.000329  -0.000181   0.000098  -0.000130  -0.000362   0.000062
     7  C    1.190632  -0.003331  -0.001720   0.000584  -0.000839  -0.000157
     8  H   -0.003331  -0.014424  -0.000454  -0.000194  -0.000284   0.000093
     9  H   -0.001720  -0.000454   0.000774   0.000071  -0.000025  -0.000022
    10  H    0.000584  -0.000194   0.000071   0.000443  -0.000401  -0.000122
    11  H   -0.000839  -0.000284  -0.000025  -0.000401  -0.002156   0.000052
    12  H   -0.000157   0.000093  -0.000022  -0.000122   0.000052   0.000699
    13  H    0.000001   0.000055  -0.000108  -0.000003   0.000003  -0.000073
    14  H   -0.000001   0.000010  -0.000002  -0.000026   0.000031   0.000011
    15  H    0.000005   0.000002   0.000003  -0.000004   0.000026   0.000006
    16  H   -0.014971  -0.000392   0.000166  -0.000212   0.000167   0.000023
    17  H   -0.023847   0.000309  -0.001064   0.000152  -0.000478  -0.000020
    18  H    0.000001   0.000000   0.000000   0.000001  -0.000001  -0.000003
    19  H    0.000000  -0.000001   0.000000   0.000002  -0.000001  -0.000017
    20  H   -0.000001   0.000000   0.000000   0.000000   0.000000   0.000004
    21  H   -0.020144   0.000007   0.000027  -0.000004   0.000005   0.000000
    22  H   -0.012795   0.000057   0.000027  -0.000001   0.000039   0.000003
             13         14         15         16         17         18
     1  C   -0.000073   0.000277   0.000067   0.007342  -0.013039   0.000081
     2  C   -0.000580  -0.000195   0.000034  -0.000139  -0.002477  -0.000196
     3  C    0.000758  -0.000013  -0.000471   0.004139   0.001046   0.000016
     4  C   -0.000040  -0.000041   0.000161   0.000316  -0.000750   0.000350
     5  C    0.000237   0.000022  -0.000009   0.000861   0.026520   0.000003
     6  C   -0.000278  -0.000028   0.000235   0.000046  -0.000120  -0.000266
     7  C    0.000001  -0.000001   0.000005  -0.014971  -0.023847   0.000001
     8  H    0.000055   0.000010   0.000002  -0.000392   0.000309   0.000000
     9  H   -0.000108  -0.000002   0.000003   0.000166  -0.001064   0.000000
    10  H   -0.000003  -0.000026  -0.000004  -0.000212   0.000152   0.000001
    11  H    0.000003   0.000031   0.000026   0.000167  -0.000478  -0.000001
    12  H   -0.000073   0.000011   0.000006   0.000023  -0.000020  -0.000003
    13  H    0.000149   0.000005  -0.000022  -0.000005   0.000031   0.000001
    14  H    0.000005   0.000005  -0.000024   0.000000   0.000001  -0.000007
    15  H   -0.000022  -0.000024   0.000032   0.000001  -0.000003  -0.000005
    16  H   -0.000005   0.000000   0.000001   0.019210  -0.009301   0.000000
    17  H    0.000031   0.000001  -0.000003  -0.009301   0.069592   0.000000
    18  H    0.000001  -0.000007  -0.000005   0.000000   0.000000   0.000010
    19  H   -0.000003  -0.000007   0.000003   0.000000   0.000000   0.000015
    20  H   -0.000002   0.000001   0.000004   0.000000   0.000000   0.000001
    21  H    0.000000   0.000000   0.000000   0.001232  -0.002704   0.000000
    22  H   -0.000001   0.000000   0.000000   0.000621  -0.003563   0.000000
             19         20         21         22
     1  C   -0.000105  -0.000019   0.003075  -0.002887
     2  C   -0.000008   0.000060   0.000594   0.000109
     3  C   -0.000103  -0.000006   0.003688   0.006660
     4  C    0.000095  -0.000071   0.000044  -0.000001
     5  C    0.000001  -0.000003   0.006829   0.000232
     6  C    0.000107   0.000038   0.000004   0.000001
     7  C    0.000000  -0.000001  -0.020144  -0.012795
     8  H   -0.000001   0.000000   0.000007   0.000057
     9  H    0.000000   0.000000   0.000027   0.000027
    10  H    0.000002   0.000000  -0.000004  -0.000001
    11  H   -0.000001   0.000000   0.000005   0.000039
    12  H   -0.000017   0.000004   0.000000   0.000003
    13  H   -0.000003  -0.000002   0.000000  -0.000001
    14  H   -0.000007   0.000001   0.000000   0.000000
    15  H    0.000003   0.000004   0.000000   0.000000
    16  H    0.000000   0.000000   0.001232   0.000621
    17  H    0.000000   0.000000  -0.002704  -0.003563
    18  H    0.000015   0.000001   0.000000   0.000000
    19  H    0.000027  -0.000002   0.000000   0.000000
    20  H   -0.000002   0.000000   0.000000   0.000000
    21  H    0.000000   0.000000  -0.024601   0.004495
    22  H    0.000000   0.000000   0.004495  -0.018141
 Mulliken atomic spin densities:
              1
     1  C   -0.014089
     2  C   -0.016056
     3  C    0.065876
     4  C   -0.002346
     5  C   -0.029230
     6  C   -0.000841
     7  C    1.014610
     8  H   -0.011081
     9  H   -0.002248
    10  H   -0.000294
    11  H   -0.001649
    12  H    0.000441
    13  H    0.000052
    14  H    0.000019
    15  H    0.000038
    16  H    0.009104
    17  H    0.040283
    18  H    0.000001
    19  H    0.000004
    20  H    0.000005
    21  H   -0.027454
    22  H   -0.025145
 Sum of Mulliken atomic spin densities =   1.00000
 Electronic spatial extent (au):  <R**2>=           1611.8063
 Charge=              0.0000 electrons
 Dipole moment (field-independent basis, Debye):
    X=              0.2100    Y=              0.5045    Z=              0.4804  Tot=              0.7276
 Quadrupole moment (field-independent basis, Debye-Ang):
   XX=            -51.3383   YY=            -49.5166   ZZ=            -47.4314
   XY=             -1.5628   XZ=             -1.9594   YZ=             -0.7582
 Traceless Quadrupole moment (field-independent basis, Debye-Ang):
   XX=             -1.9095   YY=             -0.0879   ZZ=              1.9974
   XY=             -1.5628   XZ=             -1.9594   YZ=             -0.7582
 Octapole moment (field-independent basis, Debye-Ang**2):
  XXX=              5.3213  YYY=              1.5308  ZZZ=              1.0907  XYY=              2.2040
  XXY=             11.3596  XXZ=              7.9209  XZZ=              2.6267  YZZ=              0.3858
  YYZ=              0.9658  XYZ=              2.5204
 Hexadecapole moment (field-independent basis, Debye-Ang**3):
 XXXX=          -2114.3971 YYYY=           -178.4601 ZZZZ=           -102.2043 XXXY=            -25.2578
 XXXZ=            -30.6583 YYYX=             -4.6893 YYYZ=             -3.1234 ZZZX=             -5.2207
 ZZZY=             -0.5558 XXYY=           -378.2224 XXZZ=           -361.5117 YYZZ=            -41.0824
 XXYZ=            -10.9087 YYXZ=             -3.5406 ZZXY=             -3.6004
 N-N= 2.979451995672D+02 E-N=-1.843514864247D+03  KE= 4.103245294922D+02
                          Isotropic Fermi Contact Couplings
        Atom                 a.u.       MegaHertz       Gauss      10(-4) cm-1
     1  C(13)             -0.00100      -1.12284      -0.40066      -0.37454
     2  C(13)             -0.00031      -0.35112      -0.12529      -0.11712
     3  C(13)              0.01397      15.70384       5.60352       5.23824
     4  C(13)              0.00015       0.16685       0.05954       0.05566
     5  C(13)             -0.01553     -17.46245      -6.23104      -5.82485
     6  C(13)             -0.00002      -0.02251      -0.00803      -0.00751
     7  C(13)              0.39753     446.89804     159.46433     149.06914
     8  H(1)              -0.00031      -1.39526      -0.49786      -0.46541
     9  H(1)              -0.00027      -1.19889      -0.42779      -0.39991
    10  H(1)               0.00003       0.14185       0.05062       0.04732
    11  H(1)               0.00030       1.35657       0.48406       0.45250
    12  H(1)               0.00007       0.30489       0.10879       0.10170
    13  H(1)               0.00000       0.01349       0.00481       0.00450
    14  H(1)               0.00000      -0.01500      -0.00535      -0.00500
    15  H(1)               0.00000      -0.01739      -0.00620      -0.00580
    16  H(1)               0.00367      16.39717       5.85092       5.46951
    17  H(1)               0.02307     103.10216      36.78941      34.39118
    18  H(1)               0.00000      -0.00417      -0.00149      -0.00139
    19  H(1)               0.00000      -0.00116      -0.00041      -0.00039
    20  H(1)               0.00000       0.00139       0.00050       0.00046
    21  H(1)              -0.00552     -24.66737      -8.80193      -8.22815
    22  H(1)              -0.00474     -21.16528      -7.55230      -7.05998
 --------------------------------------------------------
       Center         ----  Spin Dipole Couplings  ----
                      3XX-RR        3YY-RR        3ZZ-RR
 --------------------------------------------------------
     1   Atom        0.003635     -0.001980     -0.001655
     2   Atom        0.002091     -0.001103     -0.000988
     3   Atom        0.021741     -0.011352     -0.010389
     4   Atom        0.001260     -0.000600     -0.000660
     5   Atom       -0.004480      0.004721     -0.000242
     6   Atom        0.000699     -0.000349     -0.000350
     7   Atom       -0.488038     -0.059823      0.547861
     8   Atom        0.012312     -0.006482     -0.005830
     9   Atom        0.007280     -0.004494     -0.002786
    10   Atom        0.002729     -0.001013     -0.001716
    11   Atom        0.003177     -0.001633     -0.001544
    12   Atom        0.002114     -0.001066     -0.001049
    13   Atom        0.001905     -0.000968     -0.000938
    14   Atom        0.000954     -0.000439     -0.000515
    15   Atom        0.000947     -0.000461     -0.000487
    16   Atom       -0.001643      0.009226     -0.007583
    17   Atom       -0.000053      0.000999     -0.000946
    18   Atom        0.000487     -0.000240     -0.000247
    19   Atom        0.000661     -0.000333     -0.000328
    20   Atom        0.000632     -0.000321     -0.000311
    21   Atom        0.028500     -0.006737     -0.021764
    22   Atom       -0.058769      0.013081      0.045688
 --------------------------------------------------------
                        XY            XZ            YZ
 --------------------------------------------------------
     1   Atom        0.002452      0.001784      0.001923
     2   Atom        0.000361      0.000167      0.000089
     3   Atom       -0.002922      0.008229     -0.000131
     4   Atom        0.000338      0.000008      0.000004
     5   Atom        0.019409      0.014140      0.020847
     6   Atom        0.000005      0.000022      0.000013
     7   Atom       -0.046409     -0.066083      0.667710
     8   Atom       -0.002749     -0.004878      0.002310
     9   Atom       -0.003493      0.006406     -0.001503
    10   Atom        0.002204     -0.000941     -0.000355
    11   Atom        0.001504      0.001066      0.000876
    12   Atom       -0.000298     -0.000449      0.000069
    13   Atom       -0.000421      0.000668     -0.000030
    14   Atom        0.000401     -0.000159     -0.000034
    15   Atom        0.000346      0.000283      0.000090
    16   Atom        0.013030     -0.004472     -0.005703
    17   Atom        0.008983      0.003520      0.008915
    18   Atom        0.000066      0.000025      0.000007
    19   Atom       -0.000058     -0.000089      0.000012
    20   Atom       -0.000082      0.000143     -0.000007
    21   Atom       -0.059891      0.007530      0.015930
    22   Atom        0.001309     -0.007076     -0.040349
 --------------------------------------------------------


 ---------------------------------------------------------------------------------
              Anisotropic Spin Dipole Couplings in Principal Axis System
 ---------------------------------------------------------------------------------

       Atom             a.u.   MegaHertz   Gauss  10(-4) cm-1        Axes

              Baa    -0.0038    -0.512    -0.183    -0.171 -0.1139  0.7870 -0.6063
     1 C(13)  Bbb    -0.0015    -0.207    -0.074    -0.069 -0.4822  0.4898  0.7263
              Bcc     0.0054     0.719     0.257     0.240  0.8686  0.3751  0.3238
 
              Baa    -0.0012    -0.157    -0.056    -0.052 -0.0831  0.9239 -0.3734
     2 C(13)  Bbb    -0.0010    -0.130    -0.046    -0.043 -0.0935  0.3659  0.9260
              Bcc     0.0021     0.287     0.103     0.096  0.9921  0.1119  0.0560
 
              Baa    -0.0127    -1.699    -0.606    -0.567 -0.2434 -0.4576  0.8552
     3 C(13)  Bbb    -0.0113    -1.516    -0.541    -0.506 -0.0371  0.8854  0.4633
              Bcc     0.0240     3.215     1.147     1.072  0.9692 -0.0811  0.2325
 
              Baa    -0.0007    -0.089    -0.032    -0.030  0.1062 -0.6224  0.7754
     4 C(13)  Bbb    -0.0007    -0.088    -0.031    -0.029 -0.1370  0.7632  0.6314
              Bcc     0.0013     0.177     0.063     0.059  0.9849  0.1733  0.0042
 
              Baa    -0.0205    -2.756    -0.983    -0.919 -0.5789  0.7355 -0.3521
     5 C(13)  Bbb    -0.0165    -2.213    -0.790    -0.738 -0.6443 -0.1479  0.7503
              Bcc     0.0370     4.969     1.773     1.657  0.4998  0.6612  0.5595
 
              Baa    -0.0004    -0.049    -0.017    -0.016 -0.0119 -0.6811  0.7321
     6 C(13)  Bbb    -0.0003    -0.045    -0.016    -0.015 -0.0179  0.7322  0.6808
              Bcc     0.0007     0.094     0.033     0.031  0.9998  0.0050  0.0209
 
              Baa    -0.4946   -66.368   -23.682   -22.138  0.8373  0.4830 -0.2563
     7 C(13)  Bbb    -0.4875   -65.412   -23.341   -21.819 -0.5440  0.6889 -0.4790
              Bcc     0.9820   131.780    47.022    43.957 -0.0548  0.5405  0.8396
 
              Baa    -0.0086    -4.576    -1.633    -1.526  0.0767 -0.6916  0.7182
     8 H(1)   Bbb    -0.0055    -2.922    -1.042    -0.975  0.2868  0.7052  0.6484
              Bcc     0.0141     7.497     2.675     2.501  0.9549 -0.1563 -0.2524
 
              Baa    -0.0060    -3.176    -1.133    -1.059 -0.4780 -0.2907  0.8289
     9 H(1)   Bbb    -0.0054    -2.857    -1.019    -0.953  0.0708  0.9278  0.3663
              Bcc     0.0113     6.033     2.153     2.012  0.8755 -0.2337  0.4229
 
              Baa    -0.0021    -1.101    -0.393    -0.367 -0.4469  0.8071 -0.3858
    10 H(1)   Bbb    -0.0019    -0.994    -0.355    -0.332 -0.0175  0.4233  0.9058
              Bcc     0.0039     2.095     0.748     0.699  0.8944  0.4115 -0.1751
 
              Baa    -0.0025    -1.333    -0.476    -0.445 -0.0918  0.7827 -0.6156
    11 H(1)   Bbb    -0.0014    -0.751    -0.268    -0.250 -0.3563  0.5514  0.7543
              Bcc     0.0039     2.083     0.743     0.695  0.9299  0.2886  0.2283
 
              Baa    -0.0011    -0.604    -0.215    -0.201  0.0576 -0.5885  0.8064
    12 H(1)   Bbb    -0.0011    -0.573    -0.204    -0.191  0.1560  0.8032  0.5750
              Bcc     0.0022     1.177     0.420     0.392  0.9861 -0.0927 -0.1381
 
              Baa    -0.0011    -0.600    -0.214    -0.200 -0.2522 -0.5191  0.8166
    13 H(1)   Bbb    -0.0010    -0.526    -0.188    -0.176 -0.0010  0.8441  0.5362
              Bcc     0.0021     1.126     0.402     0.376  0.9677 -0.1344  0.2134
 
              Baa    -0.0005    -0.293    -0.105    -0.098 -0.2755  0.8728 -0.4030
    14 H(1)   Bbb    -0.0005    -0.282    -0.100    -0.094 -0.0152  0.4152  0.9096
              Bcc     0.0011     0.575     0.205     0.192  0.9612  0.2567 -0.1012
 
              Baa    -0.0006    -0.301    -0.107    -0.100 -0.0311  0.7101 -0.7034
    15 H(1)   Bbb    -0.0005    -0.277    -0.099    -0.092 -0.2899  0.6671  0.6863
              Bcc     0.0011     0.578     0.206     0.193  0.9566  0.2252  0.1851
 
              Baa    -0.0106    -5.651    -2.016    -1.885  0.8073 -0.4082  0.4262
    16 H(1)   Bbb    -0.0092    -4.922    -1.756    -1.642 -0.2377  0.4361  0.8679
              Bcc     0.0198    10.573     3.773     3.527  0.5401  0.8020 -0.2551
 
              Baa    -0.0107    -5.707    -2.037    -1.904 -0.4513  0.7337 -0.5079
    17 H(1)   Bbb    -0.0040    -2.143    -0.765    -0.715  0.7156 -0.0425 -0.6972
              Bcc     0.0147     7.850     2.801     2.618  0.5331  0.6781  0.5059
 
              Baa    -0.0003    -0.134    -0.048    -0.045  0.0311 -0.6327  0.7738
    18 H(1)   Bbb    -0.0002    -0.129    -0.046    -0.043 -0.0912  0.7691  0.6326
              Bcc     0.0005     0.264     0.094     0.088  0.9953  0.0903  0.0338
 
              Baa    -0.0003    -0.183    -0.065    -0.061  0.0224 -0.7026  0.7112
    19 H(1)   Bbb    -0.0003    -0.176    -0.063    -0.059  0.1044  0.7092  0.6973
              Bcc     0.0007     0.359     0.128     0.120  0.9943 -0.0587 -0.0892
 
              Baa    -0.0003    -0.179    -0.064    -0.060 -0.1672 -0.5540  0.8155
    20 H(1)   Bbb    -0.0003    -0.173    -0.062    -0.058 -0.0128  0.8283  0.5601
              Bcc     0.0007     0.352     0.126     0.117  0.9858 -0.0832  0.1456
 
              Baa    -0.0595   -31.732   -11.323   -10.585  0.5356  0.7343 -0.4171
    21 H(1)   Bbb    -0.0140    -7.454    -2.660    -2.486  0.2792  0.3122  0.9081
              Bcc     0.0734    39.186    13.983    13.071  0.7970 -0.6028 -0.0378
 
              Baa    -0.0593   -31.630   -11.286   -10.551  0.9967  0.0247  0.0767
    22 H(1)   Bbb    -0.0140    -7.444    -2.656    -2.483 -0.0632  0.8301  0.5541
              Bcc     0.0732    39.073    13.942    13.033 -0.0500 -0.5571  0.8289
 

 ---------------------------------------------------------------------------------

 Calling FoFJK, ICntrl=      2127 FMM=F ISym2X=0 I1Cent= 0 IOpClX= 1 NMat=1 NMatS=1 NMatT=0.
 ***** Axes restored to original set *****
 -------------------------------------------------------------------
 Center     Atomic                   Forces (Hartrees/Bohr)
 Number     Number              X              Y              Z
 -------------------------------------------------------------------
      1        6           0.001077756    0.005391716    0.003107216
      2        6          -0.000653657   -0.005923407   -0.003423918
      3        6           0.001842461   -0.005027726   -0.003389375
      4        6           0.001799549    0.000482157    0.000230823
      5        6          -0.004148528    0.005432818    0.021395978
      6        6           0.009094300   -0.002337639   -0.001050212
      7        6          -0.010877968   -0.008778211   -0.052646013
      8        1          -0.000990460    0.001284997   -0.012792945
      9        1          -0.001323028   -0.009654895    0.007182969
     10        1           0.001080726    0.009808906   -0.007142941
     11        1           0.000628547   -0.001410292    0.011858860
     12        1          -0.000435642    0.001343175   -0.011978755
     13        1          -0.000879131   -0.009674363    0.007092461
     14        1          -0.000788035    0.010149352   -0.007269298
     15        1          -0.001315777   -0.001234922    0.012425075
     16        1           0.002968277    0.008521071   -0.008474736
     17        1           0.000133860   -0.000664238    0.009937492
     18        1          -0.005811419    0.010410706    0.005884544
     19        1           0.000351820    0.000506260   -0.013163008
     20        1          -0.000167988   -0.011065786    0.006996351
     21        1           0.008113530    0.008121929    0.016437456
     22        1           0.000300808   -0.005681609    0.018781976
 -------------------------------------------------------------------
 Cartesian Forces:  Max     0.052646013 RMS     0.009894562

 GradGradGradGradGradGradGradGradGradGradGradGradGradGradGradGradGradGrad
 Berny optimization.
 Internal  Forces:  Max     0.019060978 RMS     0.005939170
 Search for a local minimum.
 Step number   1 out of a maximum of  121
 All quantities printed in internal units (Hartrees-Bohrs-Radians)
 Swaping is turned off.
 Second derivative matrix not updated -- first step.
 ITU=  0
     Eigenvalues ---    0.00325   0.00326   0.00330   0.00353   0.00423
     Eigenvalues ---    0.00467   0.03722   0.03727   0.03736   0.03748
     Eigenvalues ---    0.03865   0.04319   0.04896   0.04898   0.04906
     Eigenvalues ---    0.04923   0.05429   0.05672   0.05790   0.07982
     Eigenvalues ---    0.07987   0.07989   0.08038   0.09000   0.11944
     Eigenvalues ---    0.11947   0.11948   0.11977   0.12567   0.16000
     Eigenvalues ---    0.16000   0.16000   0.16000   0.16000   0.21948
     Eigenvalues ---    0.21949   0.21949   0.21949   0.21978   0.29118
     Eigenvalues ---    0.29124   0.29154   0.29311   0.29802   0.30115
     Eigenvalues ---    0.32323   0.32328   0.32331   0.32336   0.32341
     Eigenvalues ---    0.32342   0.32390   0.32395   0.32406   0.32446
     Eigenvalues ---    0.32500   0.32505   0.32512   0.32557   0.32564
 Quadratic step=7.062D-01 exceeds max=3.000D-01 adjusted using Lamda=-6.646D-02.
 Angle between NR and scaled steps=  19.89 degrees.
 Angle between quadratic step and forces=  31.45 degrees.
 Linear search not attempted -- option 19 set.
 Iteration  1 RMS(Cart)=  0.03395287 RMS(Int)=  0.00265007
 Iteration  2 RMS(Cart)=  0.00220317 RMS(Int)=  0.00177568
 Iteration  3 RMS(Cart)=  0.00001712 RMS(Int)=  0.00177564
 Iteration  4 RMS(Cart)=  0.00000021 RMS(Int)=  0.00177564
 Variable       Old X    -DE/DX   Delta X   Delta X   Delta X     New X
                                 (Linear)    (Quad)   (Total)
    R1        2.89745  -0.00249   0.00000  -0.00695  -0.00695   2.89050
    R2        2.89758  -0.00226   0.00000  -0.00633  -0.00633   2.89124
    R3        2.10243  -0.01195   0.00000  -0.03066  -0.03066   2.07178
    R4        2.10223  -0.01168   0.00000  -0.02995  -0.02995   2.07227
    R5        2.89682  -0.00331   0.00000  -0.00923  -0.00923   2.88758
    R6        2.10224  -0.01179   0.00000  -0.03024  -0.03024   2.07200
    R7        2.10234  -0.01178   0.00000  -0.03022  -0.03022   2.07211
    R8        2.89358  -0.00052   0.00000  -0.00145  -0.00145   2.89213
    R9        2.10256  -0.01265   0.00000  -0.03246  -0.03246   2.07011
   R10        2.10247  -0.01185   0.00000  -0.03041  -0.03041   2.07206
   R11        2.88359   0.00197   0.00000   0.00541   0.00541   2.88900
   R12        2.10127  -0.01211   0.00000  -0.03101  -0.03101   2.07026
   R13        2.10137  -0.01211   0.00000  -0.03103  -0.03103   2.07034
   R14        2.87735  -0.00813   0.00000  -0.02210  -0.02210   2.85525
   R15        2.10035  -0.01156   0.00000  -0.02957  -0.02957   2.07078
   R16        2.10108  -0.00981   0.00000  -0.02511  -0.02511   2.07597
   R17        2.09823  -0.01262   0.00000  -0.03219  -0.03219   2.06604
   R18        2.09939  -0.01297   0.00000  -0.03312  -0.03312   2.06627
   R19        2.09916  -0.01289   0.00000  -0.03292  -0.03292   2.06624
   R20        2.09836  -0.01342   0.00000  -0.03424  -0.03424   2.06412
   R21        2.09930  -0.01341   0.00000  -0.03426  -0.03426   2.06504
    A1        1.93831   0.00760   0.00000   0.02975   0.02969   1.96800
    A2        1.90760  -0.00187   0.00000  -0.00486  -0.00493   1.90268
    A3        1.90786  -0.00195   0.00000  -0.00515  -0.00523   1.90263
    A4        1.90771  -0.00193   0.00000  -0.00513  -0.00519   1.90253
    A5        1.90766  -0.00181   0.00000  -0.00431  -0.00437   1.90329
    A6        1.89415  -0.00019   0.00000  -0.01120  -0.01128   1.88287
    A7        1.93774   0.00789   0.00000   0.03082   0.03076   1.96850
    A8        1.90794  -0.00191   0.00000  -0.00464  -0.00469   1.90325
    A9        1.90785  -0.00186   0.00000  -0.00433  -0.00439   1.90347
   A10        1.90776  -0.00205   0.00000  -0.00571  -0.00579   1.90197
   A11        1.90769  -0.00209   0.00000  -0.00585  -0.00593   1.90176
   A12        1.89433  -0.00015   0.00000  -0.01120  -0.01128   1.88305
   A13        1.93781   0.00777   0.00000   0.03038   0.03032   1.96813
   A14        1.90895  -0.00165   0.00000  -0.00317  -0.00321   1.90574
   A15        1.90771  -0.00185   0.00000  -0.00437  -0.00441   1.90330
   A16        1.90661  -0.00220   0.00000  -0.00657  -0.00667   1.89994
   A17        1.90783  -0.00207   0.00000  -0.00603  -0.00611   1.90172
[...]
 386,0.00003164,0.00005093,0.00037205,0.00016799,-0.00009139,-0.0000162
 3,0.00012932,0.00066931,0.00017141,-0.00026619,-0.00217623,-0.00021490
 ,-0.00088707,0.00169869,0.05589653,-0.00133142,-0.00132290,-0.00783670
 ,-0.01626312,-0.03112987,-0.29883504,0.00068282,0.00007735,0.00025286,
 0.00007404,-0.00196219,-0.01072168,-0.00009441,0.00011518,0.00049971,-
 0.00061989,0.00041547,0.00054001,-0.00008601,-0.00003754,0.00003887,-0
 .00062321,0.00037458,0.00043856,-0.00006075,-0.00007037,-0.00005580,-0
 .00019602,-0.00028404,0.00056071,-0.00111234,-0.00089174,0.00123904,0.
 01805545,0.03779770,0.32570242,-0.00650056,-0.02825672,0.01427352,-0.0
 4978876,-0.02764750,0.01335682,0.00164514,-0.00148231,0.00039138,0.000
 81290,0.02322757,-0.01145315,-0.00013219,0.00010529,-0.00013875,0.0016
 9099,0.00093477,-0.00051974,0.00003430,0.00010546,-0.00004632,0.000015
 24,0.00009249,0.00002831,-0.00038483,0.00076420,-0.00026093,-0.0054185
 1,-0.00189926,-0.00161582,0.00134965,0.00067728,-0.00018817,-0.0004331
 5,0.00206387,-0.00083332,0.05974820,-0.00257708,-0.01174719,0.00498515
 ,-0.02765651,-0.24697678,0.09845276,0.00079391,0.00046878,-0.00011443,
 -0.00117367,-0.02064417,0.00907124,-0.00003685,0.00043065,-0.00021013,
 -0.00109836,0.00080076,0.00006110,-0.00005187,0.00000069,-0.00002916,-
 0.00009851,-0.00001586,-0.00007505,-0.00044449,0.00061428,0.00016556,-
 0.00189079,0.00010621,-0.00107055,0.00020513,0.00017329,-0.00028611,0.
 00071653,0.00417560,-0.00149196,0.02974925,0.27260444,-0.00151911,-0.0
 0774182,0.00344723,0.01347996,0.09879856,-0.09830573,0.00021611,0.0000
 9817,-0.00005989,-0.00064463,-0.01019236,0.00452146,0.00008574,-0.0002
 8104,0.00003133,-0.00042831,0.00006115,0.00002671,0.00005937,0.0000712
 8,-0.00000115,-0.00002620,0.00013516,-0.00005192,0.00035107,0.00001434
 ,0.00013916,-0.00164021,-0.00109879,0.00088542,0.00070819,-0.00026815,
 0.00058441,0.00399837,0.02914682,-0.01426082,-0.01504446,-0.10704158,0
 .10191203,0.00169665,0.00111064,-0.00055894,0.00091698,0.02327627,-0.0
 1150576,-0.00011381,0.00009207,0.00007860,-0.04994327,-0.02809974,0.01
 364818,0.00000621,-0.00010540,0.00003491,-0.00595838,-0.02897875,0.014
 05352,0.00001877,0.00000017,0.00000455,0.00002607,0.00000288,-0.000007
 44,0.00000761,-0.00024300,0.00006041,-0.00038573,-0.00044828,0.0003431
 1,0.00001608,-0.00009124,-0.00005754,0.00091020,-0.00095508,0.00003414
 ,-0.00356128,0.00302911,0.00163985,0.05997903,-0.00122389,0.00040463,0
 .00015475,-0.00096287,-0.02081887,0.00913418,0.00018111,0.00039096,-0.
 00026310,-0.02832873,-0.25039306,0.09918152,0.00004955,0.00001836,-0.0
 0003845,-0.00216463,-0.00982038,0.00449721,0.00000478,0.00001323,-0.00
 000135,-0.00000857,-0.00004953,-0.00000251,-0.00025270,0.00020312,0.00
 000991,0.00077850,0.00064515,0.00001149,0.00008225,-0.00001809,-0.0000
 7031,-0.00050852,0.00057264,-0.00028854,0.00314675,-0.00147531,-0.0018
 7973,0.03021776,0.27484041,-0.00036181,0.00006042,0.00001119,-0.000806
 11,-0.01018551,0.00456545,-0.00015116,-0.00024696,0.00004237,0.0138555
 8,0.09976794,-0.09909295,-0.00003087,0.00008638,-0.00001855,-0.0013805
 6,-0.00822202,0.00367211,-0.00002214,-0.00001482,-0.00000416,0.0000105
 7,-0.00002194,-0.00003309,0.00006370,0.00000529,-0.00006010,-0.0002707
 4,0.00016317,0.00013519,0.00005520,0.00013068,-0.00005456,-0.00078067,
 0.00003994,0.00063606,0.00163885,-0.00187598,0.00059778,-0.01535709,-0
 .10783534,0.10252792,0.00169895,0.00000423,0.00123726,-0.00057874,0.00
 344737,0.02572261,-0.00010851,0.00012542,0.00001511,-0.04816776,-0.002
 45555,-0.01592422,0.00000810,-0.00003155,-0.00009602,-0.00392342,-0.00
 430526,-0.03222607,0.00002177,0.00000528,-0.00001505,0.00003049,-0.000
 09027,-0.00024112,0.00002773,-0.00000873,0.00001038,0.00002093,-0.0001
 0517,-0.00002184,-0.00040625,0.00004728,-0.00062171,-0.00356606,0.0032
 2265,0.00127609,0.00091331,-0.00051053,-0.00079558,-0.00036865,0.00083
 544,0.00397961,0.05763428,-0.00106767,0.00029871,0.00008148,0.00015057
 ,-0.00380502,-0.02241905,-0.00004461,-0.00009597,0.00006035,-0.0024366
 4,-0.05407864,-0.03125129,-0.00000388,0.00001450,0.00008551,-0.0014845
 1,-0.00194131,-0.01224489,-0.00001600,-0.00000130,0.00000691,-0.000092
 75,0.00003303,0.00012809,0.00000344,-0.00004831,-0.00002250,0.00009917
 ,-0.00001975,0.00013179,0.00022675,0.00037512,0.00038387,0.00328378,-0
 .00201741,-0.00153127,-0.00095676,0.00056280,0.00005304,0.00205324,0.0
 0430964,0.02926150,0.00152797,0.05613295,-0.00072157,0.00030915,0.0002
 1970,0.00033547,-0.00199574,-0.01078304,0.00019734,0.00005044,0.000526
 93,-0.01626579,-0.03176120,-0.30228036,0.00005994,-0.00004687,-0.00002
 170,-0.00105870,-0.00078383,-0.00609385,0.00001916,0.00001661,0.000027
 47,-0.00024636,0.00012842,0.00008761,-0.00000906,-0.00000283,-0.000032
 46,0.00003183,-0.00007484,-0.00005852,0.00079259,0.00016108,0.00044192
 ,0.00137678,-0.00153073,0.00109019,0.00002755,-0.00028005,0.00065335,-
 0.00069681,-0.00138861,-0.01423441,0.01785108,0.03783643,0.32827898,0.
 00161130,-0.00155350,0.00035150,-0.00019217,0.00008913,-0.00007939,-0.
 00569100,-0.02755681,0.01413254,0.00002252,0.00008714,-0.00005492,-0.0
 5173012,-0.02602829,0.01016137,0.00001184,0.00000315,-0.00000331,0.003
 60642,0.02341617,-0.00696292,0.00136358,0.00069785,-0.00018670,-0.0055
 1924,-0.00187425,-0.00163397,-0.00037433,0.00076167,-0.00027510,0.0000
 1453,0.00009702,0.00005911,0.00002858,-0.00002356,0.00000042,0.0001544
 9,0.00025175,-0.00007083,-0.00005333,0.00004931,0.00000594,-0.00000426
 ,-0.00000127,0.00000379,0.05803791,0.00083833,0.00055753,-0.00007195,-
 0.00001897,0.00040280,-0.00022117,-0.00229351,-0.01122702,0.00467454,-
 0.00003843,-0.00000772,-0.00002309,-0.02870161,-0.24873774,0.09807719,
 -0.00000960,0.00001541,0.00001028,-0.00020096,-0.02066663,0.00389108,0
 .00025825,0.00009516,-0.00040386,-0.00186722,0.00019774,-0.00112603,-0
 .00042219,0.00058479,0.00017749,-0.00010935,-0.00002249,-0.00008639,-0
 .00001903,-0.00004236,-0.00000526,0.00024820,0.00003384,0.00000473,-0.
 00002305,0.00001700,-0.00000041,0.00000031,-0.00000018,0.00000281,0.02
 923214,0.27556460,0.00025494,0.00006972,-0.00005153,0.00009099,-0.0002
 5775,0.00002194,-0.00072151,-0.00799519,0.00341096,0.00004894,0.000058
 94,-0.00001893,0.01159925,0.09777859,-0.08874612,0.00001494,-0.0000152
 0,0.00000156,-0.00066925,-0.01273480,0.00346146,0.00064054,-0.00037267
 ,0.00040949,-0.00165454,-0.00112441,0.00076559,0.00033356,0.00003220,0
 .00015841,-0.00000862,0.00013093,-0.00009663,-0.00003109,-0.00002116,-
 0.00003608,-0.00006893,0.00000294,-0.00004824,-0.00000092,-0.00000135,
 0.00001997,0.00000449,0.00000543,-0.00000825,-0.01483313,-0.10393935,0
 .09694598,0.00187668,-0.00033533,-0.00138999,-0.00009306,-0.00017891,-
 0.00005495,-0.00533979,-0.00481875,-0.03190223,0.00005258,0.00006142,0
 .00013822,-0.04235846,-0.00188557,-0.00622663,0.00002644,-0.00002622,-
 0.00000733,-0.00281041,0.00697941,0.02174818,-0.00563821,-0.00222319,-
 0.00111498,0.00141687,0.00026212,0.00069994,0.00002945,0.00010278,0.00
 008227,-0.00037912,0.00020577,0.00075369,0.00010374,0.00007047,0.00026
 701,0.00002333,-0.00000754,-0.00001867,-0.00000350,-0.00000064,-0.0000
 0070,-0.00005373,0.00003537,0.00002931,0.00063858,0.00001947,0.0039994
 3,0.05337909,0.00065601,0.00014934,0.00043499,0.00005385,-0.00011606,0
 .00007594,-0.00273139,-0.00193128,-0.01332296,0.00001231,0.00000759,0.
 00005781,-0.00389237,-0.04705266,-0.03495535,0.00000863,-0.00000112,-0
 .00000932,0.00409625,-0.00645305,-0.01929870,-0.00215329,-0.00028185,-
 0.00079194,0.00069755,0.00008623,-0.00030818,-0.00008418,-0.00007477,0
 .00012909,0.00002801,0.00038993,0.00018094,0.00007724,-0.00001839,0.00
 004204,-0.00004316,-0.00004827,-0.00001755,0.00000444,-0.00000363,0.00
 000622,-0.00001157,0.00001679,-0.00000319,0.00103193,0.00321493,0.0296
 1573,0.00139688,0.05278594,0.00089824,0.00023328,0.00027798,-0.0001469
 5,0.00006017,0.00050959,-0.00154517,-0.00139836,-0.00910693,-0.0000471
 6,-0.00001746,-0.00001264,-0.01839741,-0.02682570,-0.28024914,-0.00001
 315,0.00001363,0.00001114,0.00736399,-0.00746683,-0.00731696,-0.001281
 62,-0.00105041,0.00101618,-0.00000685,-0.00029548,0.00064412,-0.000084
 12,-0.00006984,-0.00006187,-0.00063126,0.00035107,0.00040697,0.0002737
 2,0.00004298,0.00005489,0.00000328,-0.00000113,-0.00003275,-0.00000266
 ,0.00000402,-0.00000668,-0.00002700,0.00000368,0.00002361,-0.00108641,
 -0.00057654,-0.01606239,0.01386780,0.03761897,0.31081375,-0.00072874,0
 .00177011,0.00089642,-0.00452830,-0.00457476,-0.00264276,-0.00051912,-
 0.00053057,-0.00031276,-0.01987295,0.01988783,0.00978801,-0.00012136,0
 .00026808,0.00012798,-0.18577481,0.12134419,0.05821907,-0.00008052,-0.
 00008824,-0.00003623,0.00001939,-0.00000893,0.00002493,0.00001610,0.00
 001851,-0.00002104,-0.00001004,-0.00007417,0.00007220,-0.00000520,0.00
 001688,-0.00010421,0.00023685,-0.00019504,0.00005753,0.00020378,-0.000
 01990,-0.00017691,0.00093283,-0.00026454,0.00059146,0.00106342,0.00030
 670,-0.00048699,-0.00000171,-0.00001201,0.00000463,0.00001174,0.000000
 31,-0.00001017,0.20335070,-0.00059772,0.00070551,0.00002994,-0.0018991
 4,-0.00082130,-0.00067104,-0.00021213,-0.00012498,-0.00007216,-0.01059
 968,0.00914860,0.00514841,-0.00004701,0.00005048,0.00001892,0.12234409
 ,-0.15436087,-0.05073785,-0.00001844,-0.00001373,0.00000146,0.00000513
 ,-0.00000855,0.00000661,0.00000183,-0.00000147,-0.00001453,0.00010400,
 0.00002149,0.00004445,0.00002674,0.00001040,0.00000005,-0.00003651,-0.
 00014694,0.00003137,-0.00025925,0.00036536,-0.00017946,0.00067687,0.00
 058236,0.00036656,0.00080191,0.00030193,0.00017502,-0.00000008,-0.0000
 0118,0.00000226,0.00000315,0.00000154,0.00000084,-0.13201993,0.1641478
 1,-0.00037115,0.00012553,0.00066522,-0.00120552,-0.00077713,-0.0002009
 3,-0.00013695,-0.00008671,-0.00005869,-0.00642573,0.00648902,0.0017754
 2,-0.00003124,0.00003778,0.00001752,0.05876410,-0.05079530,-0.07289893
 ,-0.00001256,-0.00000831,-0.00000490,-0.00000071,-0.00001053,0.0000055
 1,0.00000555,0.00000251,-0.00000349,-0.00004006,-0.00001177,-0.0000137
 5,0.00011137,0.00004899,-0.00000423,-0.00029160,0.00015979,0.00044938,
 0.00013592,-0.00030452,-0.00005415,0.00051246,-0.00005404,0.00002475,0
 .00035764,0.00054027,0.00023145,0.00000147,0.00000153,0.00000022,0.000
 00127,0.00000003,-0.00000354,-0.06308154,0.05627060,0.07433732,-0.0001
 3325,-0.00013366,0.00007203,0.00201985,-0.00039327,-0.00138110,0.00004
 664,0.00003296,0.00012941,-0.00388958,-0.00352288,-0.03195658,0.000021
 01,-0.00002090,-0.00000559,-0.04867234,-0.00176102,-0.01900790,0.00000
 699,0.00000652,0.00000816,-0.00005597,0.00003411,0.00003243,-0.0000046
 9,0.00000178,-0.00000195,0.00002331,-0.00001076,-0.00002699,0.00013837
 ,0.00007435,0.00026252,-0.00034822,0.00022458,0.00079031,-0.00000186,0
 .00008976,0.00007808,0.00140852,0.00028179,0.00064999,-0.00564426,-0.0
 0224500,-0.00115438,-0.00000038,0.00000047,-0.00000353,0.00000912,-0.0
 0000109,0.00000681,0.00217549,0.00132948,0.02370513,0.05368515,0.00009
 444,-0.00005193,0.00004139,0.00060847,0.00008772,0.00058090,0.00000959
 ,-0.00000892,0.00005007,-0.00147009,-0.00230627,-0.01351595,0.00000681
 ,0.00001000,-0.00000490,-0.00197822,-0.05178104,-0.03157115,-0.0000024
 0,-0.00000435,-0.00000243,-0.00001041,0.00001730,-0.00000550,0.0000040
 9,-0.00000128,0.00000540,-0.00003208,-0.00004754,-0.00001318,0.0000732
 8,-0.00002756,0.00003347,0.00001003,0.00038743,0.00018078,-0.00007329,
 -0.00001791,0.00012773,0.00068378,0.00004733,-0.00021850,-0.00266031,-
 0.00017726,-0.00044183,-0.00000319,-0.00000470,-0.00000153,-0.00000080
 ,-0.00000389,-0.00000027,-0.00261933,-0.00265232,-0.02067577,0.0049393
 5,0.05175728,-0.00006949,0.00010342,0.00048868,0.00069331,0.00019734,0
 .00051488,-0.00005494,-0.00003773,-0.00002397,-0.00107485,-0.00138538,
 -0.00738369,-0.00001228,0.00002991,0.00001143,-0.01964204,-0.03154168,
 -0.30770651,-0.00000689,-0.00001376,0.00000332,-0.00002313,0.00000217,
 0.00001787,-0.00000212,0.00000423,-0.00000655,0.00000118,-0.00000609,-
 0.00002751,0.00024957,0.00002858,0.00002970,-0.00067646,0.00039066,0.0
 0032322,-0.00006748,-0.00005763,-0.00008460,-0.00023146,-0.00028859,0.
 00056815,-0.00123669,-0.00081131,0.00145805,-0.00000031,-0.00000189,-0
 .00000275,0.00000546,0.00000040,0.00000478,-0.00052222,-0.00054804,-0.
 00858731,0.02345341,0.03602920,0.33381301,-0.00015873,0.00004872,-0.00
 015919,0.00186817,-0.00144882,0.00054714,0.00004712,0.00011487,-0.0000
 4628,-0.00581679,-0.02826905,0.01466254,0.00001961,-0.00000966,-0.0000
 0971,-0.05167242,-0.03127588,0.01716670,0.00000388,0.00000337,0.000001
 75,-0.00000506,-0.00000124,0.00000341,-0.00005589,0.00004844,0.0000062
 5,0.00016659,0.00025833,-0.00006956,0.00002043,-0.00002865,0.00000634,
 -0.00000189,0.00010908,0.00002277,-0.00032269,0.00077325,-0.00026957,-
 0.00554205,-0.00191594,-0.00168561,0.00139529,0.00066170,-0.00008925,0
 .00001053,0.00000418,-0.00000361,-0.00000149,-0.00000287,0.00000214,0.
 00368098,0.02040020,-0.01199443,-0.00078592,0.00242492,-0.00077235,0.0
 5714955,0.00001075,0.00039081,-0.00017141,0.00083135,0.00074516,-0.000
 20995,-0.00003929,-0.00001608,-0.00003868,-0.00229973,-0.01165161,0.00
 490689,-0.00000741,0.00002620,0.00002065,-0.03196872,-0.25405170,0.103
 53064,-0.00001035,-0.00001472,-0.00001166,0.00000122,-0.00000110,0.000
 00286,-0.00002330,0.00001605,0.00000106,0.00024280,0.00002295,0.000001
 15,-0.00001819,-0.00004006,-0.00001290,-0.00009524,-0.00003275,-0.0000
 5262,-0.00052231,0.00056974,0.00021491,-0.00219765,0.00053737,-0.00126
 785,0.00016641,0.00014058,-0.00036703,0.00000218,0.00000019,-0.0000036
 9,-0.00000004,-0.00000372,-0.00000161,-0.00324222,-0.01720954,0.009043
 97,0.00107472,0.00477680,-0.00210135,0.03810476,0.27578712,0.00008892,
 -0.00025053,0.00004712,0.00025093,0.00003859,-0.00011460,0.00004328,0.
 00005987,-0.00002195,-0.00143028,-0.00850774,0.00398956,0.00001279,-0.
 00001533,0.00000179,0.01738648,0.10360452,-0.09987859,0.00000302,0.000
 00524,-0.00000081,0.00000420,0.00000484,-0.00000618,-0.00000095,-0.000
 00148,0.00001940,-0.00006416,0.00000860,-0.00004809,-0.00002310,-0.000
 01651,-0.00003341,-0.00001228,0.00014102,-0.00006198,0.00036240,0.0000
 7477,0.00010245,-0.00198829,-0.00088292,0.00070102,0.00074434,-0.00028
 935,0.00049062,-0.00000302,-0.00000362,-0.00000211,-0.00000234,-0.0000
 0144,-0.00000290,-0.00240948,-0.00987317,0.00432175,0.00435535,0.02939
 983,-0.01340695,-0.01731935,-0.11349146,0.10390297,-0.00081380,-0.0010
 2822,-0.00060926,-0.00016891,0.00048070,0.00022239,-0.00147129,0.00364
 998,0.00229793,-0.00012258,-0.00016771,-0.00009540,-0.01159482,-0.0094
 9805,-0.00108707,-0.00004170,0.00007955,0.00004227,-0.31025853,-0.0952
 1743,0.04010982,0.00009718,-0.00000320,-0.00008086,0.00019629,-0.00006
 538,0.00004306,-0.00000654,0.00007457,-0.00003435,0.00004759,-0.000022
 17,0.00003915,-0.00000290,-0.00000447,-0.00002912,0.00000557,-0.000018
 50,0.00001205,0.00000303,0.00000998,-0.00000483,0.00000447,-0.00000005
 ,0.00000855,0.00069482,0.00005520,-0.00035589,-0.00046852,0.00011913,0
 .00042003,-0.00005187,-0.00000246,-0.00000314,0.00000379,-0.00000581,-
 0.00000906,0.00000316,-0.00000975,-0.00000004,0.32370315,0.00114549,0.
 00085046,0.00026981,0.00021347,-0.00037429,-0.00014077,0.00153735,-0.0
 0262219,-0.00175072,0.00009950,0.00010495,0.00005646,0.01762617,0.0097
 0182,-0.00073576,0.00003228,-0.00005076,-0.00002272,-0.09507181,-0.090
 00523,0.00508013,0.00001698,-0.00009210,0.00016789,0.00030460,0.000311
 30,-0.00024134,-0.00009757,0.00002946,0.00005971,-0.00006648,0.0000469
 8,0.00002651,0.00000194,-0.00000299,0.00002100,-0.00000237,0.00000977,
 -0.00002146,-0.00000226,-0.00000479,0.00000436,-0.00000322,0.00000048,
 -0.00000433,-0.00075039,0.00110156,0.00064096,0.00010273,0.00001399,-0
 .00058730,0.00002843,0.00000483,0.00000294,-0.00000170,0.00000118,0.00
 000430,-0.00000088,0.00000443,-0.00000209,0.10000496,0.08518447,0.0003
 3256,0.00049774,0.00050020,0.00011056,-0.00024629,-0.00012468,-0.00053
 877,-0.00207952,-0.00035420,0.00004705,0.00008236,0.00004320,0.0087099
 6,0.00631501,0.00184596,0.00001828,-0.00003637,-0.00001937,0.03548723,
 0.00259593,-0.01434940,0.00006800,0.00001942,0.00011757,-0.00000728,-0
 .00004784,-0.00011807,-0.00000395,-0.00002122,0.00001423,0.00001183,0.
 00001052,-0.00003965,-0.00002170,-0.00000404,-0.00000079,-0.00000157,0
 .00001527,-0.00000687,-0.00000092,-0.00000101,0.00000311,0.00000254,-0
 .00000270,-0.00001127,-0.00052736,-0.00082020,0.00037228,-0.00102566,-
 0.00012251,-0.00011753,0.00002090,0.00000190,0.00000260,-0.00000332,0.
 00000118,0.00000066,-0.00000092,0.00000541,-0.00000020,-0.04108388,-0.
 00562311,0.00973758,-0.00014498,-0.00004516,-0.00000116,0.00000751,-0.
 00008930,-0.00001577,0.00225172,0.00138155,-0.00039707,0.00001679,-0.0
 0000359,0.00000959,0.00552575,0.02001127,0.00023869,0.00000385,-0.0000
 0322,-0.00000212,-0.06092572,-0.04835582,0.00650569,-0.00004734,-0.000
 07394,-0.00032123,-0.00006824,-0.00038934,0.00047046,0.00003500,-0.000
 20900,0.00006707,0.00006699,-0.00000645,-0.00008584,-0.00002480,-0.000
 00097,-0.00001095,-0.00005308,-0.00002406,0.00000568,0.00000802,-0.000
 00618,0.00000139,0.00000290,0.00000046,-0.00000448,-0.00262856,0.00305
 938,0.00135931,-0.00042131,0.00073739,0.00044392,0.00000336,-0.0000010
 6,-0.00000029,-0.00000177,0.00000115,-0.00000115,-0.00000239,0.0000000
 1,0.00000155,0.00024242,-0.02511722,-0.00159359,0.05615389,0.00018333,
 0.00040174,0.00003640,0.00005406,-0.00004718,-0.00005009,-0.00170104,0
 .00086333,-0.00007818,0.00000934,0.00002165,0.00001759,-0.00429645,-0.
 01184238,0.00170516,0.00000595,-0.00001347,-0.00000698,-0.04837284,-0.
 33669997,-0.02424384,0.00044381,-0.00007620,0.00023109,0.00091562,0.00
 028281,-0.00003794,-0.00021090,0.00012469,0.00001533,-0.00008784,0.000
 02774,0.00004626,0.00001135,-0.00000239,0.00001283,0.00002778,0.000009
 30,-0.00000396,-0.00000281,0.00000147,-0.00000314,-0.00000210,-0.00000
 138,0.00000112,0.00207191,-0.00107551,-0.00187058,0.00023740,-0.000677
 59,-0.00003771,0.00000862,0.00000056,0.00000112,0.00000042,-0.00000005
 ,0.00000326,0.00000119,0.00000388,-0.00000165,0.00156911,-0.00421334,-
 0.00053992,0.04913411,0.35291230,0.00001718,-0.00009688,-0.00018996,-0
 .00002702,0.00005133,0.00003413,-0.00021331,0.00049120,0.00047222,-0.0
 0001386,-0.00000984,-0.00001048,-0.00296076,-0.01009336,0.00330451,-0.
 00000078,0.00000077,0.00000493,0.00835664,-0.01952217,-0.01244060,-0.0
 0006721,0.00014153,-0.00014517,0.00025265,0.00027651,-0.00002328,-0.00
 004579,0.00008045,-0.00001336,0.00000712,-0.00004132,-0.00003007,-0.00
 000749,0.00000543,-0.00001704,0.00002061,0.00000948,0.00000480,-0.0000
 0189,0.00000279,-0.00000058,0.00000414,-0.00000600,-0.00000603,0.00100
 122,0.00044013,-0.00049484,0.00015092,0.00066896,-0.00078968,0.0000011
 7,-0.00000213,-0.00000122,-0.00000228,0.00000107,-0.00000390,0.0000007
 8,0.00000268,0.00000107,0.00019766,0.00279551,0.00250465,-0.00666970,0
 .02480384,0.00783991\\0.00000027,0.00000472,-0.00000881,-0.00000023,-0
 .00000341,0.00000603,-0.00000021,-0.00000347,0.00000634,0.00000027,0.0
 0000455,-0.00000916,0.00000029,0.00000461,-0.00000856,-0.00000029,-0.0
 0000379,0.00000596,-0.00000019,-0.00000315,0.00000627,-0.00000337,-0.0
 0002526,0.00000966,0.00000212,0.00000564,0.00002652,-0.00000204,-0.000
 00439,-0.00002901,0.00000344,0.00002650,-0.00001212,-0.00000337,-0.000
 02519,0.00000946,0.00000212,0.00000576,0.00002620,-0.00000210,-0.00000
 462,-0.00002928,0.00000339,0.00002630,-0.00001254,-0.00000201,-0.00000
 422,-0.00002887,0.00000345,0.00002651,-0.00001205,0.00000005,0.0000019
 5,-0.00000518,-0.00000344,-0.00002553,0.00000909,0.00000208,0.00000562
 ,0.00002590,-0.00000088,-0.00000454,-0.00000403,0.00000064,-0.00000459
 ,0.00002819\\\@


 We find comfort among those who agree with us -- growth among those who don't.
 -- Frank A. Clark
 Job cpu time:  0 days  9 hours 20 minutes  3.1 seconds.
 File lengths (MBytes):  RWF=   2704 Int=      0 D2E=      0 Chk=     32 Scr=     32
 Normal termination of Gaussian 09 at Wed Mar 15 17:33:52 2017.
