 Entering Gaussian System, Link 0=/shared/apps/gaussian/G09_LINUX_LINDA/g09/g09
 Input=/gss_gpfs_scratch/harms.n/QMscratch/ARGCQEVBJHPOGB-UHFFFAOYSA.gjf
 Output=/gss_gpfs_scratch/harms.n/QMscratch/ARGCQEVBJHPOGB-UHFFFAOYSA.log
 Initial command:
 /shared/apps/gaussian/G09_LINUX_LINDA/g09/l1.exe /gss_gpfs_scratch/harms.n/comparerTST/Gau-40070.inp -scrdir=/gss_gpfs_scratch/harms.n/comparerTST/
 Entering Link 1 = /shared/apps/gaussian/G09_LINUX_LINDA/g09/l1.exe PID=     40071.
  
 Copyright (c) 1988,1990,1992,1993,1995,1998,2003,2009,2010,
            Gaussian, Inc.  All Rights Reserved.
  
 This is part of the Gaussian(R) 09 program.  It is based on
 the Gaussian(R) 03 system (copyright 2003, Gaussian, Inc.),
 the Gaussian(R) 98 system (copyright 1998, Gaussian, Inc.),
 the Gaussian(R) 94 system (copyright 1995, Gaussian, Inc.),
 the Gaussian 92(TM) system (copyright 1992, Gaussian, Inc.),
 the Gaussian 90(TM) system (copyright 1990, Gaussian, Inc.),
 the Gaussian 88(TM) system (copyright 1988, Gaussian, Inc.),
 the Gaussian 86(TM) system (copyright 1986, Carnegie Mellon
 University), and the Gaussian 82(TM) system (copyright 1983,
 Carnegie Mellon University). Gaussian is a federally registered
 trademark of Gaussian, Inc.
  
 This software contains proprietary and confidential information,
 including trade secrets, belonging to Gaussian, Inc.
  
 This software is provided under written license and may be
 used, copied, transmitted, or stored only in accord with that
 written license.
  
 The following legend is applicable only to US Government
 contracts under FAR:
  
                    RESTRICTED RIGHTS LEGEND
  
 Use, reproduction and disclosure by the US Government is
 subject to restrictions as set forth in subparagraphs (a)
 and (c) of the Commercial Computer Software - Restricted
 Rights clause in FAR 52.227-19.
  
 Gaussian, Inc.
 340 Quinnipiac St., Bldg. 40, Wallingford CT 06492
  
  
 ---------------------------------------------------------------
 Warning -- This program may not be used in any manner that
 competes with the business of Gaussian, Inc. or will provide
 assistance to any competitor of Gaussian, Inc.  The licensee
 of this program is prohibited from giving any competitor of
 Gaussian, Inc. access to this program.  By using this program,
 the user acknowledges that Gaussian, Inc. is engaged in the
 business of creating and licensing software in the field of
 computational chemistry and represents and warrants to the
 licensee that it is not a competitor of Gaussian, Inc. and that
 it will not use this program in any manner prohibited above.
 ---------------------------------------------------------------
  

 Cite this work as:
 Gaussian 09, Revision B.01,
 M. J. Frisch, G. W. Trucks, H. B. Schlegel, G. E. Scuseria, 
 M. A. Robb, J. R. Cheeseman, G. Scalmani, V. Barone, B. Mennucci, 
 G. A. Petersson, H. Nakatsuji, M. Caricato, X. Li, H. P. Hratchian, 
 A. F. Izmaylov, J. Bloino, G. Zheng, J. L. Sonnenberg, M. Hada, 
 M. Ehara, K. Toyota, R. Fukuda, J. Hasegawa, M. Ishida, T. Nakajima, 
 Y. Honda, O. Kitao, H. Nakai, T. Vreven, J. A. Montgomery, Jr., 
 J. E. Peralta, F. Ogliaro, M. Bearpark, J. J. Heyd, E. Brothers, 
 K. N. Kudin, V. N. Staroverov, T. Keith, R. Kobayashi, J. Normand, 
 K. Raghavachari, A. Rendell, J. C. Burant, S. S. Iyengar, J. Tomasi, 
 M. Cossi, N. Rega, J. M. Millam, M. Klene, J. E. Knox, J. B. Cross, 
 V. Bakken, C. Adamo, J. Jaramillo, R. Gomperts, R. E. Stratmann, 
 O. Yazyev, A. J. Austin, R. Cammi, C. Pomelli, J. W. Ochterski, 
 R. L. Martin, K. Morokuma, V. G. Zakrzewski, G. A. Voth, 
 P. Salvador, J. J. Dannenberg, S. Dapprich, A. D. Daniels, 
 O. Farkas, J. B. Foresman, J. V. Ortiz, J. Cioslowski, 
 and D. J. Fox, Gaussian, Inc., Wallingford CT, 2010.
 
 ******************************************
 Gaussian 09:  EM64L-G09RevB.01 12-Aug-2010
                 4-Aug-2017 
 ******************************************
 %nprocshared=20
 Will use up to   20 processors via shared memory.
 %mem=5GB
 --------------------------------------------------------------
 # m062x/6-311+g(2df,2p) opt=(verytight,gdiis) freq IOP(2/16=3)
 --------------------------------------------------------------

 Warning!  Use of Opt=GDIIS is deprecated since it is seldom a good choice.

 1/7=1,14=-1,18=20,19=11,26=3,38=1/1,3;
 2/9=110,12=2,16=3,17=6,18=5,40=1/2;
 3/5=4,6=6,7=214,11=2,16=1,25=1,30=1,71=1,74=-55/1,2,3;
 4//1;
 5/5=2,38=5/2;
 6/7=2,8=2,9=2,10=2,28=1/1;
 7//1,2,3,16;
 1/7=1,14=-1,18=20,19=11/3(2);
 2/9=110,16=3/2;
 99//99;
 2/9=110,16=3/2;
 3/5=4,6=6,7=214,11=2,16=1,25=1,30=1,71=1,74=-55/1,2,3;
 4/5=5,16=3/1;
 5/5=2,38=5/2;
 7//1,2,3,16;
 1/7=1,14=-1,18=20,19=11/3(-5);
 2/9=110,16=3/2;
 6/7=2,8=2,9=2,10=2,19=2,28=1/1;
 99/9=1/99;
 ---------------------------------------
 InChI=1S/C4H6O/c1-2-4-5-3-1/h1-2H,3-4H2
 ---------------------------------------
 Symbolic Z-matrix:
 Charge =  0 Multiplicity = 1
 C                     1.1012   -0.5793    0.1268 
 C                    -1.1603   -0.464    -0.0503 
 C                    -0.6003    0.9027   -0.1146 
 C                     0.6989    0.8365   -0.0128 
 O                    -0.0772   -1.3613    0.0998 
 H                     1.7642   -0.8699   -0.7151 
 H                     1.6299   -0.7299    1.0915 
 H                    -1.7105   -0.6929   -0.9873 
 H                    -1.8449   -0.5529    0.8194 
 H                    -1.1686    1.8201   -0.2279 
 H                     1.3676    1.6909   -0.0293 
 

 GradGradGradGradGradGradGradGradGradGradGradGradGradGradGradGradGradGrad
 Berny optimization.
 Initialization pass.
                           ----------------------------
                           !    Initial Parameters    !
                           ! (Angstroms and Degrees)  !
 --------------------------                            --------------------------
 ! Name  Definition              Value          Derivative Info.                !
 --------------------------------------------------------------------------------
 ! R1    R(1,4)                  1.4785         estimate D2E/DX2                !
 ! R2    R(1,5)                  1.4145         estimate D2E/DX2                !
 ! R3    R(1,6)                  1.1103         estimate D2E/DX2                !
 ! R4    R(1,7)                  1.1103         estimate D2E/DX2                !
 ! R5    R(2,3)                  1.4784         estimate D2E/DX2                !
 ! R6    R(2,5)                  1.4145         estimate D2E/DX2                !
 ! R7    R(2,8)                  1.1104         estimate D2E/DX2                !
 ! R8    R(2,9)                  1.1104         estimate D2E/DX2                !
 ! R9    R(3,4)                  1.3049         estimate D2E/DX2                !
 ! R10   R(3,10)                 1.0851         estimate D2E/DX2                !
 ! R11   R(4,11)                 1.0851         estimate D2E/DX2                !
 ! A1    A(4,1,5)              107.5129         estimate D2E/DX2                !
 ! A2    A(4,1,6)              109.9696         estimate D2E/DX2                !
 ! A3    A(4,1,7)              109.9678         estimate D2E/DX2                !
 ! A4    A(5,1,6)              109.7723         estimate D2E/DX2                !
 ! A5    A(5,1,7)              109.7719         estimate D2E/DX2                !
 ! A6    A(6,1,7)              109.8139         estimate D2E/DX2                !
 ! A7    A(3,2,5)              107.5182         estimate D2E/DX2                !
 ! A8    A(3,2,8)              109.9711         estimate D2E/DX2                !
 ! A9    A(3,2,9)              109.9757         estimate D2E/DX2                !
 ! A10   A(5,2,8)              109.7656         estimate D2E/DX2                !
 ! A11   A(5,2,9)              109.7669         estimate D2E/DX2                !
 ! A12   A(8,2,9)              109.8109         estimate D2E/DX2                !
 ! A13   A(2,3,4)              109.078          estimate D2E/DX2                !
 ! A14   A(2,3,10)             125.9972         estimate D2E/DX2                !
 ! A15   A(4,3,10)             124.9248         estimate D2E/DX2                !
 ! A16   A(1,4,3)              109.0794         estimate D2E/DX2                !
 ! A17   A(1,4,11)             125.9993         estimate D2E/DX2                !
 ! A18   A(3,4,11)             124.9214         estimate D2E/DX2                !
 ! A19   A(1,5,2)              106.8115         estimate D2E/DX2                !
 ! D1    D(5,1,4,3)             -0.0047         estimate D2E/DX2                !
 ! D2    D(5,1,4,11)          -179.9997         estimate D2E/DX2                !
 ! D3    D(6,1,4,3)            119.4725         estimate D2E/DX2                !
 ! D4    D(6,1,4,11)           -60.5225         estimate D2E/DX2                !
 ! D5    D(7,1,4,3)           -119.4804         estimate D2E/DX2                !
 ! D6    D(7,1,4,11)            60.5246         estimate D2E/DX2                !
 ! D7    D(4,1,5,2)              0.003          estimate D2E/DX2                !
 ! D8    D(6,1,5,2)           -119.6            estimate D2E/DX2                !
 ! D9    D(7,1,5,2)            119.6036         estimate D2E/DX2                !
 ! D10   D(5,2,3,4)             -0.0025         estimate D2E/DX2                !
 ! D11   D(5,2,3,10)          -179.9951         estimate D2E/DX2                !
 ! D12   D(8,2,3,4)           -119.4757         estimate D2E/DX2                !
 ! D13   D(8,2,3,10)            60.5317         estimate D2E/DX2                !
 ! D14   D(9,2,3,4)            119.4748         estimate D2E/DX2                !
 ! D15   D(9,2,3,10)           -60.5178         estimate D2E/DX2                !
 ! D16   D(3,2,5,1)             -0.0005         estimate D2E/DX2                !
 ! D17   D(8,2,5,1)            119.6037         estimate D2E/DX2                !
 ! D18   D(9,2,5,1)           -119.611          estimate D2E/DX2                !
 ! D19   D(2,3,4,1)              0.0044         estimate D2E/DX2                !
 ! D20   D(2,3,4,11)           179.9994         estimate D2E/DX2                !
 ! D21   D(10,3,4,1)           179.997          estimate D2E/DX2                !
 ! D22   D(10,3,4,11)           -0.0079         estimate D2E/DX2                !
 --------------------------------------------------------------------------------
 Trust Radius=3.00D-01 FncErr=1.00D-07 GrdErr=1.00D-06
 Number of steps in this run=     62 maximum allowed number of steps=    100.
 GradGradGradGradGradGradGradGradGradGradGradGradGradGradGradGradGradGrad

                          Input orientation:                          
 ---------------------------------------------------------------------
 Center     Atomic      Atomic             Coordinates (Angstroms)
 Number     Number       Type             X           Y           Z
 ---------------------------------------------------------------------
      1          6           0        1.101200   -0.579300    0.126800
      2          6           0       -1.160300   -0.464000   -0.050300
      3          6           0       -0.600300    0.902700   -0.114600
      4          6           0        0.698900    0.836500   -0.012800
      5          8           0       -0.077200   -1.361300    0.099800
      6          1           0        1.764200   -0.869900   -0.715100
      7          1           0        1.629900   -0.729900    1.091500
      8          1           0       -1.710500   -0.692900   -0.987300
      9          1           0       -1.844900   -0.552900    0.819400
     10          1           0       -1.168600    1.820100   -0.227900
     11          1           0        1.367600    1.690900   -0.029300
 ---------------------------------------------------------------------
                    Distance matrix (angstroms):
                    1          2          3          4          5
     1  C    0.000000
     2  C    2.271352   0.000000
     3  C    2.269295   1.478379   0.000000
     4  C    1.478453   2.269214   1.304863   0.000000
     5  O    1.414524   1.414490   2.333516   2.333524   0.000000
     6  H    1.110321   3.026452   3.015555   2.130702   2.072749
     7  H    1.110338   3.026487   3.015601   2.130692   2.072758
     8  H    3.026513   1.110443   2.130748   3.015613   2.072731
     9  H    3.026532   1.110387   2.130764   3.015611   2.072703
    10  H    3.321886   2.291009   1.085092   2.121625   3.379326
    11  H    2.291101   3.321794   2.121595   1.085095   3.379355
                    6          7          8          9         10
     6  H    0.000000
     7  H    1.816987   0.000000
     8  H    3.489837   3.934597   0.000000
     9  H    3.934562   3.489929   1.817093   0.000000
    10  H    4.009337   4.009354   2.680581   2.680550   0.000000
    11  H    2.680543   2.680535   4.009360   4.009375   2.547243
                   11
    11  H    0.000000
 Stoichiometry    C4H6O
 Framework group  C1[X(C4H6O)]
 Deg. of freedom    27
 Full point group                 C1      NOp   1
 Largest Abelian subgroup         C1      NOp   1
 Largest concise Abelian subgroup C1      NOp   1
                         Standard orientation:                         
 ---------------------------------------------------------------------
 Center     Atomic      Atomic             Coordinates (Angstroms)
 Number     Number       Type             X           Y           Z
 ---------------------------------------------------------------------
      1          6           0       -1.135765   -0.363826    0.000019
      2          6           0        1.135588   -0.364176   -0.000009
      3          6           0        0.652623    1.033089    0.000022
      4          6           0       -0.652240    1.033324   -0.000023
      5          8           0       -0.000197   -1.207251   -0.000017
      6          1           0       -1.745015   -0.554215    0.908523
      7          1           0       -1.745075   -0.554220   -0.908464
      8          1           0        1.744822   -0.554898    0.908584
      9          1           0        1.744853   -0.554916   -0.908509
     10          1           0        1.273998    1.922649   -0.000040
     11          1           0       -1.273244    1.923146   -0.000005
 ---------------------------------------------------------------------
 Rotational constants (GHZ):      8.4171046      7.8847936      4.3017435
 Standard basis: 6-311+G(2df,2p) (5D, 7F)
 There are   224 symmetry adapted basis functions of A   symmetry.
 Integral buffers will be    131072 words long.
 Raffenetti 2 integral format.
 Two-electron integral symmetry is turned on.
   224 basis functions,   326 primitive gaussians,   249 cartesian basis functions
    19 alpha electrons       19 beta electrons
       nuclear repulsion energy       175.9225359287 Hartrees.
 NAtoms=   11 NActive=   11 NUniq=   11 SFac= 1.00D+00 NAtFMM=   50 NAOKFM=F Big=F
 One-electron integrals computed using PRISM.
 NBasis=   224 RedAO= T  NBF=   224
 NBsUse=   224 1.00D-06 NBFU=   224
 Harris functional with IExCor= 1009 diagonalized for initial guess.
 ExpMin= 4.38D-02 ExpMax= 8.59D+03 ExpMxC= 1.30D+03 IAcc=2 IRadAn=         0 AccDes= 0.00D+00
 HarFok:  IExCor= 1009 AccDes= 0.00D+00 IRadAn=         0 IDoV= 1
 ScaDFX=  1.000000  1.000000  1.000000  1.000000
 FoFCou: FMM=F IPFlag=           0 FMFlag=      100000 FMFlg1=           0
         NFxFlg=           0 DoJE=T BraDBF=F KetDBF=T FulRan=T
         Omega=  0.000000  0.000000  1.000000  0.000000  0.000000 ICntrl=     500 IOpCl=  0
         NMat0=    1 NMatS0=    1 NMatT0=    0 NMatD0=    1 NMtDS0=    0 NMtDT0=    0
         I1Cent=           4 NGrid=           0.
 Petite list used in FoFCou.
 Initial guess orbital symmetries:
       Occupied  (A) (A) (A) (A) (A) (A) (A) (A) (A) (A) (A) (A)
                 (A) (A) (A) (A) (A) (A) (A)
       Virtual   (A) (A) (A) (A) (A) (A) (A) (A) (A) (A) (A) (A)
                 (A) (A) (A) (A) (A) (A) (A) (A) (A) (A) (A) (A)
                 (A) (A) (A) (A) (A) (A) (A) (A) (A) (A) (A) (A)
                 (A) (A) (A) (A) (A) (A) (A) (A) (A) (A) (A) (A)
                 (A) (A) (A) (A) (A) (A) (A) (A) (A) (A) (A) (A)
                 (A) (A) (A) (A) (A) (A) (A) (A) (A) (A) (A) (A)
                 (A) (A) (A) (A) (A) (A) (A) (A) (A) (A) (A) (A)
                 (A) (A) (A) (A) (A) (A) (A) (A) (A) (A) (A) (A)
                 (A) (A) (A) (A) (A) (A) (A) (A) (A) (A) (A) (A)
                 (A) (A) (A) (A) (A) (A) (A) (A) (A) (A) (A) (A)
                 (A) (A) (A) (A) (A) (A) (A) (A) (A) (A) (A) (A)
                 (A) (A) (A) (A) (A) (A) (A) (A) (A) (A) (A) (A)
                 (A) (A) (A) (A) (A) (A) (A) (A) (A) (A) (A) (A)
                 (A) (A) (A) (A) (A) (A) (A) (A) (A) (A) (A) (A)
                 (A) (A) (A) (A) (A) (A) (A) (A) (A) (A) (A) (A)
                 (A) (A) (A) (A) (A) (A) (A) (A) (A) (A) (A) (A)
                 (A) (A) (A) (A) (A) (A) (A) (A) (A) (A) (A) (A)
                 (A)
 The electronic state of the initial guess is 1-A.
 Requested convergence on RMS density matrix=1.00D-08 within 128 cycles.
 Requested convergence on MAX density matrix=1.00D-06.
 Requested convergence on             energy=1.00D-06.
 No special actions if energy rises.
 Keep R1 ints in memory in canonical form, NReq=492516052.
 SCF Done:  E(RM062X) =  -231.190098611     A.U. after   10 cycles
             Convg  =    0.7079D-08             -V/T =  2.0034

 **********************************************************************

            Population analysis using the SCF density.

 **********************************************************************

 Orbital symmetries:
       Occupied  (A) (A) (A) (A) (A) (A) (A) (A) (A) (A) (A) (A)
                 (A) (A) (A) (A) (A) (A) (A)
       Virtual   (A) (A) (A) (A) (A) (A) (A) (A) (A) (A) (A) (A)
                 (A) (A) (A) (A) (A) (A) (A) (A) (A) (A) (A) (A)
                 (A) (A) (A) (A) (A) (A) (A) (A) (A) (A) (A) (A)
                 (A) (A) (A) (A) (A) (A) (A) (A) (A) (A) (A) (A)
                 (A) (A) (A) (A) (A) (A) (A) (A) (A) (A) (A) (A)
                 (A) (A) (A) (A) (A) (A) (A) (A) (A) (A) (A) (A)
                 (A) (A) (A) (A) (A) (A) (A) (A) (A) (A) (A) (A)
                 (A) (A) (A) (A) (A) (A) (A) (A) (A) (A) (A) (A)
                 (A) (A) (A) (A) (A) (A) (A) (A) (A) (A) (A) (A)
                 (A) (A) (A) (A) (A) (A) (A) (A) (A) (A) (A) (A)
                 (A) (A) (A) (A) (A) (A) (A) (A) (A) (A) (A) (A)
                 (A) (A) (A) (A) (A) (A) (A) (A) (A) (A) (A) (A)
                 (A) (A) (A) (A) (A) (A) (A) (A) (A) (A) (A) (A)
                 (A) (A) (A) (A) (A) (A) (A) (A) (A) (A) (A) (A)
                 (A) (A) (A) (A) (A) (A) (A) (A) (A) (A) (A) (A)
                 (A) (A) (A) (A) (A) (A) (A) (A) (A) (A) (A) (A)
                 (A) (A) (A) (A) (A) (A) (A) (A) (A) (A) (A) (A)
                 (A)
 The electronic state is 1-A.
 Alpha  occ. eigenvalues --  -19.62618 -10.58584 -10.58581 -10.53855 -10.53723
 Alpha  occ. eigenvalues --   -1.17126  -0.90533  -0.83476  -0.69003  -0.64545
 Alpha  occ. eigenvalues --   -0.59641  -0.56761  -0.49652  -0.48113  -0.46579
 Alpha  occ. eigenvalues --   -0.41882  -0.41194  -0.36363  -0.29750
 Alpha virt. eigenvalues --    0.01361   0.03183   0.03841   0.04215   0.04965
 Alpha virt. eigenvalues --    0.05631   0.05929   0.07324   0.07925   0.09024
 Alpha virt. eigenvalues --    0.10438   0.11568   0.12940   0.14527   0.15514
 Alpha virt. eigenvalues --    0.15839   0.18710   0.19939   0.21641   0.22591
 Alpha virt. eigenvalues --    0.23393   0.25333   0.25476   0.25936   0.26823
 Alpha virt. eigenvalues --    0.28888   0.29551   0.29568   0.34095   0.36647
 Alpha virt. eigenvalues --    0.42261   0.43767   0.45489   0.47073   0.49676
 Alpha virt. eigenvalues --    0.50890   0.53447   0.55604   0.56584   0.56940
 Alpha virt. eigenvalues --    0.57390   0.57498   0.59729   0.61829   0.62146
 Alpha virt. eigenvalues --    0.66385   0.66783   0.66835   0.68896   0.70347
 Alpha virt. eigenvalues --    0.70966   0.72537   0.75183   0.78693   0.87990
 Alpha virt. eigenvalues --    0.88181   0.89888   0.93044   0.93156   0.96315
 Alpha virt. eigenvalues --    1.01091   1.02431   1.04442   1.04535   1.05136
 Alpha virt. eigenvalues --    1.10348   1.16326   1.18794   1.18826   1.19868
 Alpha virt. eigenvalues --    1.23979   1.24139   1.28131   1.28171   1.29403
 Alpha virt. eigenvalues --    1.30569   1.33320   1.34225   1.37385   1.37915
 Alpha virt. eigenvalues --    1.39905   1.41047   1.41318   1.44512   1.46462
 Alpha virt. eigenvalues --    1.48176   1.52994   1.56174   1.58019   1.58996
 Alpha virt. eigenvalues --    1.59011   1.63649   1.66952   1.74656   1.77872
 Alpha virt. eigenvalues --    1.90077   2.07569   2.14989   2.15604   2.26020
 Alpha virt. eigenvalues --    2.31824   2.36238   2.49876   2.54529   2.60542
 Alpha virt. eigenvalues --    2.69585   2.69966   2.71861   2.77305   2.80965
 Alpha virt. eigenvalues --    2.81731   2.81957   2.83975   2.85066   2.88445
 Alpha virt. eigenvalues --    2.89348   2.90400   3.02791   3.03504   3.13021
 Alpha virt. eigenvalues --    3.13766   3.13986   3.17266   3.17574   3.19338
 Alpha virt. eigenvalues --    3.20332   3.22937   3.29544   3.30002   3.31627
 Alpha virt. eigenvalues --    3.33097   3.35600   3.39443   3.39908   3.40407
 Alpha virt. eigenvalues --    3.45304   3.48109   3.51441   3.55868   3.56081
 Alpha virt. eigenvalues --    3.57782   3.66446   3.66620   3.67523   3.72240
 Alpha virt. eigenvalues --    3.73813   3.74393   3.77358   3.77840   3.82950
 Alpha virt. eigenvalues --    3.86363   3.88125   3.92091   3.92096   3.95436
 Alpha virt. eigenvalues --    4.00056   4.06515   4.12533   4.13810   4.16164
 Alpha virt. eigenvalues --    4.21357   4.24141   4.28407   4.29596   4.36450
 Alpha virt. eigenvalues --    4.37152   4.37239   4.46766   4.49239   4.52200
 Alpha virt. eigenvalues --    4.62899   4.63065   4.70793   4.71719   4.75176
 Alpha virt. eigenvalues --    4.76826   4.82342   5.17500   5.17887   5.18363
 Alpha virt. eigenvalues --    5.33132   5.36559   5.38830   5.39096   5.39407
 Alpha virt. eigenvalues --    5.44610   5.50055   5.64864   5.76393   5.81063
 Alpha virt. eigenvalues --    5.87540   6.06207   6.21904   6.41932   6.70504
 Alpha virt. eigenvalues --    7.19754   7.32074   7.34525   7.60932   7.76140
 Alpha virt. eigenvalues --   24.05086  24.44828  24.52658  25.01041  50.19708
          Condensed to atoms (all electrons):
              1          2          3          4          5          6
     1  C    5.140478  -0.115218  -0.017089   0.202588   0.078288   0.459295
     2  C   -0.115218   5.140507   0.202566  -0.017125   0.078240   0.005545
     3  C   -0.017089   0.202566   5.052304   0.557269   0.023122  -0.002997
     4  C    0.202588  -0.017125   0.557269   5.052346   0.023089  -0.064095
     5  O    0.078288   0.078240   0.023122   0.023089   8.270502  -0.063098
     6  H    0.459295   0.005545  -0.002997  -0.064095  -0.063098   0.593662
     7  H    0.459343   0.005517  -0.002937  -0.064173  -0.063101  -0.055465
     8  H    0.005514   0.459353  -0.064184  -0.002933  -0.063123   0.004357
     9  H    0.005544   0.459289  -0.064088  -0.002992  -0.063114  -0.002402
    10  H   -0.006536   0.008948   0.327677   0.040310   0.003502  -0.000095
    11  H    0.008944  -0.006530   0.040300   0.327678   0.003502  -0.000872
              7          8          9         10         11
     1  C    0.459343   0.005514   0.005544  -0.006536   0.008944
     2  C    0.005517   0.459353   0.459289   0.008948  -0.006530
     3  C   -0.002937  -0.064184  -0.064088   0.327677   0.040300
     4  C   -0.064173  -0.002933  -0.002992   0.040310   0.327678
     5  O   -0.063101  -0.063123  -0.063114   0.003502   0.003502
     6  H   -0.055465   0.004357  -0.002402  -0.000095  -0.000872
     7  H    0.593669  -0.002402   0.004356  -0.000095  -0.000873
     8  H   -0.002402   0.593725  -0.055465  -0.000874  -0.000095
     9  H    0.004356  -0.055465   0.593701  -0.000873  -0.000095
    10  H   -0.000095  -0.000874  -0.000873   0.498142  -0.004790
    11  H   -0.000873  -0.000095  -0.000095  -0.004790   0.498150
 Mulliken atomic charges:
              1
     1  C   -0.221151
     2  C   -0.221091
     3  C   -0.051945
     4  C   -0.051962
     5  O   -0.227808
     6  H    0.126165
     7  H    0.126160
     8  H    0.126126
     9  H    0.126140
    10  H    0.134684
    11  H    0.134683
 Sum of Mulliken atomic charges =   0.00000
 Mulliken charges with hydrogens summed into heavy atoms:
              1
     1  C    0.031174
     2  C    0.031175
     3  C    0.082739
     4  C    0.082721
     5  O   -0.227808
 Sum of Mulliken charges with hydrogens summed into heavy atoms =   0.00000
 Electronic spatial extent (au):  <R**2>=            331.4572
 Charge=              0.0000 electrons
 Dipole moment (field-independent basis, Debye):
    X=              0.0001    Y=              1.7789    Z=              0.0000  Tot=              1.7789
 Quadrupole moment (field-independent basis, Debye-Ang):
   XX=            -26.9250   YY=            -32.3490   ZZ=            -31.1328
   XY=             -0.0007   XZ=             -0.0002   YZ=             -0.0001
 Traceless Quadrupole moment (field-independent basis, Debye-Ang):
   XX=              3.2106   YY=             -2.2134   ZZ=             -0.9972
   XY=             -0.0007   XZ=             -0.0002   YZ=             -0.0001
 Octapole moment (field-independent basis, Debye-Ang**2):
  XXX=             -0.0020  YYY=              5.2159  ZZZ=              0.0000  XYY=              0.0012
  XXY=             -0.5602  XXZ=             -0.0004  XZZ=             -0.0012  YZZ=             -4.1072
  YYZ=             -0.0002  XYZ=              0.0000
 Hexadecapole moment (field-independent basis, Debye-Ang**3):
 XXXX=           -205.4666 YYYY=           -191.2364 ZZZZ=            -47.8898 XXXY=              0.0053
 XXXZ=             -0.0013 YYYX=             -0.0017 YYYZ=             -0.0003 ZZZX=             -0.0005
 ZZZY=              0.0000 XXYY=            -59.9223 XXZZ=            -39.2400 YYZZ=            -43.8030
 XXYZ=              0.0002 YYXZ=             -0.0006 ZZXY=             -0.0010
 N-N= 1.759225359287D+02 E-N=-8.912791674508D+02  KE= 2.304001753924D+02
 Calling FoFJK, ICntrl=      2127 FMM=F ISym2X=0 I1Cent= 0 IOpClX= 0 NMat=1 NMatS=1 NMatT=0.
 ***** Axes restored to original set *****
 -------------------------------------------------------------------
 Center     Atomic                   Forces (Hartrees/Bohr)
 Number     Number              X              Y              Z
 -------------------------------------------------------------------
      1        6           0.031759929   -0.012254974    0.003323583
      2        6          -0.033054034   -0.009030915   -0.001793069
      3        6          -0.009525201    0.013953872   -0.001774872
      4        6           0.011060760    0.012888566   -0.000185950
      5        8           0.000933366    0.015968290   -0.001166662
      6        1          -0.002756212   -0.001607288    0.010146595
      7        1          -0.001256771   -0.003175433   -0.010082650
      8        1           0.000997551   -0.001772825    0.010495861
      9        1           0.002494629   -0.003347527   -0.009812912
     10        1          -0.002187266   -0.005714368    0.000276440
     11        1           0.001533250   -0.005907399    0.000573637
 -------------------------------------------------------------------
 Cartesian Forces:  Max     0.033054034 RMS     0.010604653

 GradGradGradGradGradGradGradGradGradGradGradGradGradGradGradGradGradGrad
 Berny optimization.
 Internal  Forces:  Max     0.026910147 RMS     0.007434067
 Search for a local minimum.
 Step number   1 out of a maximum of   62
 All quantities printed in internal units (Hartrees-Bohrs-Radians)
 Swaping is turned off.
 Second derivative matrix not updated -- first step.
 ITU=  0
     Eigenvalues ---    0.01274   0.01556   0.01800   0.02181   0.05564
     Eigenvalues ---    0.06482   0.07865   0.07966   0.11258   0.11268
     Eigenvalues ---    0.11284   0.11898   0.16000   0.16000   0.22022
     Eigenvalues ---    0.23009   0.32414   0.32553   0.32559   0.32564
     Eigenvalues ---    0.32566   0.34483   0.35386   0.35386   0.41151
     Eigenvalues ---    0.42232   0.62973
 Angle between quadratic step and forces=  25.66 degrees.
 Linear search not attempted -- option 19 set.
 Iteration  1 RMS(Cart)=  0.03827373 RMS(Int)=  0.00087850
 Iteration  2 RMS(Cart)=  0.00085367 RMS(Int)=  0.00049176
 Iteration  3 RMS(Cart)=  0.00000022 RMS(Int)=  0.00049176
 Variable       Old X    -DE/DX   Delta X   Delta X   Delta X     New X
                                 (Linear)    (Quad)   (Total)
    R1        2.79387   0.01201   0.00000   0.03541   0.03531   2.82918
    R2        2.67306   0.00651   0.00000   0.01337   0.01360   2.68667
    R3        2.09820  -0.00892   0.00000  -0.02739  -0.02739   2.07082
    R4        2.09823  -0.00893   0.00000  -0.02742  -0.02742   2.07082
    R5        2.79373   0.01205   0.00000   0.03551   0.03542   2.82915
    R6        2.67300   0.00653   0.00000   0.01342   0.01365   2.68665
    R7        2.09843  -0.00899   0.00000  -0.02760  -0.02760   2.07083
    R8        2.09833  -0.00896   0.00000  -0.02751  -0.02751   2.07082
    R9        2.46583   0.02691   0.00000   0.04222   0.04194   2.50777
   R10        2.05053  -0.00371   0.00000  -0.01050  -0.01050   2.04003
   R11        2.05053  -0.00372   0.00000  -0.01050  -0.01050   2.04003
    A1        1.87645  -0.01438   0.00000  -0.06267  -0.06214   1.81431
    A2        1.91933   0.00731   0.00000   0.04688   0.04647   1.96580
    A3        1.91930   0.00731   0.00000   0.04692   0.04651   1.96581
    A4        1.91589   0.00271   0.00000   0.00361   0.00441   1.92030
    A5        1.91588   0.00271   0.00000   0.00362   0.00442   1.92030
    A6        1.91661  -0.00573   0.00000  -0.03832  -0.03942   1.87719
    A7        1.87655  -0.01441   0.00000  -0.06276  -0.06223   1.81432
    A8        1.91936   0.00731   0.00000   0.04686   0.04645   1.96581
    A9        1.91944   0.00730   0.00000   0.04679   0.04638   1.96582
   A10        1.91577   0.00273   0.00000   0.00375   0.00455   1.92032
   A11        1.91579   0.00273   0.00000   0.00372   0.00452   1.92031
   A12        1.91656  -0.00573   0.00000  -0.03832  -0.03942   1.87714
   A13        1.90377   0.00255   0.00000   0.01844   0.01780   1.92157
   A14        2.19907  -0.00627   0.00000  -0.04043  -0.04011   2.15896
   A15        2.18035   0.00372   0.00000   0.02199   0.02231   2.20265
   A16        1.90379   0.00254   0.00000   0.01840   0.01776   1.92155
   A17        2.19910  -0.00627   0.00000  -0.04044  -0.04012   2.15898
   A18        2.18029   0.00373   0.00000   0.02205   0.02237   2.20265
   A19        1.86421   0.02369   0.00000   0.08859   0.08881   1.95303
    D1       -0.00008   0.00000   0.00000   0.00009   0.00009   0.00001
    D2       -3.14159   0.00000   0.00000   0.00000   0.00000  -3.14159
    D3        2.08519  -0.00114   0.00000  -0.00626  -0.00704   2.07815
    D4       -1.05632  -0.00114   0.00000  -0.00636  -0.00713  -1.06345
    D5       -2.08533   0.00114   0.00000   0.00641   0.00719  -2.07814
    D6        1.05635   0.00114   0.00000   0.00632   0.00709   1.06345
    D7        0.00005   0.00000   0.00000  -0.00002  -0.00002   0.00004
    D8       -2.08741  -0.00182   0.00000  -0.02139  -0.02153  -2.10894
    D9        2.08748   0.00182   0.00000   0.02141   0.02155   2.10902
   D10       -0.00004   0.00000   0.00000   0.00012   0.00011   0.00007
   D11       -3.14151   0.00000   0.00000  -0.00003  -0.00003  -3.14154
   D12       -2.08524   0.00114   0.00000   0.00637   0.00714  -2.07811
   D13        1.05648   0.00114   0.00000   0.00622   0.00700   1.06347
   D14        2.08523  -0.00114   0.00000  -0.00622  -0.00699   2.07824
   D15       -1.05623  -0.00114   0.00000  -0.00636  -0.00714  -1.06337
   D16       -0.00001   0.00000   0.00000  -0.00006  -0.00005  -0.00006
   D17        2.08748   0.00181   0.00000   0.02133   0.02146   2.10894
   D18       -2.08761  -0.00181   0.00000  -0.02133  -0.02147  -2.10907
   D19        0.00008   0.00000   0.00000  -0.00012  -0.00013  -0.00005
   D20        3.14158   0.00000   0.00000  -0.00003  -0.00003   3.14155
   D21        3.14154   0.00000   0.00000   0.00002   0.00002   3.14156
   D22       -0.00014   0.00000   0.00000   0.00011   0.00011  -0.00003
         Item               Value     Threshold  Converged?
 Maximum Force            0.026910     0.000002     NO 
 RMS     Force            0.007434     0.000001     NO 
 Maximum Displacement     0.106153     0.000006     NO 
 RMS     Displacement     0.037937     0.000004     NO 
 Predicted change in Energy=-4.996234D-03
 GradGradGradGradGradGradGradGradGradGradGradGradGradGradGradGradGradGrad

                          Input orientation:                          
 ---------------------------------------------------------------------
 Center     Atomic      Atomic             Coordinates (Angstroms)
 Number     Number       Type             X           Y           Z
 ---------------------------------------------------------------------
      1          6           0        1.143814   -0.572237    0.129432
      2          6           0       -1.201899   -0.452726   -0.054291
      3          6           0       -0.610339    0.921147   -0.116727
      4          6           0        0.710965    0.853841   -0.013279
      5          8           0       -0.073983   -1.305126    0.095686
      6          1           0        1.800112   -0.897310   -0.685700
      7          1           0        1.669411   -0.761064    1.072266
      8          1           0       -1.753112   -0.716257   -0.964002
      9          1           0       -1.883915   -0.580054    0.793935
     10          1           0       -1.196040    1.820886   -0.229976
     11          1           0        1.394987    1.688901   -0.027143
 ---------------------------------------------------------------------
                    Distance matrix (angstroms):
                    1          2          3          4          5
     1  C    0.000000
     2  C    2.355931   0.000000
     3  C    2.316861   1.497120   0.000000
     4  C    1.497139   2.316861   1.327055   0.000000
     5  O    1.421723   1.421716   2.299802   2.299817   0.000000
     6  H    1.095829   3.099743   3.072587   2.169083   2.071017
     7  H    1.095830   3.099778   3.072589   2.169089   2.071023
     8  H    3.099762   1.095837   2.169077   3.072581   2.071034
     9  H    3.099802   1.095831   2.169079   3.072629   2.071023
    10  H    3.366174   2.280396   1.079537   2.149139   3.337217
    11  H    2.280428   3.366173   2.149141   1.079539   3.337238
                    6          7          8          9         10
     6  H    0.000000
     7  H    1.768076   0.000000
     8  H    3.568703   3.982720   0.000000
     9  H    3.982717   3.568804   1.768050   0.000000
    10  H    4.071020   4.071008   2.699299   2.699274   0.000000
    11  H    2.699317   2.699322   4.070997   4.071060   2.602303
                   11
    11  H    0.000000
 Stoichiometry    C4H6O
 Framework group  C1[X(C4H6O)]
 Deg. of freedom    27
 Full point group                 C1      NOp   1
 Largest Abelian subgroup         C1      NOp   1
 Largest concise Abelian subgroup C1      NOp   1
                         Standard orientation:                         
 ---------------------------------------------------------------------
 Center     Atomic      Atomic             Coordinates (Angstroms)
 Number     Number       Type             X           Y           Z
 ---------------------------------------------------------------------
      1          6           0       -1.177965   -0.372353    0.000002
      2          6           0        1.177965   -0.372322    0.000019
      3          6           0        0.663515    1.033632   -0.000019
      4          6           0       -0.663540    1.033631    0.000010
      5          8           0        0.000015   -1.168380   -0.000022
      6          1           0       -1.784344   -0.599524    0.884049
      7          1           0       -1.784378   -0.599509   -0.884027
      8          1           0        1.784358   -0.599458    0.884075
      9          1           0        1.784426   -0.599489   -0.883975
     10          1           0        1.301138    1.904745   -0.000052
     11          1           0       -1.301166    1.904744    0.000031
 ---------------------------------------------------------------------
 Rotational constants (GHZ):      8.0618134      7.9879641      4.2236505
 Standard basis: 6-311+G(2df,2p) (5D, 7F)
 There are   224 symmetry adapted basis functions of A   symmetry.
 Integral buffers will be    131072 words long.
 Raffenetti 2 integral format.
 Two-electron integral symmetry is turned on.
   224 basis functions,   326 primitive gaussians,   249 cartesian basis functions
    19 alpha electrons       19 beta electrons
       nuclear repulsion energy       174.7223305059 Hartrees.
 NAtoms=   11 NActive=   11 NUniq=   11 SFac= 1.00D+00 NAtFMM=   50 NAOKFM=F Big=F
 One-electron integrals computed using PRISM.
 NBasis=   224 RedAO= T  NBF=   224
 NBsUse=   224 1.00D-06 NBFU=   224
 Initial guess read from the read-write file.
 B after Tr=     0.000000    0.000000    0.000000
         Rot=    1.000000    0.000000    0.000000    0.000000 Ang=   0.00 deg.
 Initial guess orbital symmetries:
       Occupied  (A) (A) (A) (A) (A) (A) (A) (A) (A) (A) (A) (A)
                 (A) (A) (A) (A) (A) (A) (A)
       Virtual   (A) (A) (A) (A) (A) (A) (A) (A) (A) (A) (A) (A)
                 (A) (A) (A) (A) (A) (A) (A) (A) (A) (A) (A) (A)
                 (A) (A) (A) (A) (A) (A) (A) (A) (A) (A) (A) (A)
                 (A) (A) (A) (A) (A) (A) (A) (A) (A) (A) (A) (A)
                 (A) (A) (A) (A) (A) (A) (A) (A) (A) (A) (A) (A)
                 (A) (A) (A) (A) (A) (A) (A) (A) (A) (A) (A) (A)
                 (A) (A) (A) (A) (A) (A) (A) (A) (A) (A) (A) (A)
                 (A) (A) (A) (A) (A) (A) (A) (A) (A) (A) (A) (A)
                 (A) (A) (A) (A) (A) (A) (A) (A) (A) (A) (A) (A)
                 (A) (A) (A) (A) (A) (A) (A) (A) (A) (A) (A) (A)
                 (A) (A) (A) (A) (A) (A) (A) (A) (A) (A) (A) (A)
                 (A) (A) (A) (A) (A) (A) (A) (A) (A) (A) (A) (A)
                 (A) (A) (A) (A) (A) (A) (A) (A) (A) (A) (A) (A)
                 (A) (A) (A) (A) (A) (A) (A) (A) (A) (A) (A) (A)
                 (A) (A) (A) (A) (A) (A) (A) (A) (A) (A) (A) (A)
                 (A) (A) (A) (A) (A) (A) (A) (A) (A) (A) (A) (A)
                 (A) (A) (A) (A) (A) (A) (A) (A) (A) (A) (A) (A)
                 (A)
 Harris functional with IExCor= 1009 diagonalized for initial guess.
 ExpMin= 4.38D-02 ExpMax= 8.59D+03 ExpMxC= 1.30D+03 IAcc=2 IRadAn=         0 AccDes= 0.00D+00
 HarFok:  IExCor= 1009 AccDes= 0.00D+00 IRadAn=         0 IDoV= 1
 ScaDFX=  1.000000  1.000000  1.000000  1.000000
 FoFCou: FMM=F IPFlag=           0 FMFlag=      100000 FMFlg1=           0
         NFxFlg=           0 DoJE=T BraDBF=F KetDBF=T FulRan=T
         Omega=  0.000000  0.000000  1.000000  0.000000  0.000000 ICntrl=     500 IOpCl=  0
         NMat0=    1 NMatS0=    1 NMatT0=    0 NMatD0=    1 NMtDS0=    0 NMtDT0=    0
         I1Cent=           4 NGrid=           0.
 Petite list used in FoFCou.
 Requested convergence on RMS density matrix=1.00D-08 within 128 cycles.
 Requested convergence on MAX density matrix=1.00D-06.
 Requested convergence on             energy=1.00D-06.
 No special actions if energy rises.
 Keep R1 ints in memory in canonical form, NReq=492516052.
 SCF Done:  E(RM062X) =  -231.194122950     A.U. after    9 cycles
             Convg  =    0.9816D-08             -V/T =  2.0039
 Calling FoFJK, ICntrl=      2127 FMM=F ISym2X=0 I1Cent= 0 IOpClX= 0 NMat=1 NMatS=1 NMatT=0.
 ***** Axes restored to original set *****
 -------------------------------------------------------------------
 Center     Atomic                   Forces (Hartrees/Bohr)
 Number     Number              X              Y              Z
 -------------------------------------------------------------------
      1        6          -0.004555805    0.000922136   -0.000412976
      2        6           0.004622931    0.000446426    0.000309594
      3        6           0.005275490    0.002491900    0.000197211
      4        6          -0.004962929    0.003004181   -0.000599687
      5        8          -0.000386701   -0.006856002    0.000502912
      6        1          -0.001256726    0.000020939    0.000075549
      7        1          -0.001233213   -0.000004843   -0.000262528
      8        1           0.001230943   -0.000104196    0.000270876
      9        1           0.001254241   -0.000131211   -0.000065317
     10        1          -0.000184178    0.000115997   -0.000024087
     11        1           0.000195946    0.000094673    0.000008453
 -------------------------------------------------------------------
 Cartesian Forces:  Max     0.006856002 RMS     0.002238841

 GradGradGradGradGradGradGradGradGradGradGradGradGradGradGradGradGradGrad
 Berny optimization.
 Using GDIIS optimizer.
 Internal  Forces:  Max     0.007232461 RMS     0.002011359
 Search for a local minimum.
 Step number   2 out of a maximum of   62
 All quantities printed in internal units (Hartrees-Bohrs-Radians)
 Swaping is turned off.
 Update second derivatives using D2CorX and points    1    2
 DE= -4.02D-03 DEPred=-5.00D-03 R= 8.05D-01
 SS=  1.41D+00  RLast= 2.06D-01 DXNew= 5.0454D-01 6.1783D-01
 Trust test= 8.05D-01 RLast= 2.06D-01 DXMaxT set to 5.05D-01
 ITU=  1  0
     Eigenvalues ---    0.01287   0.01585   0.01829   0.02232   0.05755
     Eigenvalues ---    0.06573   0.07590   0.07707   0.10791   0.10856
     Eigenvalues ---    0.11173   0.11711   0.15785   0.16000   0.21977
     Eigenvalues ---    0.28656   0.31109   0.32515   0.32555   0.32561
     Eigenvalues ---    0.32565   0.33778   0.35386   0.35406   0.41097
     Eigenvalues ---    0.42366   0.66587
 DIIS coeff's:      0.84887      0.15113
 Cosine:  1.000 >  0.970
 Length:  1.000
 GDIIS step was calculated using  2 of the last  2 vectors.
 Iteration  1 RMS(Cart)=  0.00911810 RMS(Int)=  0.00008633
 Iteration  2 RMS(Cart)=  0.00003963 RMS(Int)=  0.00007859
 Iteration  3 RMS(Cart)=  0.00000000 RMS(Int)=  0.00007859
 Variable       Old X    -DE/DX   Delta X   Delta X   Delta X     New X
                                  (DIIS)     (GDIIS)  (Total)
    R1        2.82918   0.00191  -0.00534   0.01101   0.00568   2.83487
    R2        2.68667  -0.00209  -0.00206  -0.00150  -0.00358   2.68308
    R3        2.07082  -0.00082   0.00414  -0.00710  -0.00296   2.06786
    R4        2.07082  -0.00082   0.00414  -0.00711  -0.00296   2.06786
    R5        2.82915   0.00192  -0.00535   0.01105   0.00571   2.83485
    R6        2.68665  -0.00208  -0.00206  -0.00148  -0.00358   2.68308
    R7        2.07083  -0.00082   0.00417  -0.00715  -0.00298   2.06786
    R8        2.07082  -0.00082   0.00416  -0.00712  -0.00296   2.06786
    R9        2.50777  -0.00722  -0.00634  -0.00177  -0.00808   2.49969
   R10        2.04003   0.00020   0.00159  -0.00143   0.00016   2.04019
   R11        2.04003   0.00020   0.00159  -0.00143   0.00015   2.04019
    A1        1.81431   0.00520   0.00939   0.00825   0.01757   1.83188
    A2        1.96580  -0.00109  -0.00702   0.00563  -0.00131   1.96449
    A3        1.96581  -0.00109  -0.00703   0.00562  -0.00132   1.96448
    A4        1.92030  -0.00205  -0.00067  -0.00811  -0.00892   1.91137
    A5        1.92030  -0.00205  -0.00067  -0.00813  -0.00894   1.91136
    A6        1.87719   0.00098   0.00596  -0.00373   0.00236   1.87955
    A7        1.81432   0.00520   0.00940   0.00823   0.01757   1.83189
    A8        1.96581  -0.00109  -0.00702   0.00561  -0.00133   1.96448
    A9        1.96582  -0.00109  -0.00701   0.00561  -0.00132   1.96450
   A10        1.92032  -0.00205  -0.00069  -0.00811  -0.00894   1.91138
   A11        1.92031  -0.00205  -0.00068  -0.00811  -0.00893   1.91138
   A12        1.87714   0.00098   0.00596  -0.00370   0.00239   1.87953
   A13        1.92157  -0.00159  -0.00269  -0.00398  -0.00658   1.91499
   A14        2.15896   0.00070   0.00606  -0.00417   0.00185   2.16081
   A15        2.20265   0.00089  -0.00337   0.00815   0.00473   2.20739
   A16        1.92155  -0.00158  -0.00268  -0.00397  -0.00657   1.91498
   A17        2.15898   0.00070   0.00606  -0.00419   0.00184   2.16082
   A18        2.20265   0.00089  -0.00338   0.00816   0.00474   2.20739
   A19        1.95303  -0.00723  -0.01342  -0.00854  -0.02198   1.93104
    D1        0.00001   0.00000  -0.00001  -0.00003  -0.00004  -0.00003
    D2       -3.14159   0.00000   0.00000  -0.00002  -0.00002   3.14158
    D3        2.07815   0.00017   0.00106  -0.00178  -0.00059   2.07756
    D4       -1.06345   0.00017   0.00108  -0.00177  -0.00057  -1.06402
    D5       -2.07814  -0.00017  -0.00109   0.00175   0.00054  -2.07760
    D6        1.06345  -0.00017  -0.00107   0.00176   0.00056   1.06401
    D7        0.00004   0.00000   0.00000   0.00001   0.00001   0.00005
    D8       -2.10894  -0.00065   0.00325  -0.00724  -0.00391  -2.11285
    D9        2.10902   0.00065  -0.00326   0.00725   0.00391   2.11294
   D10        0.00007   0.00000  -0.00002  -0.00003  -0.00004   0.00003
   D11       -3.14154   0.00000   0.00000  -0.00003  -0.00002  -3.14156
   D12       -2.07811  -0.00017  -0.00108   0.00175   0.00054  -2.07756
   D13        1.06347  -0.00017  -0.00106   0.00174   0.00056   1.06404
   D14        2.07824   0.00017   0.00106  -0.00180  -0.00061   2.07762
   D15       -1.06337   0.00017   0.00108  -0.00180  -0.00060  -1.06397
   D16       -0.00006   0.00000   0.00001   0.00001   0.00002  -0.00005
   D17        2.10894   0.00065  -0.00324   0.00723   0.00391   2.11285
   D18       -2.10907  -0.00065   0.00324  -0.00721  -0.00389  -2.11296
   D19       -0.00005   0.00000   0.00002   0.00003   0.00005   0.00000
   D20        3.14155   0.00000   0.00000   0.00003   0.00003   3.14158
   D21        3.14156   0.00000   0.00000   0.00004   0.00003   3.14159
   D22       -0.00003   0.00000  -0.00002   0.00003   0.00001  -0.00002
         Item               Value     Threshold  Converged?
 Maximum Force            0.007232     0.000002     NO 
 RMS     Force            0.002011     0.000001     NO 
 Maximum Displacement     0.025553     0.000006     NO 
 RMS     Displacement     0.009137     0.000004     NO 
 Predicted change in Energy=-2.855560D-04
 GradGradGradGradGradGradGradGradGradGradGradGradGradGradGradGradGradGrad

                          Input orientation:                          
 ---------------------------------------------------------------------
 Center     Atomic      Atomic             Coordinates (Angstroms)
 Number     Number       Type             X           Y           Z
 ---------------------------------------------------------------------
      1          6           0        1.133492   -0.571448    0.128595
      2          6           0       -1.191556   -0.452993   -0.053495
      3          6           0       -0.607849    0.927465   -0.117049
      4          6           0        0.709196    0.860372   -0.013900
      5          8           0       -0.074636   -1.316637    0.096527
      6          1           0        1.786590   -0.898783   -0.686100
      7          1           0        1.655961   -0.762634    1.070871
      8          1           0       -1.739911   -0.719109   -0.962285
      9          1           0       -1.870630   -0.582969    0.794665
     10          1           0       -1.197859    1.824468   -0.230428
     11          1           0        1.397202    1.692268   -0.027203
 ---------------------------------------------------------------------
                    Distance matrix (angstroms):
                    1          2          3          4          5
     1  C    0.000000
     2  C    2.335173   0.000000
     3  C    2.310704   1.500139   0.000000
     4  C    1.500147   2.310704   1.322781   0.000000
     5  O    1.419826   1.419823   2.316447   2.316453   0.000000
     6  H    1.094264   3.077055   3.064693   2.169621   2.061860
     7  H    1.094262   3.077081   3.064706   2.169617   2.061851
     8  H    3.077055   1.094263   2.169606   3.064689   2.061860
     9  H    3.077097   1.094262   2.169619   3.064720   2.061858
    10  H    3.362218   2.284333   1.079621   2.147842   3.351876
    11  H    2.284344   3.362217   2.147842   1.079620   3.351883
                    6          7          8          9         10
     6  H    0.000000
     7  H    1.767073   0.000000
     8  H    3.541860   3.958227   0.000000
     9  H    3.958239   3.541950   1.767058   0.000000
    10  H    4.065793   4.065804   2.701706   2.701701   0.000000
    11  H    2.701724   2.701715   4.065783   4.065820   2.606362
                   11
    11  H    0.000000
 Stoichiometry    C4H6O
 Framework group  C1[X(C4H6O)]
 Deg. of freedom    27
 Full point group                 C1      NOp   1
 Largest Abelian subgroup         C1      NOp   1
 Largest concise Abelian subgroup C1      NOp   1
                         Standard orientation:                         
 ---------------------------------------------------------------------
 Center     Atomic      Atomic             Coordinates (Angstroms)
 Number     Number       Type             X           Y           Z
 ---------------------------------------------------------------------
      1          6           0       -1.167587   -0.371718    0.000011
      2          6           0        1.167586   -0.371709    0.000010
      3          6           0        0.661387    1.040446   -0.000004
      4          6           0       -0.661394    1.040447   -0.000006
      5          8           0        0.000005   -1.179577   -0.000020
      6          1           0       -1.770929   -0.601351    0.883560
      7          1           0       -1.770964   -0.601354   -0.883513
      8          1           0        1.770930   -0.601327    0.883561
      9          1           0        1.770986   -0.601345   -0.883498
     10          1           0        1.303177    1.908596   -0.000015
     11          1           0       -1.303184    1.908598   -0.000005
 ---------------------------------------------------------------------
 Rotational constants (GHZ):      8.0951233      7.9622888      4.2253042
 Standard basis: 6-311+G(2df,2p) (5D, 7F)
 There are   224 symmetry adapted basis functions of A   symmetry.
 Integral buffers will be    131072 words long.
 Raffenetti 2 integral format.
 Two-electron integral symmetry is turned on.
   224 basis functions,   326 primitive gaussians,   249 cartesian basis functions
    19 alpha electrons       19 beta electrons
       nuclear repulsion energy       174.8062449585 Hartrees.
 NAtoms=   11 NActive=   11 NUniq=   11 SFac= 1.00D+00 NAtFMM=   50 NAOKFM=F Big=F
 One-electron integrals computed using PRISM.
 NBasis=   224 RedAO= T  NBF=   224
 NBsUse=   224 1.00D-06 NBFU=   224
 Initial guess read from the read-write file.
 B after Tr=     0.000000    0.000000    0.000000
         Rot=    1.000000    0.000000    0.000000    0.000000 Ang=   0.00 deg.
 Initial guess orbital symmetries:
       Occupied  (A) (A) (A) (A) (A) (A) (A) (A) (A) (A) (A) (A)
                 (A) (A) (A) (A) (A) (A) (A)
       Virtual   (A) (A) (A) (A) (A) (A) (A) (A) (A) (A) (A) (A)
                 (A) (A) (A) (A) (A) (A) (A) (A) (A) (A) (A) (A)
                 (A) (A) (A) (A) (A) (A) (A) (A) (A) (A) (A) (A)
                 (A) (A) (A) (A) (A) (A) (A) (A) (A) (A) (A) (A)
                 (A) (A) (A) (A) (A) (A) (A) (A) (A) (A) (A) (A)
                 (A) (A) (A) (A) (A) (A) (A) (A) (A) (A) (A) (A)
                 (A) (A) (A) (A) (A) (A) (A) (A) (A) (A) (A) (A)
                 (A) (A) (A) (A) (A) (A) (A) (A) (A) (A) (A) (A)
                 (A) (A) (A) (A) (A) (A) (A) (A) (A) (A) (A) (A)
                 (A) (A) (A) (A) (A) (A) (A) (A) (A) (A) (A) (A)
                 (A) (A) (A) (A) (A) (A) (A) (A) (A) (A) (A) (A)
                 (A) (A) (A) (A) (A) (A) (A) (A) (A) (A) (A) (A)
                 (A) (A) (A) (A) (A) (A) (A) (A) (A) (A) (A) (A)
                 (A) (A) (A) (A) (A) (A) (A) (A) (A) (A) (A) (A)
                 (A) (A) (A) (A) (A) (A) (A) (A) (A) (A) (A) (A)
                 (A) (A) (A) (A) (A) (A) (A) (A) (A) (A) (A) (A)
                 (A) (A) (A) (A) (A) (A) (A) (A) (A) (A) (A) (A)
                 (A)
 Harris functional with IExCor= 1009 diagonalized for initial guess.
 ExpMin= 4.38D-02 ExpMax= 8.59D+03 ExpMxC= 1.30D+03 IAcc=2 IRadAn=         0 AccDes= 0.00D+00
 HarFok:  IExCor= 1009 AccDes= 0.00D+00 IRadAn=         0 IDoV= 1
 ScaDFX=  1.000000  1.000000  1.000000  1.000000
 FoFCou: FMM=F IPFlag=           0 FMFlag=      100000 FMFlg1=           0
         NFxFlg=           0 DoJE=T BraDBF=F KetDBF=T FulRan=T
         Omega=  0.000000  0.000000  1.000000  0.000000  0.000000 ICntrl=     500 IOpCl=  0
         NMat0=    1 NMatS0=    1 NMatT0=    0 NMatD0=    1 NMtDS0=    0 NMtDT0=    0
         I1Cent=           4 NGrid=           0.
 Petite list used in FoFCou.
 Requested convergence on RMS density matrix=1.00D-08 within 128 cycles.
 Requested convergence on MAX density matrix=1.00D-06.
 Requested convergence on             energy=1.00D-06.
 No special actions if energy rises.
 Keep R1 ints in memory in canonical form, NReq=492516052.
 SCF Done:  E(RM062X) =  -231.194388865     A.U. after    8 cycles
             Convg  =    0.4880D-08             -V/T =  2.0038
 Calling FoFJK, ICntrl=      2127 FMM=F ISym2X=0 I1Cent= 0 IOpClX= 0 NMat=1 NMatS=1 NMatT=0.
 ***** Axes restored to original set *****
 -------------------------------------------------------------------
 Center     Atomic                   Forces (Hartrees/Bohr)
 Number     Number              X              Y              Z
 -------------------------------------------------------------------
      1        6           0.000247704   -0.000463137    0.000055435
      2        6          -0.000301973   -0.000437268    0.000010560
      3        6           0.001562618   -0.000280944    0.000139428
      4        6          -0.001585484   -0.000125367   -0.000109546
      5        8           0.000022186    0.000379681   -0.000027893
      6        1           0.000246500    0.000322462   -0.000351348
      7        1           0.000196603    0.000374812    0.000330280
      8        1          -0.000154928    0.000342030   -0.000384481
      9        1          -0.000204775    0.000395631    0.000300425
     10        1          -0.000383325   -0.000235095   -0.000010699
     11        1           0.000354874   -0.000272804    0.000047838
 -------------------------------------------------------------------
 Cartesian Forces:  Max     0.001585484 RMS     0.000471856

 GradGradGradGradGradGradGradGradGradGradGradGradGradGradGradGradGradGrad
 Berny optimization.
 Using GDIIS optimizer.
 Internal  Forces:  Max     0.000997295 RMS     0.000305512
 Search for a local minimum.
 Step number   3 out of a maximum of   62
 All quantities printed in internal units (Hartrees-Bohrs-Radians)
 Swaping is turned off.
 Update second derivatives using D2CorX and points    1    2    3
 DE= -2.66D-04 DEPred=-2.86D-04 R= 9.31D-01
 SS=  1.41D+00  RLast= 4.28D-02 DXNew= 8.4853D-01 1.2836D-01
 Trust test= 9.31D-01 RLast= 4.28D-02 DXMaxT set to 5.05D-01
 ITU=  1  1  0
     Eigenvalues ---    0.01285   0.01572   0.01834   0.02239   0.05684
     Eigenvalues ---    0.06504   0.07582   0.07684   0.10986   0.11280
     Eigenvalues ---    0.11573   0.11787   0.15252   0.16000   0.21983
     Eigenvalues ---    0.29721   0.32479   0.32555   0.32561   0.32565
     Eigenvalues ---    0.32626   0.34291   0.35386   0.35453   0.41725
     Eigenvalues ---    0.42332   0.63746
 DIIS coeff's:      0.85084      0.12030      0.02885
 Cosine:  0.999 >  0.840
 Length:  0.949
 GDIIS step was calculated using  3 of the last  3 vectors.
 Iteration  1 RMS(Cart)=  0.00205399 RMS(Int)=  0.00001142
 Iteration  2 RMS(Cart)=  0.00000354 RMS(Int)=  0.00001089
 Iteration  3 RMS(Cart)=  0.00000000 RMS(Int)=  0.00001089
 Variable       Old X    -DE/DX   Delta X   Delta X   Delta X     New X
                                  (DIIS)     (GDIIS)  (Total)
    R1        2.83487  -0.00036  -0.00187   0.00096  -0.00091   2.83396
    R2        2.68308   0.00027   0.00014   0.00044   0.00057   2.68366
    R3        2.06786   0.00031   0.00123  -0.00042   0.00081   2.06867
    R4        2.06786   0.00031   0.00123  -0.00042   0.00081   2.06867
    R5        2.83485  -0.00036  -0.00187   0.00097  -0.00090   2.83395
    R6        2.68308   0.00028   0.00014   0.00044   0.00058   2.68365
    R7        2.06786   0.00031   0.00124  -0.00043   0.00081   2.06867
    R8        2.06786   0.00031   0.00124  -0.00043   0.00081   2.06867
    R9        2.49969  -0.00100  -0.00001  -0.00169  -0.00169   2.49800
   R10        2.04019   0.00002   0.00028  -0.00022   0.00006   2.04025
   R11        2.04019   0.00002   0.00028  -0.00022   0.00006   2.04025
    A1        1.83188  -0.00040  -0.00083  -0.00007  -0.00091   1.83097
    A2        1.96449  -0.00027  -0.00114  -0.00149  -0.00263   1.96186
    A3        1.96448  -0.00027  -0.00114  -0.00149  -0.00262   1.96186
    A4        1.91137   0.00040   0.00120   0.00120   0.00238   1.91376
    A5        1.91136   0.00040   0.00121   0.00120   0.00239   1.91375
    A6        1.87955   0.00018   0.00079   0.00077   0.00159   1.88114
    A7        1.83189  -0.00040  -0.00082  -0.00007  -0.00091   1.83098
    A8        1.96448  -0.00027  -0.00114  -0.00149  -0.00262   1.96186
    A9        1.96450  -0.00027  -0.00114  -0.00150  -0.00263   1.96187
   A10        1.91138   0.00040   0.00120   0.00120   0.00238   1.91376
   A11        1.91138   0.00040   0.00120   0.00119   0.00238   1.91375
   A12        1.87953   0.00018   0.00078   0.00079   0.00160   1.88113
   A13        1.91499   0.00035   0.00047   0.00023   0.00071   1.91570
   A14        2.16081  -0.00063   0.00088  -0.00365  -0.00277   2.15804
   A15        2.20739   0.00028  -0.00135   0.00341   0.00206   2.20945
   A16        1.91498   0.00035   0.00047   0.00024   0.00072   1.91570
   A17        2.16082  -0.00063   0.00088  -0.00365  -0.00278   2.15804
   A18        2.20739   0.00028  -0.00135   0.00342   0.00206   2.20945
   A19        1.93104   0.00011   0.00072  -0.00033   0.00038   1.93142
    D1       -0.00003   0.00000   0.00000   0.00000   0.00001  -0.00003
    D2        3.14158   0.00000   0.00000   0.00000   0.00000   3.14157
    D3        2.07756   0.00008   0.00029   0.00061   0.00091   2.07847
    D4       -1.06402   0.00008   0.00029   0.00060   0.00091  -1.06312
    D5       -2.07760  -0.00008  -0.00029  -0.00061  -0.00091  -2.07851
    D6        1.06401  -0.00008  -0.00029  -0.00061  -0.00092   1.06309
    D7        0.00005   0.00000   0.00000   0.00000   0.00000   0.00004
    D8       -2.11285   0.00034   0.00120   0.00118   0.00238  -2.11047
    D9        2.11294  -0.00034  -0.00121  -0.00117  -0.00238   2.11056
   D10        0.00003   0.00000   0.00000   0.00000   0.00000   0.00003
   D11       -3.14156   0.00000   0.00000  -0.00001   0.00000  -3.14157
   D12       -2.07756  -0.00008  -0.00029  -0.00060  -0.00091  -2.07847
   D13        1.06404  -0.00008  -0.00029  -0.00061  -0.00091   1.06312
   D14        2.07762   0.00008   0.00029   0.00059   0.00090   2.07852
   D15       -1.06397   0.00008   0.00029   0.00058   0.00089  -1.06307
   D16       -0.00005   0.00000   0.00000   0.00000   0.00000  -0.00005
   D17        2.11285  -0.00034  -0.00120  -0.00117  -0.00238   2.11047
   D18       -2.11296   0.00034   0.00120   0.00119   0.00239  -2.11057
   D19        0.00000   0.00000   0.00000   0.00000  -0.00001   0.00000
   D20        3.14158   0.00000   0.00000   0.00001   0.00000   3.14158
   D21        3.14159   0.00000  -0.00001   0.00001   0.00000   3.14159
   D22       -0.00002   0.00000   0.00000   0.00001   0.00001  -0.00001
         Item               Value     Threshold  Converged?
 Maximum Force            0.000997     0.000002     NO 
 RMS     Force            0.000306     0.000001     NO 
 Maximum Displacement     0.005367     0.000006     NO 
 RMS     Displacement     0.002054     0.000004     NO 
 Predicted change in Energy=-1.086632D-05
 GradGradGradGradGradGradGradGradGradGradGradGradGradGradGradGradGradGrad

                          Input orientation:                          
 ---------------------------------------------------------------------
 Center     Atomic      Atomic             Coordinates (Angstroms)
 Number     Number       Type             X           Y           Z
 ---------------------------------------------------------------------
      1          6           0        1.133854   -0.572137    0.128677
      2          6           0       -1.191998   -0.453642   -0.053479
      3          6           0       -0.607489    0.925967   -0.116905
      4          6           0        0.708665    0.858915   -0.013828
      5          8           0       -0.074672   -1.317256    0.096571
      6          1           0        1.787962   -0.896293   -0.687052
      7          1           0        1.657208   -0.760015    1.071625
      8          1           0       -1.740862   -0.716507   -0.963425
      9          1           0       -1.871700   -0.580233    0.795242
     10          1           0       -1.199366    1.821773   -0.230333
     11          1           0        1.398397    1.689428   -0.026892
 ---------------------------------------------------------------------
                    Distance matrix (angstroms):
                    1          2          3          4          5
     1  C    0.000000
     2  C    2.335981   0.000000
     3  C    2.310173   1.499664   0.000000
     4  C    1.499667   2.310173   1.321886   0.000000
     5  O    1.420130   1.420127   2.315494   2.315497   0.000000
     6  H    1.094691   3.078557   3.063312   2.167687   2.064141
     7  H    1.094691   3.078587   3.063330   2.167689   2.064136
     8  H    3.078559   1.094693   2.167684   3.063311   2.064142
     9  H    3.078592   1.094691   2.167690   3.063336   2.064135
    10  H    3.362084   2.282289   1.079654   2.148152   3.350419
    11  H    2.282293   3.362083   2.148151   1.079654   3.350422
                    6          7          8          9         10
     6  H    0.000000
     7  H    1.768788   0.000000
     8  H    3.544193   3.961086   0.000000
     9  H    3.961087   3.544277   1.768785   0.000000
    10  H    4.064555   4.064571   2.696944   2.696937   0.000000
    11  H    2.696948   2.696941   4.064550   4.064579   2.609077
                   11
    11  H    0.000000
 Stoichiometry    C4H6O
 Framework group  C1[X(C4H6O)]
 Deg. of freedom    27
 Full point group                 C1      NOp   1
 Largest Abelian subgroup         C1      NOp   1
 Largest concise Abelian subgroup C1      NOp   1
                         Standard orientation:                         
 ---------------------------------------------------------------------
 Center     Atomic      Atomic             Coordinates (Angstroms)
 Number     Number       Type             X           Y           Z
 ---------------------------------------------------------------------
      1          6           0       -1.167990   -0.371706    0.000009
      2          6           0        1.167991   -0.371699    0.000011
      3          6           0        0.660940    1.039645   -0.000005
      4          6           0       -0.660946    1.039643   -0.000004
      5          8           0        0.000004   -1.179517   -0.000019
      6          1           0       -1.772095   -0.598042    0.884418
      7          1           0       -1.772134   -0.598048   -0.884370
      8          1           0        1.772098   -0.598027    0.884421
      9          1           0        1.772143   -0.598042   -0.884364
     10          1           0        1.304534    1.906501   -0.000014
     11          1           0       -1.304542    1.906498   -0.000004
 ---------------------------------------------------------------------
 Rotational constants (GHZ):      8.0901544      7.9709330      4.2268151
 Standard basis: 6-311+G(2df,2p) (5D, 7F)
 There are   224 symmetry adapted basis functions of A   symmetry.
 Integral buffers will be    131072 words long.
 Raffenetti 2 integral format.
 Two-electron integral symmetry is turned on.
   224 basis functions,   326 primitive gaussians,   249 cartesian basis functions
    19 alpha electrons       19 beta electrons
       nuclear repulsion energy       174.8212917902 Hartrees.
 NAtoms=   11 NActive=   11 NUniq=   11 SFac= 1.00D+00 NAtFMM=   50 NAOKFM=F Big=F
 One-electron integrals computed using PRISM.
 NBasis=   224 RedAO= T  NBF=   224
 NBsUse=   224 1.00D-06 NBFU=   224
 Initial guess read from the read-write file.
 B after Tr=     0.000000    0.000000    0.000000
         Rot=    1.000000    0.000000    0.000000    0.000000 Ang=   0.00 deg.
 Initial guess orbital symmetries:
       Occupied  (A) (A) (A) (A) (A) (A) (A) (A) (A) (A) (A) (A)
                 (A) (A) (A) (A) (A) (A) (A)
       Virtual   (A) (A) (A) (A) (A) (A) (A) (A) (A) (A) (A) (A)
                 (A) (A) (A) (A) (A) (A) (A) (A) (A) (A) (A) (A)
                 (A) (A) (A) (A) (A) (A) (A) (A) (A) (A) (A) (A)
                 (A) (A) (A) (A) (A) (A) (A) (A) (A) (A) (A) (A)
                 (A) (A) (A) (A) (A) (A) (A) (A) (A) (A) (A) (A)
                 (A) (A) (A) (A) (A) (A) (A) (A) (A) (A) (A) (A)
                 (A) (A) (A) (A) (A) (A) (A) (A) (A) (A) (A) (A)
                 (A) (A) (A) (A) (A) (A) (A) (A) (A) (A) (A) (A)
                 (A) (A) (A) (A) (A) (A) (A) (A) (A) (A) (A) (A)
                 (A) (A) (A) (A) (A) (A) (A) (A) (A) (A) (A) (A)
                 (A) (A) (A) (A) (A) (A) (A) (A) (A) (A) (A) (A)
                 (A) (A) (A) (A) (A) (A) (A) (A) (A) (A) (A) (A)
                 (A) (A) (A) (A) (A) (A) (A) (A) (A) (A) (A) (A)
                 (A) (A) (A) (A) (A) (A) (A) (A) (A) (A) (A) (A)
                 (A) (A) (A) (A) (A) (A) (A) (A) (A) (A) (A) (A)
                 (A) (A) (A) (A) (A) (A) (A) (A) (A) (A) (A) (A)
                 (A) (A) (A) (A) (A) (A) (A) (A) (A) (A) (A) (A)
                 (A)
 Requested convergence on RMS density matrix=1.00D-08 within 128 cycles.
 Requested convergence on MAX density matrix=1.00D-06.
 Requested convergence on             energy=1.00D-06.
 No special actions if energy rises.
 Keep R1 ints in memory in canonical form, NReq=492516052.
 SCF Done:  E(RM062X) =  -231.194401021     A.U. after    7 cycles
             Convg  =    0.5190D-08             -V/T =  2.0038
 Calling FoFJK, ICntrl=      2127 FMM=F ISym2X=0 I1Cent= 0 IOpClX= 0 NMat=1 NMatS=1 NMatT=0.
 ***** Axes restored to original set *****
 -------------------------------------------------------------------
 Center     Atomic                   Forces (Hartrees/Bohr)
 Number     Number              X              Y              Z
 -------------------------------------------------------------------
      1        6           0.000124774   -0.000171127    0.000022744
      2        6          -0.000145668   -0.000158511    0.000001335
      3        6           0.000556967    0.000142203    0.000030713
      4        6          -0.000537803    0.000196125   -0.000055447
      5        8           0.000007323    0.000113639   -0.000008452
      6        1          -0.000009992    0.000030610   -0.000045468
      7        1          -0.000016266    0.000037025    0.000038148
      8        1           0.000020567    0.000029135   -0.000042904
      9        1           0.000014320    0.000035816    0.000040711
     10        1          -0.000205896   -0.000117383   -0.000006480
     11        1           0.000191674   -0.000137532    0.000025100
 -------------------------------------------------------------------
 Cartesian Forces:  Max     0.000556967 RMS     0.000164396

 GradGradGradGradGradGradGradGradGradGradGradGradGradGradGradGradGradGrad
 Berny optimization.
 Using GDIIS optimizer.
 Internal  Forces:  Max     0.000252852 RMS     0.000078771
 Search for a local minimum.
 Step number   4 out of a maximum of   62
 All quantities printed in internal units (Hartrees-Bohrs-Radians)
 Swaping is turned off.
 Update second derivatives using D2CorX and points    1    2    3    4
 DE= -1.22D-05 DEPred=-1.09D-05 R= 1.12D+00
 SS=  1.41D+00  RLast= 1.09D-02 DXNew= 8.4853D-01 3.2738D-02
 Trust test= 1.12D+00 RLast= 1.09D-02 DXMaxT set to 5.05D-01
 ITU=  1  1  1  0
     Eigenvalues ---    0.01285   0.01572   0.01837   0.02243   0.05693
     Eigenvalues ---    0.06518   0.07685   0.07710   0.10298   0.10977
     Eigenvalues ---    0.11255   0.11776   0.13690   0.16000   0.21984
     Eigenvalues ---    0.29493   0.32125   0.32483   0.32555   0.32561
     Eigenvalues ---    0.32565   0.34589   0.35386   0.35572   0.42333
     Eigenvalues ---    0.42578   0.63489
 DIIS coeff's:      1.46535     -0.38915     -0.06102     -0.01518
 Cosine:  0.998 >  0.710
 Length:  1.116
 GDIIS step was calculated using  4 of the last  4 vectors.
 Iteration  1 RMS(Cart)=  0.00091376 RMS(Int)=  0.00000649
 Iteration  2 RMS(Cart)=  0.00000108 RMS(Int)=  0.00000639
 Iteration  3 RMS(Cart)=  0.00000000 RMS(Int)=  0.00000639
 Variable       Old X    -DE/DX   Delta X   Delta X   Delta X     New X
                                  (DIIS)     (GDIIS)  (Total)
    R1        2.83396   0.00008   0.00055  -0.00011   0.00043   2.83439
    R2        2.68366  -0.00005   0.00020  -0.00035  -0.00015   2.68351
    R3        2.06867   0.00002  -0.00026   0.00030   0.00003   2.06870
    R4        2.06867   0.00002  -0.00027   0.00030   0.00003   2.06870
    R5        2.83395   0.00008   0.00055  -0.00012   0.00044   2.83439
    R6        2.68365  -0.00005   0.00020  -0.00035  -0.00015   2.68351
    R7        2.06867   0.00002  -0.00027   0.00030   0.00003   2.06870
    R8        2.06867   0.00002  -0.00027   0.00030   0.00003   2.06870
    R9        2.49800  -0.00023  -0.00077   0.00008  -0.00069   2.49731
   R10        2.04025   0.00002  -0.00012   0.00018   0.00006   2.04031
   R11        2.04025   0.00002  -0.00012   0.00018   0.00006   2.04031
    A1        1.83097  -0.00003  -0.00003  -0.00004  -0.00006   1.83091
    A2        1.96186  -0.00003  -0.00062   0.00014  -0.00048   1.96138
    A3        1.96186  -0.00003  -0.00062   0.00014  -0.00048   1.96138
    A4        1.91376   0.00002   0.00050  -0.00036   0.00015   1.91391
    A5        1.91375   0.00002   0.00050  -0.00036   0.00015   1.91390
    A6        1.88114   0.00004   0.00032   0.00042   0.00072   1.88186
    A7        1.83098  -0.00003  -0.00003  -0.00004  -0.00007   1.83091
    A8        1.96186  -0.00003  -0.00062   0.00014  -0.00048   1.96138
    A9        1.96187  -0.00003  -0.00062   0.00014  -0.00048   1.96138
   A10        1.91376   0.00002   0.00050  -0.00036   0.00014   1.91391
   A11        1.91375   0.00002   0.00049  -0.00036   0.00015   1.91390
   A12        1.88113   0.00004   0.00033   0.00042   0.00073   1.88186
   A13        1.91570   0.00002   0.00010  -0.00005   0.00004   1.91574
   A14        2.15804  -0.00025  -0.00176  -0.00067  -0.00242   2.15561
   A15        2.20945   0.00023   0.00166   0.00072   0.00238   2.21183
   A16        1.91570   0.00002   0.00010  -0.00005   0.00004   1.91574
   A17        2.15804  -0.00025  -0.00176  -0.00067  -0.00243   2.15561
   A18        2.20945   0.00023   0.00166   0.00072   0.00238   2.21183
   A19        1.93142   0.00002  -0.00015   0.00019   0.00005   1.93147
    D1       -0.00003   0.00000   0.00000   0.00000   0.00000  -0.00003
    D2        3.14157   0.00000   0.00000   0.00000   0.00000   3.14157
    D3        2.07847  -0.00001   0.00027  -0.00038  -0.00012   2.07835
    D4       -1.06312  -0.00001   0.00027  -0.00038  -0.00012  -1.06324
    D5       -2.07851   0.00001  -0.00027   0.00038   0.00012  -2.07840
    D6        1.06309   0.00001  -0.00028   0.00038   0.00012   1.06320
    D7        0.00004   0.00000   0.00000   0.00000   0.00000   0.00004
    D8       -2.11047   0.00004   0.00048   0.00004   0.00053  -2.10995
    D9        2.11056  -0.00004  -0.00048  -0.00005  -0.00053   2.11003
   D10        0.00003   0.00000   0.00000  -0.00001  -0.00001   0.00002
   D11       -3.14157   0.00000   0.00000   0.00000  -0.00001  -3.14157
   D12       -2.07847   0.00001  -0.00027   0.00038   0.00012  -2.07835
   D13        1.06312   0.00001  -0.00028   0.00038   0.00012   1.06324
   D14        2.07852  -0.00001   0.00027  -0.00039  -0.00013   2.07839
   D15       -1.06307  -0.00001   0.00026  -0.00038  -0.00013  -1.06320
   D16       -0.00005   0.00000   0.00000   0.00000   0.00001  -0.00004
   D17        2.11047  -0.00004  -0.00048  -0.00004  -0.00053   2.10994
   D18       -2.11057   0.00004   0.00049   0.00005   0.00054  -2.11003
   D19        0.00000   0.00000   0.00000   0.00001   0.00000   0.00000
   D20        3.14158   0.00000   0.00000   0.00000   0.00001   3.14159
   D21        3.14159   0.00000   0.00000   0.00000   0.00001  -3.14159
   D22       -0.00001   0.00000   0.00001   0.00000   0.00001   0.00000
         Item               Value     Threshold  Converged?
 Maximum Force            0.000253     0.000002     NO 
 RMS     Force            0.000079     0.000001     NO 
 Maximum Displacement     0.003712     0.000006     NO 
 RMS     Displacement     0.000914     0.000004     NO 
 Predicted change in Energy=-1.231709D-06
 GradGradGradGradGradGradGradGradGradGradGradGradGradGradGradGradGradGrad

                          Input orientation:                          
 ---------------------------------------------------------------------
 Center     Atomic      Atomic             Coordinates (Angstroms)
 Number     Number       Type             X           Y           Z
 ---------------------------------------------------------------------
      1          6           0        1.133808   -0.572110    0.128672
      2          6           0       -1.191952   -0.453620   -0.053477
      3          6           0       -0.607295    0.926177   -0.116909
      4          6           0        0.708495    0.859142   -0.013857
      5          8           0       -0.074666   -1.317160    0.096561
      6          1           0        1.787810   -0.895801   -0.687352
      7          1           0        1.657018   -0.759489    1.071819
      8          1           0       -1.740618   -0.716040   -0.963691
      9          1           0       -1.871486   -0.579724    0.795473
     10          1           0       -1.201331    1.820583   -0.230394
     11          1           0        1.400217    1.688043   -0.026644
 ---------------------------------------------------------------------
                    Distance matrix (angstroms):
                    1          2          3          4          5
     1  C    0.000000
     2  C    2.335889   0.000000
     3  C    2.310111   1.499896   0.000000
     4  C    1.499896   2.310111   1.321520   0.000000
     5  O    1.420050   1.420050   2.315562   2.315562   0.000000
     6  H    1.094709   3.078360   3.062930   2.167566   2.064189
     7  H    1.094708   3.078389   3.062949   2.167569   2.064184
     8  H    3.078359   1.094709   2.167565   3.062929   2.064189
     9  H    3.078389   1.094708   2.167570   3.062948   2.064184
    10  H    3.362556   2.281094   1.079685   2.149114   3.349882
    11  H    2.281093   3.362556   2.149114   1.079685   3.349881
                    6          7          8          9         10
     6  H    0.000000
     7  H    1.769284   0.000000
     8  H    3.543794   3.960949   0.000000
     9  H    3.960950   3.543872   1.769285   0.000000
    10  H    4.064790   4.064811   2.694998   2.694993   0.000000
    11  H    2.694998   2.694992   4.064790   4.064810   2.612878
                   11
    11  H    0.000000
 Stoichiometry    C4H6O
 Framework group  C1[X(C4H6O)]
 Deg. of freedom    27
 Full point group                 C1      NOp   1
 Largest Abelian subgroup         C1      NOp   1
 Largest concise Abelian subgroup C1      NOp   1
                         Standard orientation:                         
 ---------------------------------------------------------------------
 Center     Atomic      Atomic             Coordinates (Angstroms)
 Number     Number       Type             X           Y           Z
 ---------------------------------------------------------------------
      1          6           0       -1.167945   -0.371759    0.000009
      2          6           0        1.167944   -0.371762    0.000009
      3          6           0        0.660761    1.039781   -0.000004
      4          6           0       -0.660759    1.039782   -0.000005
      5          8           0       -0.000001   -1.179502   -0.000018
      6          1           0       -1.771898   -0.597615    0.884667
      7          1           0       -1.771937   -0.597624   -0.884618
      8          1           0        1.771896   -0.597618    0.884666
      9          1           0        1.771935   -0.597628   -0.884619
     10          1           0        1.306441    1.905123   -0.000007
     11          1           0       -1.306437    1.905126   -0.000009
 ---------------------------------------------------------------------
 Rotational constants (GHZ):      8.0900857      7.9713599      4.2270419
 Standard basis: 6-311+G(2df,2p) (5D, 7F)
 There are   224 symmetry adapted basis functions of A   symmetry.
 Integral buffers will be    131072 words long.
 Raffenetti 2 integral format.
 Two-electron integral symmetry is turned on.
   224 basis functions,   326 primitive gaussians,   249 cartesian basis functions
    19 alpha electrons       19 beta electrons
       nuclear repulsion energy       174.8244601548 Hartrees.
 NAtoms=   11 NActive=   11 NUniq=   11 SFac= 1.00D+00 NAtFMM=   50 NAOKFM=F Big=F
 One-electron integrals computed using PRISM.
 NBasis=   224 RedAO= T  NBF=   224
 NBsUse=   224 1.00D-06 NBFU=   224
 Initial guess read from the read-write file.
 B after Tr=     0.000000    0.000000    0.000000
         Rot=    1.000000    0.000000    0.000000    0.000000 Ang=   0.00 deg.
 Initial guess orbital symmetries:
       Occupied  (A) (A) (A) (A) (A) (A) (A) (A) (A) (A) (A) (A)
                 (A) (A) (A) (A) (A) (A) (A)
       Virtual   (A) (A) (A) (A) (A) (A) (A) (A) (A) (A) (A) (A)
                 (A) (A) (A) (A) (A) (A) (A) (A) (A) (A) (A) (A)
                 (A) (A) (A) (A) (A) (A) (A) (A) (A) (A) (A) (A)
                 (A) (A) (A) (A) (A) (A) (A) (A) (A) (A) (A) (A)
                 (A) (A) (A) (A) (A) (A) (A) (A) (A) (A) (A) (A)
                 (A) (A) (A) (A) (A) (A) (A) (A) (A) (A) (A) (A)
                 (A) (A) (A) (A) (A) (A) (A) (A) (A) (A) (A) (A)
                 (A) (A) (A) (A) (A) (A) (A) (A) (A) (A) (A) (A)
                 (A) (A) (A) (A) (A) (A) (A) (A) (A) (A) (A) (A)
                 (A) (A) (A) (A) (A) (A) (A) (A) (A) (A) (A) (A)
                 (A) (A) (A) (A) (A) (A) (A) (A) (A) (A) (A) (A)
                 (A) (A) (A) (A) (A) (A) (A) (A) (A) (A) (A) (A)
                 (A) (A) (A) (A) (A) (A) (A) (A) (A) (A) (A) (A)
                 (A) (A) (A) (A) (A) (A) (A) (A) (A) (A) (A) (A)
                 (A) (A) (A) (A) (A) (A) (A) (A) (A) (A) (A) (A)
                 (A) (A) (A) (A) (A) (A) (A) (A) (A) (A) (A) (A)
                 (A) (A) (A) (A) (A) (A) (A) (A) (A) (A) (A) (A)
                 (A)
 Requested convergence on RMS density matrix=1.00D-08 within 128 cycles.
 Requested convergence on MAX density matrix=1.00D-06.
[...]
     8   1    -0.27   0.11  -0.40     0.00   0.00   0.00     0.01  -0.01   0.01
     9   1     0.27  -0.11  -0.40     0.00   0.00   0.00     0.01  -0.01  -0.01
    10   1     0.00   0.00   0.00    -0.42  -0.57   0.00     0.42   0.56   0.00
    11   1     0.00   0.00   0.00    -0.42   0.57   0.00    -0.42   0.56   0.00

 -------------------
 - Thermochemistry -
 -------------------
 Temperature   298.150 Kelvin.  Pressure   1.00000 Atm.
 Atom     1 has atomic number  6 and mass  12.00000
 Atom     2 has atomic number  6 and mass  12.00000
 Atom     3 has atomic number  6 and mass  12.00000
 Atom     4 has atomic number  6 and mass  12.00000
 Atom     5 has atomic number  8 and mass  15.99491
 Atom     6 has atomic number  1 and mass   1.00783
 Atom     7 has atomic number  1 and mass   1.00783
 Atom     8 has atomic number  1 and mass   1.00783
 Atom     9 has atomic number  1 and mass   1.00783
 Atom    10 has atomic number  1 and mass   1.00783
 Atom    11 has atomic number  1 and mass   1.00783
 Molecular mass:    70.04186 amu.
 Principal axes and moments of inertia in atomic units:
                           1         2         3
     Eigenvalues --   223.08552 226.41211 426.96698
           X            0.00000   1.00000   0.00000
           Y            1.00000   0.00000   0.00000
           Z            0.00000   0.00000   1.00000
 This molecule is an asymmetric top.
 Rotational symmetry number  1.
 Rotational temperatures (Kelvin)      0.38825     0.38255     0.20286
 Rotational constants (GHZ):           8.08991     7.97105     4.22689
 Zero-point vibrational energy     245916.9 (Joules/Mol)
                                   58.77555 (Kcal/Mol)
 Warning -- explicit consideration of   2 degrees of freedom as
           vibrations may cause significant error
 Vibrational temperatures:    149.70   583.34  1009.12  1097.15  1181.16
          (Kelvin)           1340.91  1371.57  1416.96  1444.36  1493.89
                             1545.46  1613.53  1684.18  1734.15  1789.97
                             1924.11  1995.65  2024.81  2191.64  2205.84
                             2454.55  4376.95  4382.08  4412.13  4414.68
                             4641.86  4674.21
 
 Zero-point correction=                           0.093665 (Hartree/Particle)
 Thermal correction to Energy=                    0.098137
 Thermal correction to Enthalpy=                  0.099081
 Thermal correction to Gibbs Free Energy=         0.066233
 Sum of electronic and zero-point Energies=           -231.100738
 Sum of electronic and thermal Energies=              -231.096265
 Sum of electronic and thermal Enthalpies=            -231.095321
 Sum of electronic and thermal Free Energies=         -231.128169
 
                     E (Thermal)             CV                S
                      KCal/Mol        Cal/Mol-Kelvin    Cal/Mol-Kelvin
 Total                   61.582             15.203             69.134
 Electronic               0.000              0.000              0.000
 Translational            0.889              2.981             38.657
 Rotational               0.889              2.981             24.582
 Vibrational             59.805              9.241              5.896
 Vibration     1          0.605              1.946              3.377
 Vibration     2          0.770              1.458              0.943
                       Q            Log10(Q)             Ln(Q)
 Total Bot       0.342599D-30        -30.465214        -70.148748
 Total V=0       0.414490D+13         12.617514         29.052899
 Vib (Bot)       0.282856D-42        -42.548435        -97.971392
 Vib (Bot)    1  0.197084D+01          0.294652          0.678462
 Vib (Bot)    2  0.437850D+00         -0.358675         -0.825880
 Vib (V=0)       0.342210D+01          0.534293          1.230255
 Vib (V=0)    1  0.253328D+01          0.403683          0.929515
 Vib (V=0)    2  0.116461D+01          0.066182          0.152390
 Electronic      0.100000D+01          0.000000          0.000000
 Translational   0.230405D+08          7.362492         16.952764
 Rotational      0.525689D+05          4.720729         10.869880
 ***** Axes restored to original set *****
 -------------------------------------------------------------------
 Center     Atomic                   Forces (Hartrees/Bohr)
 Number     Number              X              Y              Z
 -------------------------------------------------------------------
      1        6           0.000000288   -0.000000337   -0.000000016
      2        6          -0.000000319   -0.000000285    0.000000086
      3        6          -0.000000124    0.000000204   -0.000000088
      4        6           0.000000133    0.000000200    0.000000082
      5        8           0.000000033    0.000000233   -0.000000134
      6        1          -0.000000013   -0.000000043   -0.000000028
      7        1          -0.000000062    0.000000032    0.000000072
      8        1           0.000000055   -0.000000028   -0.000000022
      9        1           0.000000011    0.000000017    0.000000083
     10        1           0.000000043    0.000000004   -0.000000022
     11        1          -0.000000045    0.000000005   -0.000000012
 -------------------------------------------------------------------
 Cartesian Forces:  Max     0.000000337 RMS     0.000000137

 GradGradGradGradGradGradGradGradGradGradGradGradGradGradGradGradGradGrad
 Berny optimization.
 Internal  Forces:  Max     0.000000248 RMS     0.000000078
 Search for a local minimum.
 Step number   1 out of a maximum of    2
 All quantities printed in internal units (Hartrees-Bohrs-Radians)
 Swaping is turned off.
 Second derivative matrix not updated -- analytic derivatives used.
 ITU=  0
     Eigenvalues ---    0.00099   0.01276   0.01322   0.01663   0.06080
     Eigenvalues ---    0.06329   0.06571   0.07000   0.09092   0.09489
     Eigenvalues ---    0.10243   0.10470   0.10506   0.10593   0.19573
     Eigenvalues ---    0.24513   0.27244   0.31459   0.32111   0.32556
     Eigenvalues ---    0.32629   0.33542   0.35748   0.36062   0.37007
     Eigenvalues ---    0.37584   0.60941
 Angle between quadratic step and forces=  80.34 degrees.
 Linear search not attempted -- option 19 set.
 Iteration  1 RMS(Cart)=  0.00000878 RMS(Int)=  0.00000000
 Iteration  2 RMS(Cart)=  0.00000000 RMS(Int)=  0.00000000
 Variable       Old X    -DE/DX   Delta X   Delta X   Delta X     New X
                                 (Linear)    (Quad)   (Total)
    R1        2.83452   0.00000   0.00000   0.00000   0.00000   2.83452
    R2        2.68345   0.00000   0.00000   0.00000   0.00000   2.68345
    R3        2.06871   0.00000   0.00000   0.00000   0.00000   2.06871
    R4        2.06871   0.00000   0.00000   0.00000   0.00000   2.06871
    R5        2.83452   0.00000   0.00000   0.00000   0.00000   2.83452
    R6        2.68345   0.00000   0.00000   0.00000   0.00000   2.68345
    R7        2.06871   0.00000   0.00000   0.00000   0.00000   2.06871
    R8        2.06871   0.00000   0.00000   0.00000   0.00000   2.06871
    R9        2.49739   0.00000   0.00000   0.00000   0.00000   2.49740
   R10        2.04029   0.00000   0.00000   0.00000   0.00000   2.04029
   R11        2.04029   0.00000   0.00000   0.00000   0.00000   2.04029
    A1        1.83094   0.00000   0.00000   0.00000   0.00000   1.83094
    A2        1.96139   0.00000   0.00000   0.00000   0.00000   1.96140
    A3        1.96140   0.00000   0.00000   0.00000   0.00000   1.96140
    A4        1.91394   0.00000   0.00000   0.00000   0.00000   1.91393
    A5        1.91393   0.00000   0.00000   0.00000   0.00000   1.91393
    A6        1.88175   0.00000   0.00000   0.00000   0.00000   1.88175
    A7        1.83094   0.00000   0.00000   0.00000   0.00000   1.83094
    A8        1.96139   0.00000   0.00000   0.00000   0.00000   1.96140
    A9        1.96140   0.00000   0.00000   0.00000   0.00000   1.96140
   A10        1.91394   0.00000   0.00000   0.00000   0.00000   1.91393
   A11        1.91393   0.00000   0.00000   0.00000   0.00000   1.91393
   A12        1.88175   0.00000   0.00000   0.00000   0.00000   1.88175
   A13        1.91570   0.00000   0.00000   0.00000   0.00000   1.91570
   A14        2.15540   0.00000   0.00000   0.00000   0.00000   2.15540
   A15        2.21209   0.00000   0.00000   0.00000   0.00000   2.21209
   A16        1.91570   0.00000   0.00000   0.00000   0.00000   1.91570
   A17        2.15540   0.00000   0.00000   0.00000   0.00000   2.15540
   A18        2.21209   0.00000   0.00000   0.00000   0.00000   2.21209
   A19        1.93149   0.00000   0.00000   0.00000   0.00000   1.93150
    D1       -0.00002   0.00000   0.00000   0.00001   0.00001  -0.00001
    D2        3.14158   0.00000   0.00000   0.00001   0.00001   3.14159
    D3        2.07842   0.00000   0.00000   0.00001   0.00001   2.07843
    D4       -1.06317   0.00000   0.00000   0.00001   0.00001  -1.06316
    D5       -2.07845   0.00000   0.00000   0.00001   0.00001  -2.07844
    D6        1.06314   0.00000   0.00000   0.00001   0.00001   1.06315
    D7        0.00003   0.00000   0.00000  -0.00002  -0.00002   0.00001
    D8       -2.11001   0.00000   0.00000  -0.00003  -0.00003  -2.11003
    D9        2.11008   0.00000   0.00000  -0.00003  -0.00003   2.11005
   D10        0.00002   0.00000   0.00000  -0.00002  -0.00002   0.00001
   D11       -3.14158   0.00000   0.00000  -0.00001  -0.00001  -3.14159
   D12       -2.07842   0.00000   0.00000  -0.00001  -0.00001  -2.07843
   D13        1.06317   0.00000   0.00000  -0.00001  -0.00001   1.06316
   D14        2.07846   0.00000   0.00000  -0.00001  -0.00001   2.07844
   D15       -1.06314   0.00000   0.00000  -0.00001  -0.00001  -1.06315
   D16       -0.00003   0.00000   0.00000   0.00002   0.00002  -0.00001
   D17        2.11001   0.00000   0.00000   0.00003   0.00003   2.11003
   D18       -2.11008   0.00000   0.00000   0.00003   0.00003  -2.11005
   D19        0.00000   0.00000   0.00000   0.00000   0.00000   0.00000
   D20        3.14159   0.00000   0.00000   0.00000   0.00000   3.14159
   D21       -3.14159   0.00000   0.00000   0.00000   0.00000  -3.14159
   D22        0.00000   0.00000   0.00000   0.00000   0.00000   0.00000
         Item               Value     Threshold  Converged?
 Maximum Force            0.000000     0.000002     YES
 RMS     Force            0.000000     0.000001     YES
 Maximum Displacement     0.000037     0.000006     NO 
 RMS     Displacement     0.000009     0.000004     NO 
 Predicted change in Energy=-3.546640D-12
 GradGradGradGradGradGradGradGradGradGradGradGradGradGradGradGradGradGrad


 Test job not archived.
 1\1\GINC-COMPUTE-3-046\Freq\RM062X\6-311+G(2df,2p)\C4H6O1\ROOT\04-Aug-
 2017\0\\#N Geom=AllCheck Guess=TCheck SCRF=Check Test GenChk RM062X/6-
 311+G(2df,2p) Freq\\InChI=1S/C4H6O/c1-2-4-5-3-1/h1-2H,3-4H2\\0,1\C,1.1
 337939724,-0.5721036598,0.1286702623\C,-1.1919369901,-0.4536157295,-0.
 0534771957\C,-0.6073115815,0.9262700438,-0.1169171364\C,0.7085221935,0
 .8592328361,-0.0138638308\O,-0.0746633266,-1.3171252895,0.0965516303\H
 ,1.7878437865,-0.8958185619,-0.6873097163\H,1.6570500354,-0.759511807,
 1.0717903291\H,-1.7406595544,-0.7160533714,-0.9636562538\H,-1.87151571
 46,-0.5797438064,0.7954389225\H,-1.2015726717,1.820516723,-0.230406003
 2\H,1.4004498512,1.6879526226,-0.026621008\\Version=EM64L-G09RevB.01\S
 tate=1-A\HF=-231.1944025\RMSD=8.797e-09\RMSF=1.369e-07\ZeroPoint=0.093
 6648\Thermal=0.0981373\Dipole=0.036589,0.6454514,-0.047313\DipoleDeriv
 =0.5921519,0.0609744,0.0102355,0.1903167,0.2998283,0.0212052,0.0002186
 ,0.0115891,0.3899785,0.5604313,-0.0886529,0.0194903,-0.2179947,0.32833
 57,-0.0113712,0.0295072,-0.0017483,0.3931918,0.0062692,0.0284807,0.015
 4542,0.0691369,-0.0216584,-0.0110927,0.0123063,-0.014118,-0.2291695,-0
 .0047512,-0.0277967,0.0189915,-0.0684531,-0.011753,-0.0220928,0.022139
 5,-0.0190705,-0.2280548,-0.9701704,0.0154312,-0.0477317,0.0154305,-0.6
 353832,0.0237013,-0.0477321,0.0236919,-0.3498207,-0.0781186,0.0155773,
 0.0669256,0.0817181,0.0113058,-0.0247441,0.1232887,-0.0486747,-0.05395
 65,-0.0489496,-0.0012646,-0.0664995,0.0582487,0.0216433,0.021152,-0.13
 25965,0.0357402,-0.0934525,-0.0561043,-0.0003929,-0.0694416,-0.0689994
 ,0.0197408,-0.0295127,-0.1274087,-0.0370654,-0.0844057,-0.086232,0.006
 0717,0.0694024,-0.0509754,0.0269308,0.0055253,0.1371036,0.0224257,-0.0
 614579,0.0486512,0.0417189,-0.0115331,0.0538871,-0.0248106,0.0183478,-
 0.0124759,0.017443,0.1579748,0.0368226,-0.0501472,-0.0052935,-0.062315
 4,-0.0141795,0.008882,-0.0043508,0.0097871,0.1591723\Polar=60.139015,-
 0.6617844,46.2551704,1.6989211,-0.6900762,38.1643262\PG=C01 [X(C4H6O1)
 ]\NImag=0\\0.56334577,-0.07685306,0.46704533,0.00519091,0.00254555,0.5
 7385504,-0.05429291,0.00522827,-0.00310346,0.57937827,0.00193184,0.012
 35314,-0.00221026,0.06414685,0.45263680,-0.00284758,-0.00196512,-0.018
 07374,-0.00454907,0.01414858,0.57223106,-0.01959897,0.02934319,-0.0045
 7259,-0.10484534,-0.06081269,0.00248727,0.85460074,0.03274055,-0.01320
 771,0.00433506,-0.03519265,-0.18474626,0.00589193,-0.12565720,0.620986
 44,-0.00483539,0.00408202,0.01063625,0.00050196,0.00398641,-0.07519965
 ,0.06258509,-0.04630525,0.15224254,-0.09511479,0.05038943,-0.00540595,
 -0.02653497,-0.02826349,-0.00062459,-0.55631721,0.02010567,-0.03863458
 ,0.88078076,0.02476937,-0.19349174,0.01102907,-0.03166091,-0.00697382,
 -0.00093754,0.02525981,-0.10684947,0.00568111,0.10459944,0.59745689,-0
 .00342060,0.01293427,-0.07618473,-0.00036189,-0.00068523,0.01133835,-0
 .03903354,0.00529778,-0.06109190,0.04668885,-0.02735776,0.14959204,-0.
 17682790,-0.08267224,-0.00275870,-0.16317142,0.08579030,-0.01480130,-0
 .00839819,0.01590687,-0.00192901,-0.01372554,-0.02000574,0.00045785,0.
 47039445,-0.03431531,-0.12464742,0.00295856,0.03743344,-0.13692080,0.0
 0924581,0.02684888,-0.04828863,0.00581406,-0.03094785,-0.04350063,0.00
 114466,-0.00453460,0.34936896,-0.00650594,-0.00063736,-0.05399908,-0.0
 1105402,0.01284254,-0.05538219,-0.00277692,0.00499956,0.00037081,0.001
 30569,0.00195770,0.00091016,0.03065409,-0.02254041,0.06695949,-0.12476
 410,0.04329199,0.10626680,-0.00187019,-0.00307234,0.00582197,0.0008499
 8,-0.00008289,0.00018476,-0.00358856,0.00685863,0.00379643,-0.03046455
 ,0.00114590,0.01531069,0.15261875,0.05020999,-0.07536210,-0.06315779,0
 .00113081,-0.00274063,0.00172782,-0.00017399,-0.00422396,0.00040817,0.
 01998923,-0.00827544,-0.02383682,-0.02085376,0.00569159,0.01100423,-0.
 04692595,0.07913029,0.10949175,-0.06091613,-0.20019448,-0.00159561,0.0
 0092339,-0.00036915,-0.00083998,0.00043378,0.00040027,-0.00372500,0.00
 056843,0.00598233,0.00186578,0.00474727,0.00957327,-0.12072541,0.06548
 884,0.20969368,-0.09417045,0.01991426,-0.09399435,-0.00124080,-0.00380
 016,-0.00544817,0.00074278,-0.00009519,-0.00012530,-0.00310838,0.00597
 971,-0.00586966,-0.02729304,-0.00102342,-0.02101044,0.00955839,-0.0025
 0676,0.01516517,0.11789752,0.02585092,-0.05883993,0.04435225,0.0015619
 9,-0.00311567,-0.00114921,-0.00003072,-0.00424408,0.00030858,0.0163755
 4,-0.00411510,0.02810594,-0.01954249,0.00314186,-0.01323735,-0.0032608
 2,0.00427328,-0.01030569,-0.02049080,0.06174116,-0.09821594,0.04115482
 ,-0.24731321,0.00122856,-0.00105615,-0.00062373,0.00090141,0.00028496,
 0.00052738,-0.00017135,0.00195128,0.00134231,-0.00442569,-0.00396745,0
 .00895133,-0.00967235,0.00543725,-0.02398115,0.11083208,-0.04470020,0.
 26180689,-0.00104683,0.00276435,-0.00574363,-0.10049066,-0.02993786,-0
 .09625891,-0.00569474,-0.00706197,-0.00799308,0.00069968,-0.00048501,-
 0.00009111,-0.02480000,0.00137828,-0.01951996,0.00009599,0.00002424,0.
 00026216,-0.00220693,-0.00079494,0.00013973,0.12366290,-0.00157128,-0.
 00290246,0.00210871,-0.03639813,-0.06728189,-0.05952591,-0.01630272,-0
 .00571181,-0.02608691,-0.00039915,-0.00419161,0.00040400,0.02203244,0.
 00348015,0.01616010,-0.00003977,-0.00027387,-0.00015759,0.00121152,0.0
 0137086,0.00001064,0.03071018,0.07129482,0.00158778,0.00122161,-0.0010
 3068,-0.09918611,-0.05592306,-0.23254809,0.00205873,-0.00082487,0.0055
 2487,0.00093022,0.00031150,0.00051822,-0.00695030,0.00523723,0.0061201
 9,-0.00022748,-0.00012763,-0.00021640,-0.00002215,-0.00025001,-0.00019
 611,0.11302368,0.05954488,0.24648492,-0.00163218,0.00372726,0.00511390
 ,-0.13271658,-0.01951759,0.11620998,-0.00662366,-0.00601619,0.00750904
 ,0.00080832,-0.00046507,0.00020408,-0.02767869,0.00465013,0.01375219,-
 0.00214159,-0.00083933,-0.00030262,0.00009357,-0.00003181,-0.00021183,
 0.01018279,0.00111314,-0.01077856,0.16008927,-0.00150240,-0.00334203,-
 0.00192887,-0.02591195,-0.05409384,0.02943532,-0.02030183,-0.00162625,
 0.02453781,-0.00052431,-0.00420026,0.00025340,0.02451464,0.00060926,-0
 .01155945,0.00118449,0.00137433,-0.00008043,-0.00002375,-0.00022954,0.
 00015473,0.00410612,0.00371192,-0.00840449,0.01827309,0.05768190,-0.00
 147665,-0.00033035,-0.00000599,0.12013384,0.02678866,-0.21351319,-0.00
 071962,0.00102569,0.00236874,-0.00081922,0.00034392,0.00041802,-0.0019
 5734,-0.00365039,0.01186956,-0.00045322,-0.00011951,-0.00026491,0.0002
 8204,0.00012893,-0.00025828,0.01551539,0.00444002,-0.02404419,-0.13096
 114,-0.02917746,0.22367446,-0.00560946,-0.00150830,-0.00117070,0.01083
 541,-0.00819863,0.00139070,-0.14385613,0.13124747,-0.01805384,-0.00842
 822,0.02761927,-0.00317546,0.00082580,-0.00523608,0.00029178,-0.000046
 76,0.00063009,-0.00015464,-0.00011251,0.00100708,0.00006015,-0.0001515
 4,0.00058176,-0.00062835,-0.00023532,0.00079080,0.00051421,0.14577494,
 -0.00317961,-0.00137182,0.00077675,0.01625721,-0.00724312,0.00182298,0
 .13558958,-0.26023932,0.02731606,-0.00451290,0.00596610,-0.00037229,0.
 00184544,-0.00432640,0.00065519,0.00025227,0.00038788,-0.00009908,0.00
 029218,0.00002490,0.00006151,-0.00052962,0.00001388,-0.00063420,-0.000
 61724,-0.00002157,0.00052761,-0.14615713,0.26668903,-0.00104111,0.0009
 0099,0.01155595,-0.00050430,0.00000410,0.00064094,-0.01839033,0.026993
 17,-0.04131111,-0.00068560,0.00201733,0.00528569,-0.00025698,0.0001286
 4,0.00232908,-0.00032358,0.00242762,-0.00051354,0.00031373,-0.00238388
 ,-0.00008482,0.00005288,0.00084579,-0.00020099,0.00002820,-0.00076498,
 -0.00008165,0.02032359,-0.02961436,0.02859101,0.00971182,0.00637485,0.
 00017777,-0.00505081,0.00173376,-0.00138031,-0.01085926,-0.02589446,0.
 00079035,-0.17547109,-0.14246950,0.00080505,0.00113906,0.00460063,-0.0
 0044717,-0.00024735,-0.00068457,0.00055842,-0.00016017,-0.00064396,-0.
 00046477,-0.00025066,-0.00093800,0.00019254,-0.00014593,-0.00060488,-0
 .00005830,0.00100379,0.00075983,0.00048352,0.18033061,-0.01808100,-0.0
 0623326,-0.00080902,0.00340505,-0.00187391,0.00130536,0.00623770,0.008
 15104,0.00025794,-0.14681161,-0.23182492,0.00411204,-0.00248088,-0.004
 60794,0.00035526,0.00064849,0.00001863,-0.00060278,0.00054240,-0.00000
 775,0.00066861,-0.00017376,0.00049000,-0.00015094,-0.00027639,0.000136
 08,0.00002289,-0.00077632,0.00012044,-0.00055442,0.15776632,0.23563159
 ,0.00207277,0.00100970,0.00075467,-0.00150991,0.00118101,0.01149939,-0
 .00169950,-0.00213180,0.00553179,0.00114153,0.00443498,-0.03811050,0.0
 0010160,0.00088201,0.00229737,0.00002140,0.00074783,-0.00010992,-0.000
 12296,-0.00086934,-0.00017062,0.00061285,0.00225629,-0.00041176,-0.000
 56325,-0.00246558,-0.00016258,0.00060257,-0.00044017,-0.00621057,-0.00
 065710,-0.00460493,0.02509273\\-0.00000029,0.00000034,0.00000002,0.000
 00032,0.00000029,-0.00000009,0.00000012,-0.00000020,0.00000009,-0.0000
 0013,-0.00000020,-0.00000008,-0.00000003,-0.00000023,0.00000013,0.0000
 0001,0.00000004,0.00000003,0.00000006,-0.00000003,-0.00000007,-0.00000
 005,0.00000003,0.00000002,-0.00000001,-0.00000002,-0.00000008,-0.00000
 004,0.,0.00000002,0.00000004,0.,0.00000001\\\@


 GOD DOES NOT PLAY WITH DICE.
               -- A. EINSTEIN
 Job cpu time:  0 days  0 hours 48 minutes 44.4 seconds.
 File lengths (MBytes):  RWF=   1312 Int=      0 D2E=      0 Chk=     32 Scr=     32
 Normal termination of Gaussian 09 at Fri Aug  4 17:36:18 2017.
