 Entering Gaussian System, Link 0=/shared/apps/gaussian/G09_LINUX_LINDA/g09/g09
 Input=/gss_gpfs_scratch/harms.n/QMscratch/ASTTZURIZIUDPS-UHFFFAOYSA-u1.gjf
 Output=/gss_gpfs_scratch/harms.n/QMscratch/ASTTZURIZIUDPS-UHFFFAOYSA-u1.log
 Initial command:
 /shared/apps/gaussian/G09_LINUX_LINDA/g09/l1.exe /home/harms.n/Code/OOHabstraction/Biofuels/results/Gau-28459.inp -scrdir=/home/harms.n/Code/OOHabstraction/Biofuels/results/
 Entering Link 1 = /shared/apps/gaussian/G09_LINUX_LINDA/g09/l1.exe PID=     28460.
  
 Copyright (c) 1988,1990,1992,1993,1995,1998,2003,2009,2010,
            Gaussian, Inc.  All Rights Reserved.
  
 This is part of the Gaussian(R) 09 program.  It is based on
 the Gaussian(R) 03 system (copyright 2003, Gaussian, Inc.),
 the Gaussian(R) 98 system (copyright 1998, Gaussian, Inc.),
 the Gaussian(R) 94 system (copyright 1995, Gaussian, Inc.),
 the Gaussian 92(TM) system (copyright 1992, Gaussian, Inc.),
 the Gaussian 90(TM) system (copyright 1990, Gaussian, Inc.),
 the Gaussian 88(TM) system (copyright 1988, Gaussian, Inc.),
 the Gaussian 86(TM) system (copyright 1986, Carnegie Mellon
 University), and the Gaussian 82(TM) system (copyright 1983,
 Carnegie Mellon University). Gaussian is a federally registered
 trademark of Gaussian, Inc.
  
 This software contains proprietary and confidential information,
 including trade secrets, belonging to Gaussian, Inc.
  
 This software is provided under written license and may be
 used, copied, transmitted, or stored only in accord with that
 written license.
  
 The following legend is applicable only to US Government
 contracts under FAR:
  
                    RESTRICTED RIGHTS LEGEND
  
 Use, reproduction and disclosure by the US Government is
 subject to restrictions as set forth in subparagraphs (a)
 and (c) of the Commercial Computer Software - Restricted
 Rights clause in FAR 52.227-19.
  
 Gaussian, Inc.
 340 Quinnipiac St., Bldg. 40, Wallingford CT 06492
  
  
 ---------------------------------------------------------------
 Warning -- This program may not be used in any manner that
 competes with the business of Gaussian, Inc. or will provide
 assistance to any competitor of Gaussian, Inc.  The licensee
 of this program is prohibited from giving any competitor of
 Gaussian, Inc. access to this program.  By using this program,
 the user acknowledges that Gaussian, Inc. is engaged in the
 business of creating and licensing software in the field of
 computational chemistry and represents and warrants to the
 licensee that it is not a competitor of Gaussian, Inc. and that
 it will not use this program in any manner prohibited above.
 ---------------------------------------------------------------
  

 Cite this work as:
 Gaussian 09, Revision B.01,
 M. J. Frisch, G. W. Trucks, H. B. Schlegel, G. E. Scuseria, 
 M. A. Robb, J. R. Cheeseman, G. Scalmani, V. Barone, B. Mennucci, 
 G. A. Petersson, H. Nakatsuji, M. Caricato, X. Li, H. P. Hratchian, 
 A. F. Izmaylov, J. Bloino, G. Zheng, J. L. Sonnenberg, M. Hada, 
 M. Ehara, K. Toyota, R. Fukuda, J. Hasegawa, M. Ishida, T. Nakajima, 
 Y. Honda, O. Kitao, H. Nakai, T. Vreven, J. A. Montgomery, Jr., 
 J. E. Peralta, F. Ogliaro, M. Bearpark, J. J. Heyd, E. Brothers, 
 K. N. Kudin, V. N. Staroverov, T. Keith, R. Kobayashi, J. Normand, 
 K. Raghavachari, A. Rendell, J. C. Burant, S. S. Iyengar, J. Tomasi, 
 M. Cossi, N. Rega, J. M. Millam, M. Klene, J. E. Knox, J. B. Cross, 
 V. Bakken, C. Adamo, J. Jaramillo, R. Gomperts, R. E. Stratmann, 
 O. Yazyev, A. J. Austin, R. Cammi, C. Pomelli, J. W. Ochterski, 
 R. L. Martin, K. Morokuma, V. G. Zakrzewski, G. A. Voth, 
 P. Salvador, J. J. Dannenberg, S. Dapprich, A. D. Daniels, 
 O. Farkas, J. B. Foresman, J. V. Ortiz, J. Cioslowski, 
 and D. J. Fox, Gaussian, Inc., Wallingford CT, 2010.
 
 ******************************************
 Gaussian 09:  EM64L-G09RevB.01 12-Aug-2010
                18-May-2017 
 ******************************************
 %nprocshared=20
 Will use up to   20 processors via shared memory.
 %mem=5GB
 --------------------------------------------------------------
 # m062x/6-311+g(2df,2p) opt=(verytight,gdiis) freq IOP(2/16=3)
 --------------------------------------------------------------

 Warning!  Use of Opt=GDIIS is deprecated since it is seldom a good choice.

 1/7=1,14=-1,18=20,19=11,26=3,38=1/1,3;
 2/9=110,12=2,16=3,17=6,18=5,40=1/2;
 3/5=4,6=6,7=214,11=2,16=1,25=1,30=1,71=1,74=-55/1,2,3;
 4//1;
 5/5=2,38=5/2;
 6/7=2,8=2,9=2,10=2,28=1/1;
 7//1,2,3,16;
 1/7=1,14=-1,18=20,19=11/3(2);
 2/9=110,16=3/2;
 99//99;
 2/9=110,16=3/2;
 3/5=4,6=6,7=214,11=2,16=1,25=1,30=1,71=1,74=-55/1,2,3;
 4/5=5,16=3/1;
 5/5=2,38=5/2;
 7//1,2,3,16;
 1/7=1,14=-1,18=20,19=11/3(-5);
 2/9=110,16=3/2;
 6/7=2,8=2,9=2,10=2,19=2,28=1/1;
 99/9=1/99;
 ------------------------------------------------------
 InChI=1S/C8H17/c1-5-8(4)6-7(2)3/h7-8H,1,5-6H2,2-4H3/u1
 ------------------------------------------------------
 Symbolic Z-matrix:
 Charge =  0 Multiplicity = 2
 C                     1.046    -0.3398    0.0198 
 C                    -1.5332   -0.08      0.4127 
 C                    -0.1777    0.6113    0.1206 
 C                     2.3256    0.4548   -0.3214 
 C                     1.2642   -1.1229    1.3249 
 C                    -2.637     0.9781    0.544 
 C                    -1.9135   -1.0947   -0.6761 
 C                     2.2592    1.0718   -1.7149 
 H                     0.8808   -1.0753   -0.7966 
 H                    -1.4781   -0.6102    1.387 
 H                    -0.2766    1.1777   -0.8314 
 H                     0.0211    1.3575    0.922 
 H                     2.4822    1.2628    0.4262 
 H                     3.2109   -0.2176   -0.2884 
 H                     2.2006   -1.7181    1.2686 
 H                     0.4366   -1.8415    1.4949 
 H                     1.3336   -0.4306    2.1912 
 H                    -2.7607    1.5372   -0.4085 
 H                    -2.3857    1.6978    1.3523 
 H                    -3.6037    0.4965    0.8047 
 H                    -1.8777   -0.6237   -1.6819 
 H                    -1.2274   -1.9661   -0.6554 
 H                    -2.9396   -1.4829   -0.5005 
 H                     3.1687    1.6796   -1.9054 
 H                     2.1815    0.2782   -2.4882 
 

 GradGradGradGradGradGradGradGradGradGradGradGradGradGradGradGradGradGrad
 Berny optimization.
 Initialization pass.
                           ----------------------------
                           !    Initial Parameters    !
                           ! (Angstroms and Degrees)  !
 --------------------------                            --------------------------
 ! Name  Definition              Value          Derivative Info.                !
 --------------------------------------------------------------------------------
 ! R1    R(1,3)                  1.5531         estimate D2E/DX2                !
 ! R2    R(1,4)                  1.5444         estimate D2E/DX2                !
 ! R3    R(1,5)                  1.5376         estimate D2E/DX2                !
 ! R4    R(1,9)                  1.1112         estimate D2E/DX2                !
 ! R5    R(2,3)                  1.5494         estimate D2E/DX2                !
 ! R6    R(2,6)                  1.5347         estimate D2E/DX2                !
 ! R7    R(2,7)                  1.5361         estimate D2E/DX2                !
 ! R8    R(2,10)                 1.1106         estimate D2E/DX2                !
 ! R9    R(3,11)                 1.1122         estimate D2E/DX2                !
 ! R10   R(3,12)                 1.1129         estimate D2E/DX2                !
 ! R11   R(4,8)                  1.5254         estimate D2E/DX2                !
 ! R12   R(4,13)                 1.1119         estimate D2E/DX2                !
 ! R13   R(4,14)                 1.1122         estimate D2E/DX2                !
 ! R14   R(5,15)                 1.111          estimate D2E/DX2                !
 ! R15   R(5,16)                 1.1091         estimate D2E/DX2                !
 ! R16   R(5,17)                 1.1111         estimate D2E/DX2                !
 ! R17   R(6,18)                 1.1114         estimate D2E/DX2                !
 ! R18   R(6,19)                 1.1111         estimate D2E/DX2                !
 ! R19   R(6,20)                 1.111          estimate D2E/DX2                !
 ! R20   R(7,21)                 1.1112         estimate D2E/DX2                !
 ! R21   R(7,22)                 1.1093         estimate D2E/DX2                !
 ! R22   R(7,23)                 1.111          estimate D2E/DX2                !
 ! R23   R(8,24)                 1.1104         estimate D2E/DX2                !
 ! R24   R(8,25)                 1.1108         estimate D2E/DX2                !
 ! A1    A(3,1,4)              110.614          estimate D2E/DX2                !
 ! A2    A(3,1,5)              111.6301         estimate D2E/DX2                !
 ! A3    A(3,1,9)              109.6261         estimate D2E/DX2                !
 ! A4    A(4,1,5)              109.3892         estimate D2E/DX2                !
 ! A5    A(4,1,9)              107.5424         estimate D2E/DX2                !
 ! A6    A(5,1,9)              107.915          estimate D2E/DX2                !
 ! A7    A(3,2,6)              109.7396         estimate D2E/DX2                !
 ! A8    A(3,2,7)              112.1904         estimate D2E/DX2                !
 ! A9    A(3,2,10)             109.5721         estimate D2E/DX2                !
 ! A10   A(6,2,7)              109.7555         estimate D2E/DX2                !
 ! A11   A(6,2,10)             106.8449         estimate D2E/DX2                !
 ! A12   A(7,2,10)             108.5868         estimate D2E/DX2                !
 ! A13   A(1,3,2)              115.3602         estimate D2E/DX2                !
 ! A14   A(1,3,11)             109.0493         estimate D2E/DX2                !
 ! A15   A(1,3,12)             108.4567         estimate D2E/DX2                !
 ! A16   A(2,3,11)             108.1079         estimate D2E/DX2                !
 ! A17   A(2,3,12)             108.6435         estimate D2E/DX2                !
 ! A18   A(11,3,12)            106.9065         estimate D2E/DX2                !
 ! A19   A(1,4,8)              111.9537         estimate D2E/DX2                !
 ! A20   A(1,4,13)             110.0008         estimate D2E/DX2                !
 ! A21   A(1,4,14)             109.993          estimate D2E/DX2                !
 ! A22   A(8,4,13)             109.0516         estimate D2E/DX2                !
 ! A23   A(8,4,14)             107.8357         estimate D2E/DX2                !
 ! A24   A(13,4,14)            107.8953         estimate D2E/DX2                !
 ! A25   A(1,5,15)             110.454          estimate D2E/DX2                !
 ! A26   A(1,5,16)             110.7433         estimate D2E/DX2                !
 ! A27   A(1,5,17)             110.6902         estimate D2E/DX2                !
 ! A28   A(15,5,16)            106.8325         estimate D2E/DX2                !
 ! A29   A(15,5,17)            108.7035         estimate D2E/DX2                !
 ! A30   A(16,5,17)            109.3162         estimate D2E/DX2                !
 ! A31   A(2,6,18)             110.7065         estimate D2E/DX2                !
 ! A32   A(2,6,19)             110.2533         estimate D2E/DX2                !
 ! A33   A(2,6,20)             110.3051         estimate D2E/DX2                !
 ! A34   A(18,6,19)            108.8329         estimate D2E/DX2                !
 ! A35   A(18,6,20)            108.8035         estimate D2E/DX2                !
 ! A36   A(19,6,20)            107.8708         estimate D2E/DX2                !
 ! A37   A(2,7,21)             110.7076         estimate D2E/DX2                !
 ! A38   A(2,7,22)             110.6433         estimate D2E/DX2                !
 ! A39   A(2,7,23)             110.3293         estimate D2E/DX2                !
 ! A40   A(21,7,22)            109.2649         estimate D2E/DX2                !
 ! A41   A(21,7,23)            108.7182         estimate D2E/DX2                !
 ! A42   A(22,7,23)            107.0856         estimate D2E/DX2                !
 ! A43   A(4,8,24)             110.028          estimate D2E/DX2                !
 ! A44   A(4,8,25)             110.4893         estimate D2E/DX2                !
 ! A45   A(24,8,25)            109.2045         estimate D2E/DX2                !
 ! D1    D(4,1,3,2)            178.0236         estimate D2E/DX2                !
 ! D2    D(4,1,3,11)            56.1841         estimate D2E/DX2                !
 ! D3    D(4,1,3,12)           -59.8933         estimate D2E/DX2                !
 ! D4    D(5,1,3,2)            -59.9222         estimate D2E/DX2                !
 ! D5    D(5,1,3,11)           178.2383         estimate D2E/DX2                !
 ! D6    D(5,1,3,12)            62.1609         estimate D2E/DX2                !
 ! D7    D(9,1,3,2)             59.5974         estimate D2E/DX2                !
 ! D8    D(9,1,3,11)           -62.2422         estimate D2E/DX2                !
 ! D9    D(9,1,3,12)          -178.3196         estimate D2E/DX2                !
 ! D10   D(3,1,4,8)            -65.9107         estimate D2E/DX2                !
 ! D11   D(3,1,4,13)            55.5053         estimate D2E/DX2                !
 ! D12   D(3,1,4,14)           174.2169         estimate D2E/DX2                !
 ! D13   D(5,1,4,8)            170.7297         estimate D2E/DX2                !
 ! D14   D(5,1,4,13)           -67.8544         estimate D2E/DX2                !
 ! D15   D(5,1,4,14)            50.8573         estimate D2E/DX2                !
 ! D16   D(9,1,4,8)             53.7767         estimate D2E/DX2                !
 ! D17   D(9,1,4,13)           175.1926         estimate D2E/DX2                !
 ! D18   D(9,1,4,14)           -66.0957         estimate D2E/DX2                !
 ! D19   D(3,1,5,15)          -174.2795         estimate D2E/DX2                !
 ! D20   D(3,1,5,16)            67.5734         estimate D2E/DX2                !
 ! D21   D(3,1,5,17)           -53.8349         estimate D2E/DX2                !
 ! D22   D(4,1,5,15)           -51.5229         estimate D2E/DX2                !
 ! D23   D(4,1,5,16)          -169.6701         estimate D2E/DX2                !
 ! D24   D(4,1,5,17)            68.9217         estimate D2E/DX2                !
 ! D25   D(9,1,5,15)            65.1946         estimate D2E/DX2                !
 ! D26   D(9,1,5,16)           -52.9525         estimate D2E/DX2                !
 ! D27   D(9,1,5,17)          -174.3608         estimate D2E/DX2                !
 ! D28   D(6,2,3,1)            177.6204         estimate D2E/DX2                !
 ! D29   D(6,2,3,11)           -60.0354         estimate D2E/DX2                !
 ! D30   D(6,2,3,12)            55.6375         estimate D2E/DX2                !
 ! D31   D(7,2,3,1)            -60.0898         estimate D2E/DX2                !
 ! D32   D(7,2,3,11)            62.2544         estimate D2E/DX2                !
 ! D33   D(7,2,3,12)           177.9273         estimate D2E/DX2                !
 ! D34   D(10,2,3,1)            60.5985         estimate D2E/DX2                !
 ! D35   D(10,2,3,11)         -177.0573         estimate D2E/DX2                !
 ! D36   D(10,2,3,12)          -61.3844         estimate D2E/DX2                !
 ! D37   D(3,2,6,18)            62.387          estimate D2E/DX2                !
 ! D38   D(3,2,6,19)           -58.0984         estimate D2E/DX2                !
 ! D39   D(3,2,6,20)          -177.1304         estimate D2E/DX2                !
 ! D40   D(7,2,6,18)           -61.3397         estimate D2E/DX2                !
 ! D41   D(7,2,6,19)           178.1749         estimate D2E/DX2                !
 ! D42   D(7,2,6,20)            59.1429         estimate D2E/DX2                !
 ! D43   D(10,2,6,18)         -178.8945         estimate D2E/DX2                !
 ! D44   D(10,2,6,19)           60.6201         estimate D2E/DX2                !
 ! D45   D(10,2,6,20)          -58.4118         estimate D2E/DX2                !
 ! D46   D(3,2,7,21)           -52.9786         estimate D2E/DX2                !
 ! D47   D(3,2,7,22)            68.3092         estimate D2E/DX2                !
 ! D48   D(3,2,7,23)          -173.371          estimate D2E/DX2                !
 ! D49   D(6,2,7,21)            69.3021         estimate D2E/DX2                !
 ! D50   D(6,2,7,22)          -169.41           estimate D2E/DX2                !
 ! D51   D(6,2,7,23)           -51.0903         estimate D2E/DX2                !
 ! D52   D(10,2,7,21)         -174.2348         estimate D2E/DX2                !
 ! D53   D(10,2,7,22)          -52.9469         estimate D2E/DX2                !
 ! D54   D(10,2,7,23)           65.3728         estimate D2E/DX2                !
 ! D55   D(1,4,8,24)           176.9446         estimate D2E/DX2                !
 ! D56   D(1,4,8,25)           -62.3935         estimate D2E/DX2                !
 ! D57   D(13,4,8,24)           54.9833         estimate D2E/DX2                !
 ! D58   D(13,4,8,25)          175.6452         estimate D2E/DX2                !
 ! D59   D(14,4,8,24)          -61.928          estimate D2E/DX2                !
 ! D60   D(14,4,8,25)           58.7339         estimate D2E/DX2                !
 --------------------------------------------------------------------------------
 Trust Radius=3.00D-01 FncErr=1.00D-07 GrdErr=1.00D-06
 Number of steps in this run=    139 maximum allowed number of steps=    150.
 GradGradGradGradGradGradGradGradGradGradGradGradGradGradGradGradGradGrad

                          Input orientation:                          
 ---------------------------------------------------------------------
 Center     Atomic      Atomic             Coordinates (Angstroms)
 Number     Number       Type             X           Y           Z
 ---------------------------------------------------------------------
      1          6           0        1.046000   -0.339800    0.019800
      2          6           0       -1.533200   -0.080000    0.412700
      3          6           0       -0.177700    0.611300    0.120600
      4          6           0        2.325600    0.454800   -0.321400
      5          6           0        1.264200   -1.122900    1.324900
      6          6           0       -2.637000    0.978100    0.544000
      7          6           0       -1.913500   -1.094700   -0.676100
      8          6           0        2.259200    1.071800   -1.714900
      9          1           0        0.880800   -1.075300   -0.796600
     10          1           0       -1.478100   -0.610200    1.387000
     11          1           0       -0.276600    1.177700   -0.831400
     12          1           0        0.021100    1.357500    0.922000
     13          1           0        2.482200    1.262800    0.426200
     14          1           0        3.210900   -0.217600   -0.288400
     15          1           0        2.200600   -1.718100    1.268600
     16          1           0        0.436600   -1.841500    1.494900
     17          1           0        1.333600   -0.430600    2.191200
     18          1           0       -2.760700    1.537200   -0.408500
     19          1           0       -2.385700    1.697800    1.352300
     20          1           0       -3.603700    0.496500    0.804700
     21          1           0       -1.877700   -0.623700   -1.681900
     22          1           0       -1.227400   -1.966100   -0.655400
     23          1           0       -2.939600   -1.482900   -0.500500
     24          1           0        3.168700    1.679600   -1.905400
     25          1           0        2.181500    0.278200   -2.488200
 ---------------------------------------------------------------------
                    Distance matrix (angstroms):
                    1          2          3          4          5
     1  C    0.000000
     2  C    2.621858   0.000000
     3  C    1.553124   1.549386   0.000000
     4  C    1.544404   3.964247   2.546835   0.000000
     5  C    1.537577   3.121730   2.556729   2.515156   0.000000
     6  C    3.946661   1.534663   2.522294   5.064599   4.499263
     7  C    3.132537   1.536141   2.560892   4.527332   3.755339
     8  C    2.544337   4.498402   3.085385   1.525431   3.879061
     9  H    1.111198   2.877573   2.192327   2.157422   2.156391
    10  H    2.883302   1.110589   2.187892   4.303602   2.790507
    11  H    2.185548   2.169940   1.112157   2.748478   3.509481
    12  H    2.178351   2.177531   1.112914   2.769771   2.803571
    13  H    2.190013   4.233997   2.755524   1.111887   2.825376
    14  H    2.190140   4.797599   3.512402   1.112190   2.685507
    15  H    2.189135   4.166197   3.521409   2.695407   1.110981
    16  H    2.191436   2.855547   2.877897   3.484288   1.109147
    17  H    2.192245   3.391832   2.767123   2.842737   1.111113
    18  H    4.265857   2.190083   2.794481   5.200925   5.126463
    19  H    4.207604   2.184074   2.751878   5.151958   4.612902
    20  H    4.789068   2.184717   3.495518   6.035432   5.156502
    21  H    3.394761   2.191264   2.768435   4.547731   4.377394
    22  H    2.875603   2.189001   2.889124   4.312322   3.292513
    23  H    4.178803   2.186327   3.521297   5.613296   4.597132
    24  H    3.505742   5.529706   4.055161   2.172558   4.681449
    25  H    2.821586   4.726788   3.533075   2.178755   4.164643
                    6          7          8          9         10
     6  C    0.000000
     7  C    2.511692   0.000000
     8  C    5.392975   4.815003   0.000000
     9  H    4.288190   2.796964   2.711697   0.000000
    10  H    2.139251   2.163491   5.139875   3.247897   0.000000
    11  H    2.739170   2.804882   2.687391   2.533139   3.092165
    12  H    2.711517   3.508545   3.470441   3.100191   2.517075
    13  H    5.128464   5.108331   2.161138   3.086492   4.485002
    14  H    6.026651   5.213357   2.145504   2.534420   4.994779
    15  H    5.585420   4.593071   4.085125   2.533795   3.843734
    16  H    4.278010   3.285410   4.702340   2.456695   2.278995
    17  H    4.523645   4.382476   4.286206   3.089921   2.929957
    18  H    1.111373   2.777815   5.207943   4.498478   3.078995
    19  H    1.111066   3.483595   5.601311   4.793524   2.480283
    20  H    1.111041   2.753445   6.407258   5.014525   2.466178
    21  H    2.845511   1.111196   4.470990   2.932068   3.094836
    22  H    3.477621   1.109279   4.744234   2.293026   2.464288
    23  H    2.690552   1.111043   5.918512   3.853475   2.541701
    24  H    6.340175   5.919179   1.110361   3.748786   6.138064
    25  H    5.736030   4.683758   1.110780   2.526914   5.403619
                   11         12         13         14         15
    11  H    0.000000
    12  H    1.787558   0.000000
    13  H    3.033113   2.512329   0.000000
    14  H    3.795309   3.757770   1.798122   0.000000
    15  H    4.351112   3.785455   3.110418   2.386725   0.000000
    16  H    3.877615   3.276348   3.868240   3.676133   1.782733
    17  H    3.783581   2.555548   2.702242   3.117377   1.805695
    18  H    2.545356   3.088840   5.316015   6.225251   6.166372
    19  H    3.080155   2.468532   4.974267   6.138614   5.719224
    20  H    3.769675   3.727500   6.145621   6.938557   6.229732
    21  H    2.555761   3.782974   5.197278   5.291560   5.151281
    22  H    3.289145   3.885005   5.035552   4.784396   3.938840
    23  H    3.778870   4.342479   6.147646   6.282883   5.441203
    24  H    3.643552   4.243268   2.466042   2.493158   4.749301
    25  H    3.097796   4.178718   3.090887   2.478831   4.254307
                   16         17         18         19         20
    16  H    0.000000
    17  H    1.811100   0.000000
    18  H    5.026059   5.233925   0.000000
    19  H    4.529057   4.366581   1.807439   0.000000
    20  H    4.718755   5.211413   1.807086   1.796249   0.000000
    21  H    4.114739   5.034942   2.659084   3.854062   3.227554
    22  H    2.721803   4.125483   3.832112   4.335514   3.720631
    23  H    3.938139   5.158762   3.026793   3.722435   2.462235
    24  H    5.605761   4.960108   6.117089   6.439278   7.389842
    25  H    4.837653   4.808130   5.507774   6.133842   6.660284
                   21         22         23         24         25
    21  H    0.000000
    22  H    1.810699   0.000000
    23  H    1.805980   1.785807   0.000000
    24  H    5.551693   5.846309   7.020433   0.000000
    25  H    4.235640   4.473996   5.768716   1.810564   0.000000
 Stoichiometry    C8H17(2)
 Framework group  C1[X(C8H17)]
 Deg. of freedom    69
 Full point group                 C1      NOp   1
 Largest Abelian subgroup         C1      NOp   1
 Largest concise Abelian subgroup C1      NOp   1
                         Standard orientation:                         
 ---------------------------------------------------------------------
 Center     Atomic      Atomic             Coordinates (Angstroms)
 Number     Number       Type             X           Y           Z
 ---------------------------------------------------------------------
      1          6           0        0.953111    0.452137    0.159036
      2          6           0       -1.636176    0.133718   -0.102382
      3          6           0       -0.213396   -0.343021   -0.488404
      4          6           0        2.315254   -0.143417   -0.259372
      5          6           0        0.906831    1.940139   -0.225474
      6          6           0       -2.683502   -0.697151   -0.856010
      7          6           0       -1.889113    0.039911    1.409886
      8          6           0        2.516014   -1.551130    0.292878
      9          1           0        0.883019    0.382767    1.265849
     10          1           0       -1.773709    1.189148   -0.419494
     11          1           0       -0.120583   -1.415544   -0.209162
     12          1           0       -0.107124   -0.286273   -1.594778
     13          1           0        2.392447   -0.174094   -1.368152
     14          1           0        3.142562    0.493832    0.123304
     15          1           0        1.803679    2.469273    0.161771
     16          1           0        0.022404    2.435013    0.225189
     17          1           0        0.871856    2.059385   -1.329616
     18          1           0       -2.615444   -1.768762   -0.569357
     19          1           0       -2.528214   -0.608655   -1.952606
     20          1           0       -3.706190   -0.329087   -0.625682
     21          1           0       -1.660295   -0.981109    1.783942
     22          1           0       -1.267384    0.777963    1.956906
     23          1           0       -2.950811    0.273921    1.638912
     24          1           0        3.478064   -1.968955   -0.071514
     25          1           0        2.521583   -1.535942    1.403540
 ---------------------------------------------------------------------
 Rotational constants (GHZ):      2.8235711      1.0786319      0.9685678
 Standard basis: 6-311+G(2df,2p) (5D, 7F)
 There are   425 symmetry adapted basis functions of A   symmetry.
 Integral buffers will be    131072 words long.
 Raffenetti 2 integral format.
 Two-electron integral symmetry is turned on.
   425 basis functions,   603 primitive gaussians,   465 cartesian basis functions
    33 alpha electrons       32 beta electrons
       nuclear repulsion energy       394.9650746067 Hartrees.
 NAtoms=   25 NActive=   25 NUniq=   25 SFac= 1.00D+00 NAtFMM=   50 NAOKFM=F Big=F
 One-electron integrals computed using PRISM.
 NBasis=   425 RedAO= T  NBF=   425
 NBsUse=   425 1.00D-06 NBFU=   425
 Harris functional with IExCor= 1009 diagonalized for initial guess.
 ExpMin= 4.38D-02 ExpMax= 4.56D+03 ExpMxC= 6.82D+02 IAcc=2 IRadAn=         0 AccDes= 0.00D+00
 HarFok:  IExCor= 1009 AccDes= 0.00D+00 IRadAn=         0 IDoV= 1
 ScaDFX=  1.000000  1.000000  1.000000  1.000000
 FoFCou: FMM=F IPFlag=           0 FMFlag=      100000 FMFlg1=           0
         NFxFlg=           0 DoJE=T BraDBF=F KetDBF=T FulRan=T
         Omega=  0.000000  0.000000  1.000000  0.000000  0.000000 ICntrl=     500 IOpCl=  0
         NMat0=    1 NMatS0=    1 NMatT0=    0 NMatD0=    1 NMtDS0=    0 NMtDT0=    0
         I1Cent=           4 NGrid=           0.
 Petite list used in FoFCou.
 Initial guess orbital symmetries:
 Alpha Orbitals:
       Occupied  (A) (A) (A) (A) (A) (A) (A) (A) (A) (A) (A) (A)
                 (A) (A) (A) (A) (A) (A) (A) (A) (A) (A) (A) (A)
                 (A) (A) (A) (A) (A) (A) (A) (A) (A)
       Virtual   (A) (A) (A) (A) (A) (A) (A) (A) (A) (A) (A) (A)
                 (A) (A) (A) (A) (A) (A) (A) (A) (A) (A) (A) (A)
                 (A) (A) (A) (A) (A) (A) (A) (A) (A) (A) (A) (A)
                 (A) (A) (A) (A) (A) (A) (A) (A) (A) (A) (A) (A)
                 (A) (A) (A) (A) (A) (A) (A) (A) (A) (A) (A) (A)
                 (A) (A) (A) (A) (A) (A) (A) (A) (A) (A) (A) (A)
                 (A) (A) (A) (A) (A) (A) (A) (A) (A) (A) (A) (A)
                 (A) (A) (A) (A) (A) (A) (A) (A) (A) (A) (A) (A)
                 (A) (A) (A) (A) (A) (A) (A) (A) (A) (A) (A) (A)
                 (A) (A) (A) (A) (A) (A) (A) (A) (A) (A) (A) (A)
                 (A) (A) (A) (A) (A) (A) (A) (A) (A) (A) (A) (A)
                 (A) (A) (A) (A) (A) (A) (A) (A) (A) (A) (A) (A)
                 (A) (A) (A) (A) (A) (A) (A) (A) (A) (A) (A) (A)
                 (A) (A) (A) (A) (A) (A) (A) (A) (A) (A) (A) (A)
                 (A) (A) (A) (A) (A) (A) (A) (A) (A) (A) (A) (A)
                 (A) (A) (A) (A) (A) (A) (A) (A) (A) (A) (A) (A)
                 (A) (A) (A) (A) (A) (A) (A) (A) (A) (A) (A) (A)
                 (A) (A) (A) (A) (A) (A) (A) (A) (A) (A) (A) (A)
                 (A) (A) (A) (A) (A) (A) (A) (A) (A) (A) (A) (A)
                 (A) (A) (A) (A) (A) (A) (A) (A) (A) (A) (A) (A)
                 (A) (A) (A) (A) (A) (A) (A) (A) (A) (A) (A) (A)
                 (A) (A) (A) (A) (A) (A) (A) (A) (A) (A) (A) (A)
                 (A) (A) (A) (A) (A) (A) (A) (A) (A) (A) (A) (A)
                 (A) (A) (A) (A) (A) (A) (A) (A) (A) (A) (A) (A)
                 (A) (A) (A) (A) (A) (A) (A) (A) (A) (A) (A) (A)
                 (A) (A) (A) (A) (A) (A) (A) (A) (A) (A) (A) (A)
                 (A) (A) (A) (A) (A) (A) (A) (A) (A) (A) (A) (A)
                 (A) (A) (A) (A) (A) (A) (A) (A) (A) (A) (A) (A)
                 (A) (A) (A) (A) (A) (A) (A) (A) (A) (A) (A) (A)
                 (A) (A) (A) (A) (A) (A) (A) (A) (A) (A) (A) (A)
                 (A) (A) (A) (A) (A) (A) (A) (A) (A) (A) (A) (A)
                 (A) (A) (A) (A) (A) (A) (A) (A) (A) (A) (A) (A)
                 (A) (A) (A) (A) (A) (A) (A) (A)
 Beta  Orbitals:
       Occupied  (A) (A) (A) (A) (A) (A) (A) (A) (A) (A) (A) (A)
                 (A) (A) (A) (A) (A) (A) (A) (A) (A) (A) (A) (A)
                 (A) (A) (A) (A) (A) (A) (A) (A)
       Virtual   (A) (A) (A) (A) (A) (A) (A) (A) (A) (A) (A) (A)
                 (A) (A) (A) (A) (A) (A) (A) (A) (A) (A) (A) (A)
                 (A) (A) (A) (A) (A) (A) (A) (A) (A) (A) (A) (A)
                 (A) (A) (A) (A) (A) (A) (A) (A) (A) (A) (A) (A)
                 (A) (A) (A) (A) (A) (A) (A) (A) (A) (A) (A) (A)
                 (A) (A) (A) (A) (A) (A) (A) (A) (A) (A) (A) (A)
                 (A) (A) (A) (A) (A) (A) (A) (A) (A) (A) (A) (A)
                 (A) (A) (A) (A) (A) (A) (A) (A) (A) (A) (A) (A)
                 (A) (A) (A) (A) (A) (A) (A) (A) (A) (A) (A) (A)
                 (A) (A) (A) (A) (A) (A) (A) (A) (A) (A) (A) (A)
                 (A) (A) (A) (A) (A) (A) (A) (A) (A) (A) (A) (A)
                 (A) (A) (A) (A) (A) (A) (A) (A) (A) (A) (A) (A)
                 (A) (A) (A) (A) (A) (A) (A) (A) (A) (A) (A) (A)
                 (A) (A) (A) (A) (A) (A) (A) (A) (A) (A) (A) (A)
                 (A) (A) (A) (A) (A) (A) (A) (A) (A) (A) (A) (A)
                 (A) (A) (A) (A) (A) (A) (A) (A) (A) (A) (A) (A)
                 (A) (A) (A) (A) (A) (A) (A) (A) (A) (A) (A) (A)
                 (A) (A) (A) (A) (A) (A) (A) (A) (A) (A) (A) (A)
                 (A) (A) (A) (A) (A) (A) (A) (A) (A) (A) (A) (A)
                 (A) (A) (A) (A) (A) (A) (A) (A) (A) (A) (A) (A)
                 (A) (A) (A) (A) (A) (A) (A) (A) (A) (A) (A) (A)
                 (A) (A) (A) (A) (A) (A) (A) (A) (A) (A) (A) (A)
                 (A) (A) (A) (A) (A) (A) (A) (A) (A) (A) (A) (A)
                 (A) (A) (A) (A) (A) (A) (A) (A) (A) (A) (A) (A)
                 (A) (A) (A) (A) (A) (A) (A) (A) (A) (A) (A) (A)
                 (A) (A) (A) (A) (A) (A) (A) (A) (A) (A) (A) (A)
                 (A) (A) (A) (A) (A) (A) (A) (A) (A) (A) (A) (A)
                 (A) (A) (A) (A) (A) (A) (A) (A) (A) (A) (A) (A)
                 (A) (A) (A) (A) (A) (A) (A) (A) (A) (A) (A) (A)
                 (A) (A) (A) (A) (A) (A) (A) (A) (A) (A) (A) (A)
                 (A) (A) (A) (A) (A) (A) (A) (A) (A) (A) (A) (A)
                 (A) (A) (A) (A) (A) (A) (A) (A) (A) (A) (A) (A)
                 (A) (A) (A) (A) (A) (A) (A) (A) (A)
 The electronic state of the initial guess is 2-A.
 Initial guess <Sx>= 0.0000 <Sy>= 0.0000 <Sz>= 0.5000 <S**2>= 0.7500 S= 0.5000
 Requested convergence on RMS density matrix=1.00D-08 within 128 cycles.
 Requested convergence on MAX density matrix=1.00D-06.
 Requested convergence on             energy=1.00D-06.
 No special actions if energy rises.
 SCF Done:  E(UM062X) =  -314.954529888     A.U. after   14 cycles
             Convg  =    0.3085D-08             -V/T =  2.0064
 <Sx>= 0.0000 <Sy>= 0.0000 <Sz>= 0.5000 <S**2>= 0.7545 S= 0.5023
 <L.S>= 0.000000000000E+00
 Annihilation of the first spin contaminant:
 S**2 before annihilation     0.7545,   after     0.7500

 **********************************************************************

            Population analysis using the SCF density.

 **********************************************************************

 Orbital symmetries:
 Alpha Orbitals:
       Occupied  (A) (A) (A) (A) (A) (A) (A) (A) (A) (A) (A) (A)
                 (A) (A) (A) (A) (A) (A) (A) (A) (A) (A) (A) (A)
                 (A) (A) (A) (A) (A) (A) (A) (A) (A)
       Virtual   (A) (A) (A) (A) (A) (A) (A) (A) (A) (A) (A) (A)
                 (A) (A) (A) (A) (A) (A) (A) (A) (A) (A) (A) (A)
                 (A) (A) (A) (A) (A) (A) (A) (A) (A) (A) (A) (A)
                 (A) (A) (A) (A) (A) (A) (A) (A) (A) (A) (A) (A)
                 (A) (A) (A) (A) (A) (A) (A) (A) (A) (A) (A) (A)
                 (A) (A) (A) (A) (A) (A) (A) (A) (A) (A) (A) (A)
                 (A) (A) (A) (A) (A) (A) (A) (A) (A) (A) (A) (A)
                 (A) (A) (A) (A) (A) (A) (A) (A) (A) (A) (A) (A)
                 (A) (A) (A) (A) (A) (A) (A) (A) (A) (A) (A) (A)
                 (A) (A) (A) (A) (A) (A) (A) (A) (A) (A) (A) (A)
                 (A) (A) (A) (A) (A) (A) (A) (A) (A) (A) (A) (A)
                 (A) (A) (A) (A) (A) (A) (A) (A) (A) (A) (A) (A)
                 (A) (A) (A) (A) (A) (A) (A) (A) (A) (A) (A) (A)
                 (A) (A) (A) (A) (A) (A) (A) (A) (A) (A) (A) (A)
                 (A) (A) (A) (A) (A) (A) (A) (A) (A) (A) (A) (A)
                 (A) (A) (A) (A) (A) (A) (A) (A) (A) (A) (A) (A)
                 (A) (A) (A) (A) (A) (A) (A) (A) (A) (A) (A) (A)
                 (A) (A) (A) (A) (A) (A) (A) (A) (A) (A) (A) (A)
                 (A) (A) (A) (A) (A) (A) (A) (A) (A) (A) (A) (A)
                 (A) (A) (A) (A) (A) (A) (A) (A) (A) (A) (A) (A)
                 (A) (A) (A) (A) (A) (A) (A) (A) (A) (A) (A) (A)
                 (A) (A) (A) (A) (A) (A) (A) (A) (A) (A) (A) (A)
                 (A) (A) (A) (A) (A) (A) (A) (A) (A) (A) (A) (A)
                 (A) (A) (A) (A) (A) (A) (A) (A) (A) (A) (A) (A)
                 (A) (A) (A) (A) (A) (A) (A) (A) (A) (A) (A) (A)
                 (A) (A) (A) (A) (A) (A) (A) (A) (A) (A) (A) (A)
                 (A) (A) (A) (A) (A) (A) (A) (A) (A) (A) (A) (A)
                 (A) (A) (A) (A) (A) (A) (A) (A) (A) (A) (A) (A)
                 (A) (A) (A) (A) (A) (A) (A) (A) (A) (A) (A) (A)
                 (A) (A) (A) (A) (A) (A) (A) (A) (A) (A) (A) (A)
                 (A) (A) (A) (A) (A) (A) (A) (A) (A) (A) (A) (A)
                 (A) (A) (A) (A) (A) (A) (A) (A) (A) (A) (A) (A)
                 (A) (A) (A) (A) (A) (A) (A) (A)
 Beta  Orbitals:
       Occupied  (A) (A) (A) (A) (A) (A) (A) (A) (A) (A) (A) (A)
                 (A) (A) (A) (A) (A) (A) (A) (A) (A) (A) (A) (A)
                 (A) (A) (A) (A) (A) (A) (A) (A)
       Virtual   (A) (A) (A) (A) (A) (A) (A) (A) (A) (A) (A) (A)
                 (A) (A) (A) (A) (A) (A) (A) (A) (A) (A) (A) (A)
                 (A) (A) (A) (A) (A) (A) (A) (A) (A) (A) (A) (A)
                 (A) (A) (A) (A) (A) (A) (A) (A) (A) (A) (A) (A)
                 (A) (A) (A) (A) (A) (A) (A) (A) (A) (A) (A) (A)
                 (A) (A) (A) (A) (A) (A) (A) (A) (A) (A) (A) (A)
                 (A) (A) (A) (A) (A) (A) (A) (A) (A) (A) (A) (A)
                 (A) (A) (A) (A) (A) (A) (A) (A) (A) (A) (A) (A)
                 (A) (A) (A) (A) (A) (A) (A) (A) (A) (A) (A) (A)
                 (A) (A) (A) (A) (A) (A) (A) (A) (A) (A) (A) (A)
                 (A) (A) (A) (A) (A) (A) (A) (A) (A) (A) (A) (A)
                 (A) (A) (A) (A) (A) (A) (A) (A) (A) (A) (A) (A)
                 (A) (A) (A) (A) (A) (A) (A) (A) (A) (A) (A) (A)
                 (A) (A) (A) (A) (A) (A) (A) (A) (A) (A) (A) (A)
                 (A) (A) (A) (A) (A) (A) (A) (A) (A) (A) (A) (A)
                 (A) (A) (A) (A) (A) (A) (A) (A) (A) (A) (A) (A)
                 (A) (A) (A) (A) (A) (A) (A) (A) (A) (A) (A) (A)
                 (A) (A) (A) (A) (A) (A) (A) (A) (A) (A) (A) (A)
                 (A) (A) (A) (A) (A) (A) (A) (A) (A) (A) (A) (A)
                 (A) (A) (A) (A) (A) (A) (A) (A) (A) (A) (A) (A)
                 (A) (A) (A) (A) (A) (A) (A) (A) (A) (A) (A) (A)
                 (A) (A) (A) (A) (A) (A) (A) (A) (A) (A) (A) (A)
                 (A) (A) (A) (A) (A) (A) (A) (A) (A) (A) (A) (A)
                 (A) (A) (A) (A) (A) (A) (A) (A) (A) (A) (A) (A)
                 (A) (A) (A) (A) (A) (A) (A) (A) (A) (A) (A) (A)
                 (A) (A) (A) (A) (A) (A) (A) (A) (A) (A) (A) (A)
                 (A) (A) (A) (A) (A) (A) (A) (A) (A) (A) (A) (A)
                 (A) (A) (A) (A) (A) (A) (A) (A) (A) (A) (A) (A)
                 (A) (A) (A) (A) (A) (A) (A) (A) (A) (A) (A) (A)
                 (A) (A) (A) (A) (A) (A) (A) (A) (A) (A) (A) (A)
                 (A) (A) (A) (A) (A) (A) (A) (A) (A) (A) (A) (A)
                 (A) (A) (A) (A) (A) (A) (A) (A) (A) (A) (A) (A)
                 (A) (A) (A) (A) (A) (A) (A) (A) (A)
 The electronic state is 2-A.
 Alpha  occ. eigenvalues --  -10.55138 -10.53958 -10.53760 -10.53739 -10.52981
 Alpha  occ. eigenvalues --  -10.52627 -10.52506 -10.52360  -0.92171  -0.88134
 Alpha  occ. eigenvalues --   -0.81775  -0.76698  -0.76082  -0.69880  -0.64762
 Alpha  occ. eigenvalues --   -0.62050  -0.54778  -0.51395  -0.50938  -0.49951
 Alpha  occ. eigenvalues --   -0.47702  -0.47052  -0.46014  -0.44554  -0.43152
 Alpha  occ. eigenvalues --   -0.42021  -0.40538  -0.39248  -0.39000  -0.37499
 Alpha  occ. eigenvalues --   -0.36629  -0.35744  -0.28998
 Alpha virt. eigenvalues --    0.01411   0.02273   0.02774   0.02879   0.04514
 Alpha virt. eigenvalues --    0.04842   0.05030   0.05390   0.06290   0.07360
 Alpha virt. eigenvalues --    0.07524   0.08060   0.08716   0.08850   0.09338
 Alpha virt. eigenvalues --    0.10028   0.10940   0.11744   0.12136   0.12561
 Alpha virt. eigenvalues --    0.12851   0.12961   0.14674   0.15137   0.15826
 Alpha virt. eigenvalues --    0.16888   0.18455   0.18561   0.19612   0.19970
 Alpha virt. eigenvalues --    0.20002   0.21455   0.21933   0.22229   0.22576
 Alpha virt. eigenvalues --    0.23606   0.23731   0.24302   0.25193   0.25692
 Alpha virt. eigenvalues --    0.26349   0.27031   0.27286   0.27836   0.28199
 Alpha virt. eigenvalues --    0.29010   0.29233   0.29768   0.30877   0.31088
 Alpha virt. eigenvalues --    0.31287   0.31830   0.32227   0.34363   0.38128
 Alpha virt. eigenvalues --    0.39278   0.40783   0.41340   0.43194   0.44270
 Alpha virt. eigenvalues --    0.45536   0.46446   0.47045   0.48997   0.49717
 Alpha virt. eigenvalues --    0.51235   0.51404   0.52507   0.53123   0.54108
 Alpha virt. eigenvalues --    0.55289   0.55347   0.56709   0.57531   0.58264
 Alpha virt. eigenvalues --    0.58429   0.59605   0.60088   0.60477   0.60609
 Alpha virt. eigenvalues --    0.61656   0.62136   0.62868   0.63161   0.63821
 Alpha virt. eigenvalues --    0.64556   0.65095   0.65477   0.66640   0.67090
 Alpha virt. eigenvalues --    0.68003   0.68641   0.70585   0.71072   0.71478
 Alpha virt. eigenvalues --    0.71657   0.72730   0.72900   0.73477   0.75121
 Alpha virt. eigenvalues --    0.76012   0.79944   0.80229   0.81909   0.84915
 Alpha virt. eigenvalues --    0.85430   0.87338   0.87855   0.88455   0.89406
 Alpha virt. eigenvalues --    0.92079   0.92846   0.93976   0.95070   0.95994
 Alpha virt. eigenvalues --    0.99093   0.99529   1.00972   1.01861   1.03372
 Alpha virt. eigenvalues --    1.04809   1.06102   1.06860   1.08071   1.08732
 Alpha virt. eigenvalues --    1.11291   1.12355   1.13836   1.14054   1.14748
 Alpha virt. eigenvalues --    1.15766   1.16498   1.17106   1.18033   1.19439
 Alpha virt. eigenvalues --    1.20359   1.21219   1.22212   1.22531   1.24494
 Alpha virt. eigenvalues --    1.25492   1.26646   1.27432   1.29138   1.29892
 Alpha virt. eigenvalues --    1.31122   1.31787   1.33244   1.33794   1.34729
 Alpha virt. eigenvalues --    1.35068   1.35709   1.36506   1.37202   1.38220
 Alpha virt. eigenvalues --    1.39691   1.40335   1.41385   1.42419   1.43000
 Alpha virt. eigenvalues --    1.43987   1.44854   1.46473   1.46828   1.47281
 Alpha virt. eigenvalues --    1.48402   1.48949   1.49876   1.50773   1.52038
 Alpha virt. eigenvalues --    1.52552   1.53401   1.55026   1.56489   1.57968
 Alpha virt. eigenvalues --    1.58595   1.60646   1.61599   1.62339   1.62587
 Alpha virt. eigenvalues --    1.63653   1.65568   1.66002   1.67168   1.68114
 Alpha virt. eigenvalues --    1.69351   1.70881   1.71870   1.72977   1.76043
 Alpha virt. eigenvalues --    1.78575   1.81150   1.81959   1.82635   1.84955
 Alpha virt. eigenvalues --    1.94712   2.40017   2.43420   2.46502   2.49303
 Alpha virt. eigenvalues --    2.50281   2.52041   2.54579   2.56399   2.58102
 Alpha virt. eigenvalues --    2.60860   2.64898   2.66254   2.67621   2.72081
 Alpha virt. eigenvalues --    2.72479   2.74241   2.75385   2.76829   2.78592
 Alpha virt. eigenvalues --    2.79048   2.80626   2.81588   2.83043   2.84620
 Alpha virt. eigenvalues --    2.86804   2.87831   2.89845   2.90167   2.90903
 Alpha virt. eigenvalues --    2.93933   2.95043   2.95673   2.98060   2.98692
 Alpha virt. eigenvalues --    2.99649   3.00099   3.01508   3.01943   3.02983
 Alpha virt. eigenvalues --    3.04605   3.05281   3.06729   3.08597   3.10155
 Alpha virt. eigenvalues --    3.11584   3.13082   3.17305   3.17861   3.18117
 Alpha virt. eigenvalues --    3.21100   3.21847   3.23642   3.26883   3.27899
 Alpha virt. eigenvalues --    3.28899   3.29752   3.30758   3.30976   3.32920
 Alpha virt. eigenvalues --    3.33631   3.34490   3.35313   3.36034   3.37986
 Alpha virt. eigenvalues --    3.38858   3.40812   3.42145   3.42415   3.43575
 Alpha virt. eigenvalues --    3.45573   3.46663   3.48730   3.49721   3.52560
 Alpha virt. eigenvalues --    3.53949   3.55653   3.57009   3.58326   3.59689
 Alpha virt. eigenvalues --    3.60029   3.63172   3.63924   3.64968   3.66288
 Alpha virt. eigenvalues --    3.66949   3.67900   3.69944   3.71775   3.72602
 Alpha virt. eigenvalues --    3.74694   3.75617   3.76590   3.77604   3.79091
 Alpha virt. eigenvalues --    3.80024   3.81428   3.82388   3.83768   3.86047
 Alpha virt. eigenvalues --    3.88721   3.90434   3.90622   3.93403   3.94000
 Alpha virt. eigenvalues --    3.94607   3.95293   3.96780   3.97835   3.98974
 Alpha virt. eigenvalues --    3.99881   4.00119   4.01744   4.02423   4.03760
 Alpha virt. eigenvalues --    4.05760   4.07245   4.08661   4.10767   4.11655
 Alpha virt. eigenvalues --    4.12580   4.13398   4.16306   4.17928   4.18556
 Alpha virt. eigenvalues --    4.19413   4.20039   4.21696   4.22552   4.24039
 Alpha virt. eigenvalues --    4.26329   4.26826   4.28196   4.30002   4.30540
 Alpha virt. eigenvalues --    4.31523   4.31849   4.33473   4.34688   4.37867
 Alpha virt. eigenvalues --    4.39592   4.40418   4.42679   4.45113   4.46093
 Alpha virt. eigenvalues --    4.46897   4.47791   4.48825   4.49768   4.51576
 Alpha virt. eigenvalues --    4.52803   4.54055   4.54903   4.56751   4.58517
 Alpha virt. eigenvalues --    4.59954   4.61260   4.62320   4.63483   4.67547
 Alpha virt. eigenvalues --    4.70007   4.72236   4.73249   4.75113   4.75748
 Alpha virt. eigenvalues --    4.78082   4.81813   4.90460   4.93369   5.00959
 Alpha virt. eigenvalues --    5.11619   5.21888   5.28237   5.35023   5.36716
 Alpha virt. eigenvalues --    5.38192   5.42944   5.46821   5.48563   5.51761
 Alpha virt. eigenvalues --    5.52844   5.55271   5.56882   5.58570   5.59486
 Alpha virt. eigenvalues --    5.60663   5.61782   5.62608   5.68765  24.13454
 Alpha virt. eigenvalues --   24.22688  24.25879  24.32758  24.34573  24.37524
 Alpha virt. eigenvalues --   24.42176  24.43723
  Beta  occ. eigenvalues --  -10.54269 -10.53947 -10.53769 -10.53761 -10.52970
  Beta  occ. eigenvalues --  -10.52628 -10.52506 -10.52359  -0.91980  -0.87775
  Beta  occ. eigenvalues --   -0.80388  -0.76686  -0.76050  -0.68247  -0.63975
  Beta  occ. eigenvalues --   -0.61945  -0.54554  -0.51060  -0.50455  -0.49492
  Beta  occ. eigenvalues --   -0.47268  -0.46094  -0.45847  -0.44490  -0.42867
  Beta  occ. eigenvalues --   -0.41485  -0.40482  -0.39043  -0.38743  -0.37305
  Beta  occ. eigenvalues --   -0.36452  -0.35537
  Beta virt. eigenvalues --   -0.03790   0.01356   0.02184   0.02719   0.02937
  Beta virt. eigenvalues --    0.04611   0.04763   0.04975   0.05508   0.06122
  Beta virt. eigenvalues --    0.07343   0.07537   0.08068   0.08696   0.08962
  Beta virt. eigenvalues --    0.09016   0.10191   0.11000   0.11335   0.12069
  Beta virt. eigenvalues --    0.12569   0.12981   0.13082   0.14583   0.15103
  Beta virt. eigenvalues --    0.15919   0.16704   0.17724   0.18654   0.18935
  Beta virt. eigenvalues --    0.19815   0.20053   0.21506   0.21987   0.22403
  Beta virt. eigenvalues --    0.22866   0.23645   0.23794   0.24327   0.25294
  Beta virt. eigenvalues --    0.25866   0.26315   0.26815   0.27411   0.27852
  Beta virt. eigenvalues --    0.28190   0.29148   0.29306   0.29988   0.30854
  Beta virt. eigenvalues --    0.31145   0.31350   0.31834   0.32438   0.34654
  Beta virt. eigenvalues --    0.38007   0.39193   0.40912   0.41291   0.43189
  Beta virt. eigenvalues --    0.44392   0.45586   0.46682   0.47085   0.49064
  Beta virt. eigenvalues --    0.50533   0.51257   0.51555   0.52561   0.53222
  Beta virt. eigenvalues --    0.54342   0.55358   0.56610   0.56869   0.57694
  Beta virt. eigenvalues --    0.57972   0.58597   0.59372   0.59936   0.60532
  Beta virt. eigenvalues --    0.60721   0.61782   0.62115   0.63051   0.63553
  Beta virt. eigenvalues --    0.63817   0.64694   0.64960   0.65449   0.66703
  Beta virt. eigenvalues --    0.67293   0.67802   0.68688   0.70600   0.71056
  Beta virt. eigenvalues --    0.71484   0.71555   0.72526   0.72962   0.73537
  Beta virt. eigenvalues --    0.75193   0.76062   0.79750   0.80313   0.81511
  Beta virt. eigenvalues --    0.84901   0.85440   0.87259   0.87702   0.88466
  Beta virt. eigenvalues --    0.89475   0.91962   0.92887   0.93863   0.95123
  Beta virt. eigenvalues --    0.96026   0.98733   0.99554   1.01084   1.01840
  Beta virt. eigenvalues --    1.03266   1.04705   1.06190   1.06814   1.08134
  Beta virt. eigenvalues --    1.08694   1.11369   1.12373   1.13921   1.14056
  Beta virt. eigenvalues --    1.14818   1.15811   1.16525   1.17023   1.18045
  Beta virt. eigenvalues --    1.19648   1.20463   1.21374   1.22330   1.22794
  Beta virt. eigenvalues --    1.24571   1.25582   1.26696   1.27470   1.29174
  Beta virt. eigenvalues --    1.29995   1.31379   1.31886   1.33401   1.34087
  Beta virt. eigenvalues --    1.34726   1.35188   1.35631   1.36626   1.37360
  Beta virt. eigenvalues --    1.38386   1.39708   1.40453   1.41560   1.42496
  Beta virt. eigenvalues --    1.43013   1.44132   1.44858   1.46574   1.47201
  Beta virt. eigenvalues --    1.47413   1.48446   1.48981   1.50009   1.50859
  Beta virt. eigenvalues --    1.52017   1.52602   1.53633   1.55044   1.56513
  Beta virt. eigenvalues --    1.58423   1.58724   1.60758   1.61715   1.62377
  Beta virt. eigenvalues --    1.62627   1.63673   1.65648   1.66001   1.67179
  Beta virt. eigenvalues --    1.68121   1.69363   1.70950   1.71982   1.72971
  Beta virt. eigenvalues --    1.75960   1.78743   1.81219   1.82006   1.82406
  Beta virt. eigenvalues --    1.85004   1.94877   2.40221   2.43547   2.46808
  Beta virt. eigenvalues --    2.49569   2.51242   2.52241   2.54763   2.56502
  Beta virt. eigenvalues --    2.58486   2.61016   2.65194   2.66553   2.67811
  Beta virt. eigenvalues --    2.72316   2.72803   2.75074   2.76152   2.77160
  Beta virt. eigenvalues --    2.79017   2.80444   2.81095   2.81820   2.84136
  Beta virt. eigenvalues --    2.86182   2.87510   2.88523   2.90027   2.90766
  Beta virt. eigenvalues --    2.92153   2.94808   2.95383   2.96079   2.98483
  Beta virt. eigenvalues --    2.99250   3.00317   3.00923   3.01865   3.03399
  Beta virt. eigenvalues --    3.03711   3.05353   3.05677   3.07891   3.08997
  Beta virt. eigenvalues --    3.10932   3.12510   3.13843   3.17847   3.18206
  Beta virt. eigenvalues --    3.19882   3.21799   3.22166   3.25010   3.27705
  Beta virt. eigenvalues --    3.28365   3.29325   3.30838   3.31200   3.31966
  Beta virt. eigenvalues --    3.33247   3.33960   3.34772   3.35968   3.37664
  Beta virt. eigenvalues --    3.38378   3.40166   3.41336   3.42501   3.42955
  Beta virt. eigenvalues --    3.43808   3.46346   3.47286   3.49272   3.51449
  Beta virt. eigenvalues --    3.53877   3.56594   3.56896   3.57341   3.59233
  Beta virt. eigenvalues --    3.60142   3.60574   3.63822   3.64340   3.65729
  Beta virt. eigenvalues --    3.66926   3.67574   3.68984   3.70064   3.72090
  Beta virt. eigenvalues --    3.73100   3.74760   3.75827   3.77272   3.77715
  Beta virt. eigenvalues --    3.79720   3.80470   3.82532   3.82988   3.83921
  Beta virt. eigenvalues --    3.86393   3.89249   3.90773   3.91066   3.93499
  Beta virt. eigenvalues --    3.94408   3.94946   3.95636   3.97243   3.97955
  Beta virt. eigenvalues --    3.99072   4.00154   4.00514   4.02363   4.03044
  Beta virt. eigenvalues --    4.04409   4.06094   4.07566   4.09377   4.11024
  Beta virt. eigenvalues --    4.12270   4.12964   4.14280   4.16474   4.18199
  Beta virt. eigenvalues --    4.18893   4.20198   4.20278   4.21739   4.22731
  Beta virt. eigenvalues --    4.24233   4.26515   4.27107   4.28416   4.30849
  Beta virt. eigenvalues --    4.31178   4.31727   4.32395   4.34404   4.34973
  Beta virt. eigenvalues --    4.38616   4.39929   4.40992   4.43332   4.45181
  Beta virt. eigenvalues --    4.46174   4.47419   4.48083   4.49175   4.50299
  Beta virt. eigenvalues --    4.51732   4.53386   4.54273   4.55532   4.57239
  Beta virt. eigenvalues --    4.58659   4.60045   4.61468   4.62512   4.63799
  Beta virt. eigenvalues --    4.67916   4.70495   4.72390   4.73405   4.75246
  Beta virt. eigenvalues --    4.76063   4.78326   4.82466   4.90631   4.93539
  Beta virt. eigenvalues --    5.01358   5.12533   5.22369   5.29327   5.35081
  Beta virt. eigenvalues --    5.38155   5.39508   5.44370   5.47562   5.51176
  Beta virt. eigenvalues --    5.51989   5.53230   5.55501   5.56888   5.58575
  Beta virt. eigenvalues --    5.59267   5.60691   5.61790   5.62887   5.68897
  Beta virt. eigenvalues --   24.14670  24.22738  24.26049  24.32778  24.34594
  Beta virt. eigenvalues --   24.37642  24.42189  24.43730
          Condensed to atoms (all electrons):
              1          2          3          4          5          6
     1  C    6.877203   0.206288  -1.016101  -0.361463  -0.081225  -0.160656
     2  C    0.206288   5.926027  -0.582843  -0.166637   0.080373   0.051981
     3  C   -1.016101  -0.582843   7.086097   0.195293  -0.042318   0.201886
     4  C   -0.361463  -0.166637   0.195293   5.802893   0.033527   0.007796
     5  C   -0.081225   0.080373  -0.042318   0.033527   5.531336  -0.010213
     6  C   -0.160656   0.051981   0.201886   0.007796  -0.010213   5.404686
     7  C    0.105646   0.032280  -0.047389  -0.017688  -0.001446  -0.147403
     8  C   -0.064330   0.008762   0.171314  -0.015897  -0.086583   0.004870
     9  H    0.530156  -0.007209  -0.079782  -0.033151  -0.036804  -0.000316
    10  H   -0.013795   0.496316  -0.037352  -0.003353  -0.012778  -0.017824
    11  H   -0.022353  -0.011182   0.420550   0.002118  -0.016619  -0.017398
    12  H    0.021586  -0.024121   0.396371  -0.022255  -0.010780   0.007898
    13  H    0.061001   0.000350  -0.063209   0.420812   0.002728  -0.000038
    14  H   -0.149557   0.000178   0.059352   0.485780   0.002700   0.000783
    15  H   -0.125135  -0.000946   0.079456  -0.019746   0.433382   0.002389
    16  H   -0.010965   0.020549  -0.050314   0.003727   0.418470   0.004274
    17  H    0.052125  -0.004080  -0.033062  -0.031674   0.395179  -0.004274
    18  H   -0.000725   0.053784  -0.048815  -0.001249  -0.001627   0.382321
    19  H    0.001061  -0.027330  -0.028353  -0.002346   0.002932   0.409752
    20  H   -0.000586  -0.091951   0.059389   0.001649   0.001028   0.434078
    21  H   -0.005542   0.015147  -0.023703  -0.005320  -0.000006  -0.008396
    22  H    0.022043  -0.007902  -0.033998   0.004962  -0.004548   0.009988
    23  H   -0.005471  -0.123973   0.063620   0.003076  -0.000315  -0.009563
    24  H    0.040289   0.001103   0.002476  -0.085811   0.004110   0.000080
    25  H   -0.018406   0.000651  -0.012687   0.001089   0.003898   0.000016
              7          8          9         10         11         12
     1  C    0.105646  -0.064330   0.530156  -0.013795  -0.022353   0.021586
     2  C    0.032280   0.008762  -0.007209   0.496316  -0.011182  -0.024121
     3  C   -0.047389   0.171314  -0.079782  -0.037352   0.420550   0.396371
     4  C   -0.017688  -0.015897  -0.033151  -0.003353   0.002118  -0.022255
     5  C   -0.001446  -0.086583  -0.036804  -0.012778  -0.016619  -0.010780
     6  C   -0.147403   0.004870  -0.000316  -0.017824  -0.017398   0.007898
     7  C    5.501084   0.002444  -0.006069  -0.064156  -0.013237  -0.001688
     8  C    0.002444   5.723998  -0.016030   0.000881   0.017246  -0.001064
     9  H   -0.006069  -0.016030   0.469034   0.000274  -0.003249   0.003244
    10  H   -0.064156   0.000881   0.000274   0.495578   0.003951  -0.005999
    11  H   -0.013237   0.017246  -0.003249   0.003951   0.473645  -0.023932
    12  H   -0.001688  -0.001064   0.003244  -0.005999  -0.023932   0.469336
    13  H    0.000080  -0.056029   0.004235  -0.000010  -0.000896   0.000728
    14  H   -0.000745  -0.045930  -0.006159  -0.000025  -0.000282   0.000016
    15  H   -0.003543   0.005663  -0.002232   0.000371  -0.000266  -0.000286
    16  H    0.000021   0.000342  -0.008672  -0.006843  -0.000144   0.000217
    17  H    0.002133   0.000806   0.004704  -0.000275   0.000260  -0.000393
    18  H   -0.007404   0.000274  -0.000004   0.005910   0.001574  -0.001044
    19  H    0.023794   0.000203   0.000006  -0.006851   0.000003   0.001739
    20  H   -0.023387  -0.000151  -0.000006  -0.006912  -0.000170  -0.000029
    21  H    0.404129   0.000634  -0.000132   0.004902   0.000003   0.000140
    22  H    0.394501   0.000504  -0.005468  -0.008181  -0.000104  -0.000135
    23  H    0.450458  -0.000556   0.000259  -0.002357  -0.000267  -0.000257
    24  H   -0.000005   0.411070  -0.000055   0.000001  -0.000076  -0.000062
    25  H   -0.001217   0.386925   0.001469  -0.000002  -0.000702  -0.000056
             13         14         15         16         17         18
     1  C    0.061001  -0.149557  -0.125135  -0.010965   0.052125  -0.000725
     2  C    0.000350   0.000178  -0.000946   0.020549  -0.004080   0.053784
     3  C   -0.063209   0.059352   0.079456  -0.050314  -0.033062  -0.048815
     4  C    0.420812   0.485780  -0.019746   0.003727  -0.031674  -0.001249
     5  C    0.002728   0.002700   0.433382   0.418470   0.395179  -0.001627
     6  C   -0.000038   0.000783   0.002389   0.004274  -0.004274   0.382321
     7  C    0.000080  -0.000745  -0.003543   0.000021   0.002133  -0.007404
     8  C   -0.056029  -0.045930   0.005663   0.000342   0.000806   0.000274
     9  H    0.004235  -0.006159  -0.002232  -0.008672   0.004704  -0.000004
    10  H   -0.000010  -0.000025   0.000371  -0.006843  -0.000275   0.005910
    11  H   -0.000896  -0.000282  -0.000266  -0.000144   0.000260   0.001574
    12  H    0.000728   0.000016  -0.000286   0.000217  -0.000393  -0.001044
    13  H    0.494070  -0.030553   0.000200  -0.000306   0.000125  -0.000004
    14  H   -0.030553   0.531590   0.004409   0.000375  -0.000258   0.000000
    15  H    0.000200   0.004409   0.527238  -0.024021  -0.023915   0.000002
    16  H   -0.000306   0.000375  -0.024021   0.525465  -0.028195  -0.000009
    17  H    0.000125  -0.000258  -0.023915  -0.028195   0.500677   0.000003
    18  H   -0.000004   0.000000   0.000002  -0.000009   0.000003   0.527262
    19  H   -0.000003   0.000002  -0.000003   0.000024   0.000005  -0.030122
    20  H   -0.000001   0.000000  -0.000002   0.000002   0.000002  -0.027759
    21  H   -0.000004   0.000001   0.000011  -0.000142  -0.000010   0.001184
    22  H   -0.000007   0.000014   0.000201   0.000805  -0.000145  -0.000217
    23  H    0.000002  -0.000002   0.000007   0.000167   0.000011  -0.000759
    24  H   -0.005666  -0.001949  -0.000055   0.000014  -0.000015   0.000001
    25  H    0.005090  -0.006375   0.000034  -0.000033  -0.000013   0.000000
             19         20         21         22         23         24
     1  C    0.001061  -0.000586  -0.005542   0.022043  -0.005471   0.040289
     2  C   -0.027330  -0.091951   0.015147  -0.007902  -0.123973   0.001103
     3  C   -0.028353   0.059389  -0.023703  -0.033998   0.063620   0.002476
     4  C   -0.002346   0.001649  -0.005320   0.004962   0.003076  -0.085811
     5  C    0.002932   0.001028  -0.000006  -0.004548  -0.000315   0.004110
     6  C    0.409752   0.434078  -0.008396   0.009988  -0.009563   0.000080
     7  C    0.023794  -0.023387   0.404129   0.394501   0.450458  -0.000005
     8  C    0.000203  -0.000151   0.000634   0.000504  -0.000556   0.411070
     9  H    0.000006  -0.000006  -0.000132  -0.005468   0.000259  -0.000055
    10  H   -0.006851  -0.006912   0.004902  -0.008181  -0.002357   0.000001
    11  H    0.000003  -0.000170   0.000003  -0.000104  -0.000267  -0.000076
    12  H    0.001739  -0.000029   0.000140  -0.000135  -0.000257  -0.000062
    13  H   -0.000003  -0.000001  -0.000004  -0.000007   0.000002  -0.005666
    14  H    0.000002   0.000000   0.000001   0.000014  -0.000002  -0.001949
    15  H   -0.000003  -0.000002   0.000011   0.000201   0.000007  -0.000055
    16  H    0.000024   0.000002  -0.000142   0.000805   0.000167   0.000014
    17  H    0.000005   0.000002  -0.000010  -0.000145   0.000011  -0.000015
    18  H   -0.030122  -0.027759   0.001184  -0.000217  -0.000759   0.000001
    19  H    0.538002  -0.021485  -0.000275  -0.000371   0.000531   0.000000
    20  H   -0.021485   0.527792   0.000077   0.000373   0.003215   0.000000
    21  H   -0.000275   0.000077   0.504244  -0.028254  -0.025185  -0.000001
    22  H   -0.000371   0.000373  -0.028254   0.530762  -0.023170   0.000005
    23  H    0.000531   0.003215  -0.025185  -0.023170   0.521158   0.000000
    24  H    0.000000   0.000000  -0.000001   0.000005   0.000000   0.517085
    25  H   -0.000002   0.000000  -0.000027  -0.000008   0.000004  -0.030967
             25
     1  C   -0.018406
     2  C    0.000651
     3  C   -0.012687
     4  C    0.001089
     5  C    0.003898
     6  C    0.000016
     7  C   -0.001217
     8  C    0.386925
     9  H    0.001469
    10  H   -0.000002
    11  H   -0.000702
    12  H   -0.000056
    13  H    0.005090
    14  H   -0.006375
    15  H    0.000034
    16  H   -0.000033
    17  H   -0.000013
    18  H    0.000000
    19  H   -0.000002
    20  H    0.000000
    21  H   -0.000027
    22  H   -0.000008
    23  H    0.000004
    24  H   -0.030967
    25  H    0.523991
 Mulliken atomic charges:
              1
     1  C    0.118913
     2  C    0.154387
     3  C   -0.635878
     4  C   -0.196133
     5  C   -0.604400
     6  C   -0.546718
     7  C   -0.581189
     8  C   -0.449366
     9  H    0.191957
    10  H    0.178527
    11  H    0.191526
    12  H    0.190826
    13  H    0.167305
    14  H    0.156637
    15  H    0.146789
    16  H    0.155194
    17  H    0.170279
    18  H    0.147420
    19  H    0.139088
    20  H    0.144835
    21  H    0.166527
    22  H    0.148349
    23  H    0.149367
    24  H    0.148429
    25  H    0.147328
 Sum of Mulliken atomic charges =   0.00000
 Mulliken charges with hydrogens summed into heavy atoms:
              1
     1  C    0.310870
     2  C    0.332914
     3  C   -0.253525
     4  C    0.127809
     5  C   -0.132138
     6  C   -0.115375
     7  C   -0.116946
     8  C   -0.153610
 Sum of Mulliken charges with hydrogens summed into heavy atoms =   0.00000
          Atomic-Atomic Spin Densities.
              1          2          3          4          5          6
     1  C    0.487976   0.022976  -0.258085  -0.203035  -0.017438  -0.016501
     2  C    0.022976   0.020011  -0.012318  -0.006761  -0.006382  -0.009443
     3  C   -0.258085  -0.012318   0.227990   0.095941   0.006552   0.005283
     4  C   -0.203035  -0.006761   0.095941   0.114569   0.012646   0.002984
     5  C   -0.017438  -0.006382   0.006552   0.012646  -0.001650   0.003053
     6  C   -0.016501  -0.009443   0.005283   0.002984   0.003053   0.010311
     7  C    0.004618  -0.018404  -0.011065  -0.004933   0.001858   0.005436
     8  C   -0.033466   0.000286   0.019362  -0.073505  -0.004093   0.000624
     9  H    0.009082   0.001035  -0.008930  -0.006604   0.002770   0.000080
    10  H    0.004912   0.010544  -0.005237  -0.000506   0.002619  -0.003924
    11  H    0.020725   0.022699  -0.014967   0.007401   0.005245  -0.005737
    12  H   -0.006604  -0.005220   0.004551  -0.003551  -0.000496   0.002215
    13  H    0.032220   0.001470  -0.019322  -0.008336   0.002262  -0.000417
    14  H   -0.070658  -0.001548   0.035146   0.052497  -0.001897   0.000447
    15  H   -0.000482  -0.000388   0.000391   0.001609  -0.001882  -0.000020
    16  H   -0.003682  -0.001087   0.002598   0.001013   0.000045   0.000253
    17  H   -0.004364   0.000003   0.002424   0.001006   0.000993   0.000169
    18  H    0.000647   0.002034  -0.000163   0.000051   0.000100  -0.001438
    19  H   -0.000424  -0.000738   0.000017  -0.000040   0.000063   0.000596
    20  H   -0.000151  -0.001567  -0.000107   0.000009  -0.000006   0.000710
    21  H    0.001003   0.003031  -0.001632   0.000095   0.000140  -0.000815
    22  H   -0.000329  -0.001721   0.000622  -0.000191  -0.000060   0.000344
    23  H    0.000132  -0.001769  -0.000304   0.000027  -0.000078   0.000343
    24  H    0.010466  -0.000016  -0.003091   0.005500   0.000540  -0.000023
    25  H    0.019171   0.001839  -0.012907   0.000761   0.000109  -0.000183
              7          8          9         10         11         12
     1  C    0.004618  -0.033466   0.009082   0.004912   0.020725  -0.006604
     2  C   -0.018404   0.000286   0.001035   0.010544   0.022699  -0.005220
     3  C   -0.011065   0.019362  -0.008930  -0.005237  -0.014967   0.004551
     4  C   -0.004933  -0.073505  -0.006604  -0.000506   0.007401  -0.003551
     5  C    0.001858  -0.004093   0.002770   0.002619   0.005245  -0.000496
     6  C    0.005436   0.000624   0.000080  -0.003924  -0.005737   0.002215
     7  C    0.018589   0.000596   0.000754  -0.004998  -0.008053   0.001336
     8  C    0.000596   1.193339   0.000407  -0.000978  -0.021540   0.004628
     9  H    0.000754   0.000407  -0.003619  -0.000104  -0.000417   0.000212
    10  H   -0.004998  -0.000978  -0.000104  -0.000835  -0.000756  -0.000017
    11  H   -0.008053  -0.021540  -0.000417  -0.000756  -0.037397   0.000754
    12  H    0.001336   0.004628   0.000212  -0.000017   0.000754  -0.000419
    13  H   -0.000032  -0.009494   0.000174   0.000012   0.000160   0.000066
    14  H   -0.000100  -0.029886  -0.000433  -0.000019  -0.000036   0.000060
    15  H    0.000151   0.001034   0.000016  -0.000010   0.000014   0.000017
    16  H    0.000589  -0.000295  -0.000018  -0.000113  -0.000009   0.000026
    17  H   -0.000117  -0.000194  -0.000070  -0.000111  -0.000048   0.000085
    18  H   -0.000618  -0.000242  -0.000004  -0.000051  -0.000370  -0.000020
    19  H    0.000392   0.000043   0.000000  -0.000161  -0.000143   0.000054
    20  H    0.000861   0.000015   0.000002  -0.000118  -0.000037   0.000022
    21  H   -0.001003  -0.000426   0.000012  -0.000098  -0.000594   0.000011
    22  H    0.000995   0.000115   0.000079  -0.000046   0.000001   0.000008
    23  H    0.001340   0.000033   0.000005  -0.000014   0.000014   0.000006
    24  H    0.000051  -0.017406  -0.000026   0.000001   0.000083  -0.000021
    25  H   -0.000303  -0.017586  -0.000431   0.000005   0.000579  -0.000021
             13         14         15         16         17         18
     1  C    0.032220  -0.070658  -0.000482  -0.003682  -0.004364   0.000647
     2  C    0.001470  -0.001548  -0.000388  -0.001087   0.000003   0.002034
     3  C   -0.019322   0.035146   0.000391   0.002598   0.002424  -0.000163
     4  C   -0.008336   0.052497   0.001609   0.001013   0.001006   0.000051
     5  C    0.002262  -0.001897  -0.001882   0.000045   0.000993   0.000100
     6  C   -0.000417   0.000447  -0.000020   0.000253   0.000169  -0.001438
     7  C   -0.000032  -0.000100   0.000151   0.000589  -0.000117  -0.000618
     8  C   -0.009494  -0.029886   0.001034  -0.000295  -0.000194  -0.000242
     9  H    0.000174  -0.000433   0.000016  -0.000018  -0.000070  -0.000004
    10  H    0.000012  -0.000019  -0.000010  -0.000113  -0.000111  -0.000051
    11  H    0.000160  -0.000036   0.000014  -0.000009  -0.000048  -0.000370
    12  H    0.000066   0.000060   0.000017   0.000026   0.000085  -0.000020
    13  H    0.013740  -0.006345  -0.000107  -0.000050  -0.000143   0.000000
    14  H   -0.006345   0.067082   0.000601   0.000143   0.000399   0.000000
    15  H   -0.000107   0.000601  -0.002336   0.000257   0.000099   0.000000
    16  H   -0.000050   0.000143   0.000257  -0.000197   0.000109   0.000000
    17  H   -0.000143   0.000399   0.000099   0.000109  -0.000344  -0.000001
    18  H    0.000000   0.000000   0.000000   0.000000  -0.000001  -0.000059
    19  H   -0.000003   0.000001   0.000000   0.000003   0.000000  -0.000063
    20  H    0.000000   0.000000   0.000000   0.000002   0.000000  -0.000024
    21  H    0.000001  -0.000001   0.000001  -0.000001   0.000000  -0.000060
    22  H   -0.000002   0.000004   0.000002   0.000027   0.000003  -0.000001
    23  H    0.000000   0.000000   0.000000   0.000000   0.000000   0.000010
    24  H    0.000726  -0.002310  -0.000009  -0.000001  -0.000004   0.000000
    25  H    0.000249  -0.003272  -0.000027  -0.000005  -0.000003   0.000001
             19         20         21         22         23         24
     1  C   -0.000424  -0.000151   0.001003  -0.000329   0.000132   0.010466
     2  C   -0.000738  -0.001567   0.003031  -0.001721  -0.001769  -0.000016
     3  C    0.000017  -0.000107  -0.001632   0.000622  -0.000304  -0.003091
     4  C   -0.000040   0.000009   0.000095  -0.000191   0.000027   0.005500
     5  C    0.000063  -0.000006   0.000140  -0.000060  -0.000078   0.000540
     6  C    0.000596   0.000710  -0.000815   0.000344   0.000343  -0.000023
     7  C    0.000392   0.000861  -0.001003   0.000995   0.001340   0.000051
     8  C    0.000043   0.000015  -0.000426   0.000115   0.000033  -0.017406
     9  H    0.000000   0.000002   0.000012   0.000079   0.000005  -0.000026
    10  H   -0.000161  -0.000118  -0.000098  -0.000046  -0.000014   0.000001
    11  H   -0.000143  -0.000037  -0.000594   0.000001   0.000014   0.000083
    12  H    0.000054   0.000022   0.000011   0.000008   0.000006  -0.000021
    13  H   -0.000003   0.000000   0.000001  -0.000002   0.000000   0.000726
    14  H    0.000001   0.000000  -0.000001   0.000004   0.000000  -0.002310
    15  H    0.000000   0.000000   0.000001   0.000002   0.000000  -0.000009
    16  H    0.000003   0.000002  -0.000001   0.000027   0.000000  -0.000001
    17  H    0.000000   0.000000   0.000000   0.000003   0.000000  -0.000004
    18  H   -0.000063  -0.000024  -0.000060  -0.000001   0.000010   0.000000
    19  H    0.000051   0.000090  -0.000003   0.000004   0.000009   0.000000
    20  H    0.000090   0.000101   0.000000   0.000007   0.000047   0.000000
    21  H   -0.000003   0.000000  -0.000252  -0.000072   0.000106   0.000000
    22  H    0.000004   0.000007  -0.000072   0.000154   0.000035   0.000000
    23  H    0.000009   0.000047   0.000106   0.000035  -0.000028   0.000000
    24  H    0.000000   0.000000   0.000000   0.000000   0.000000  -0.027365
    25  H    0.000000   0.000000   0.000023  -0.000003  -0.000001   0.005096
             25
     1  C    0.019171
     2  C    0.001839
     3  C   -0.012907
     4  C    0.000761
     5  C    0.000109
     6  C   -0.000183
     7  C   -0.000303
     8  C   -0.017586
     9  H   -0.000431
    10  H    0.000005
    11  H    0.000579
    12  H   -0.000021
    13  H    0.000249
    14  H   -0.003272
    15  H   -0.000027
    16  H   -0.000005
    17  H   -0.000003
    18  H    0.000001
    19  H    0.000000
    20  H    0.000000
    21  H    0.000023
    22  H   -0.000003
    23  H   -0.000001
    24  H    0.005096
    25  H   -0.025680
 Mulliken atomic spin densities:
              1
     1  C   -0.001288
     2  C    0.018566
     3  C    0.052750
     4  C   -0.011355
     5  C    0.005016
     6  C   -0.005654
     7  C   -0.012058
     8  C    1.011372
     9  H   -0.006027
    10  H   -0.000003
    11  H   -0.032429
    12  H   -0.002316
    13  H    0.006829
    14  H    0.039875
    15  H   -0.001068
    16  H   -0.000392
    17  H   -0.000108
    18  H   -0.000269
    19  H   -0.000252
    20  H   -0.000143
    21  H   -0.000536
    22  H   -0.000024
    23  H   -0.000085
    24  H   -0.027810
    25  H   -0.032591
 Sum of Mulliken atomic spin densities =   1.00000
 Electronic spatial extent (au):  <R**2>=           1412.3148
 Charge=              0.0000 electrons
 Dipole moment (field-independent basis, Debye):
    X=              0.3557    Y=              0.6078    Z=              0.1251  Tot=              0.7152
 Quadrupole moment (field-independent basis, Debye-Ang):
   XX=            -53.8215   YY=            -57.5943   ZZ=            -55.1136
   XY=              0.1588   XZ=              0.2847   YZ=             -0.0997
 Traceless Quadrupole moment (field-independent basis, Debye-Ang):
   XX=              1.6883   YY=             -2.0845   ZZ=              0.3962
   XY=              0.1588   XZ=              0.2847   YZ=             -0.0997
 Octapole moment (field-independent basis, Debye-Ang**2):
  XXX=              6.5844  YYY=              4.6593  ZZZ=             -2.4445  XYY=             -3.2041
  XXY=              2.7747  XXZ=              2.0460  XZZ=              2.2286  YZZ=              1.1328
  YYZ=              1.7332  XYZ=              1.0304
 Hexadecapole moment (field-independent basis, Debye-Ang**3):
 XXXX=          -1275.4806 YYYY=           -464.9475 ZZZZ=           -278.5021 XXXY=            -13.2282
 XXXZ=             -5.3041 YYYX=             10.9923 YYYZ=              1.5424 ZZZX=              4.5154
 ZZZY=             -2.1904 XXYY=           -294.4003 XXZZ=           -268.3409 YYZZ=           -122.3248
 XXYZ=              2.2190 YYXZ=             -0.7109 ZZXY=             -1.1588
 N-N= 3.949650746067D+02 E-N=-2.269822217313D+03  KE= 4.687702492497D+02
                          Isotropic Fermi Contact Couplings
        Atom                 a.u.       MegaHertz       Gauss      10(-4) cm-1
     1  C(13)              0.00813       9.14147       3.26190       3.04927
     2  C(13)             -0.00049      -0.54835      -0.19566      -0.18291
     3  C(13)              0.00280       3.14505       1.12223       1.04908
     4  C(13)             -0.01799     -20.22261      -7.21593      -6.74554
     5  C(13)             -0.00092      -1.03866      -0.37062      -0.34646
     6  C(13)              0.00030       0.33670       0.12014       0.11231
     7  C(13)             -0.00001      -0.00805      -0.00287      -0.00268
     8  C(13)              0.38497     432.77924     154.42639     144.35962
     9  H(1)              -0.00025      -1.10124      -0.39295      -0.36733
    10  H(1)               0.00048       2.16588       0.77284       0.72246
    11  H(1)               0.00081       3.62810       1.29460       1.21020
    12  H(1)              -0.00005      -0.23425      -0.08359      -0.07814
    13  H(1)               0.00368      16.44909       5.86945       5.48683
    14  H(1)               0.02360     105.46961      37.63418      35.18088
    15  H(1)               0.00001       0.04355       0.01554       0.01453
    16  H(1)              -0.00014      -0.64498      -0.23014      -0.21514
    17  H(1)              -0.00001      -0.05363      -0.01914      -0.01789
    18  H(1)              -0.00001      -0.04533      -0.01617      -0.01512
    19  H(1)              -0.00001      -0.02760      -0.00985      -0.00921
    20  H(1)              -0.00001      -0.05356      -0.01911      -0.01787
    21  H(1)               0.00001       0.04404       0.01572       0.01469
    22  H(1)              -0.00001      -0.02243      -0.00800      -0.00748
    23  H(1)              -0.00001      -0.04179      -0.01491      -0.01394
    24  H(1)              -0.00618     -27.64558      -9.86463      -9.22157
    25  H(1)              -0.00494     -22.08348      -7.87993      -7.36626
 --------------------------------------------------------
       Center         ----  Spin Dipole Couplings  ----
                      3XX-RR        3YY-RR        3ZZ-RR
 --------------------------------------------------------
     1   Atom        0.005018      0.005962     -0.010980
     2   Atom        0.002231     -0.000222     -0.002009
     3   Atom       -0.002770      0.014513     -0.011743
     4   Atom       -0.014777      0.033245     -0.018468
     5   Atom        0.000180      0.002294     -0.002475
     6   Atom        0.002063     -0.001082     -0.000980
     7   Atom        0.001814     -0.000869     -0.000945
     8   Atom        0.331308      0.014889     -0.346197
     9   Atom       -0.000759      0.003934     -0.003175
    10   Atom        0.001124      0.000065     -0.001190
    11   Atom        0.015752     -0.004820     -0.010931
    12   Atom        0.001213     -0.001572      0.000358
    13   Atom       -0.009482      0.003771      0.005712
    14   Atom       -0.003700      0.012561     -0.008861
    15   Atom       -0.001332      0.003934     -0.002602
    16   Atom       -0.000211      0.001737     -0.001526
    17   Atom       -0.000872      0.002113     -0.001241
    18   Atom        0.002413     -0.001195     -0.001219
    19   Atom        0.001335     -0.000854     -0.000482
    20   Atom        0.001173     -0.000541     -0.000632
    21   Atom        0.002529     -0.001613     -0.000916
    22   Atom        0.000944     -0.000246     -0.000698
    23   Atom        0.001085     -0.000501     -0.000583
    24   Atom        0.056918     -0.019932     -0.036986
    25   Atom       -0.029428     -0.043147      0.072575
 --------------------------------------------------------
                        XY            XZ            YZ
 --------------------------------------------------------
     1   Atom       -0.013293     -0.003848      0.001750
     2   Atom       -0.002432      0.000351     -0.000052
     3   Atom       -0.006373      0.002737     -0.006655
     4   Atom        0.015972      0.002283      0.000044
     5   Atom       -0.001790      0.000848     -0.000044
     6   Atom       -0.000461      0.000830     -0.000012
     7   Atom       -0.001382     -0.001045      0.000433
     8   Atom        0.648801      0.346324      0.276666
     9   Atom       -0.006507     -0.003811      0.005351
    10   Atom       -0.001621      0.000290     -0.000265
    11   Atom       -0.006770      0.005000     -0.002600
    12   Atom       -0.003535      0.004022     -0.002754
    13   Atom        0.001361     -0.000070     -0.014745
    14   Atom        0.006511      0.002666     -0.002574
    15   Atom       -0.001590      0.000089      0.000032
    16   Atom       -0.001713      0.000018      0.000120
    17   Atom       -0.001567      0.000840     -0.001732
    18   Atom        0.000106      0.000546      0.000014
    19   Atom       -0.000504      0.001091     -0.000220
    20   Atom       -0.000390      0.000237     -0.000050
    21   Atom       -0.000838     -0.001906      0.000345
    22   Atom       -0.001603     -0.001235      0.000871
    23   Atom       -0.000694     -0.000574      0.000205
    24   Atom       -0.022606     -0.026386      0.029534
    25   Atom        0.022177      0.004069      0.005793
 --------------------------------------------------------


 ---------------------------------------------------------------------------------
              Anisotropic Spin Dipole Couplings in Principal Axis System
 ---------------------------------------------------------------------------------

       Atom             a.u.   MegaHertz   Gauss  10(-4) cm-1        Axes

              Baa    -0.0121    -1.617    -0.577    -0.539  0.3284  0.1518  0.9323
     1 C(13)  Bbb    -0.0073    -0.973    -0.347    -0.325  0.6408  0.6893 -0.3380
              Bcc     0.0193     2.590     0.924     0.864 -0.6939  0.7084  0.1291
 
              Baa    -0.0021    -0.279    -0.100    -0.093 -0.2332 -0.2791  0.9315
     2 C(13)  Bbb    -0.0017    -0.224    -0.080    -0.075  0.4706  0.8059  0.3593
              Bcc     0.0037     0.503     0.179     0.168  0.8510 -0.5221  0.0565
 
              Baa    -0.0135    -1.810    -0.646    -0.604 -0.1280  0.2016  0.9711
     3 C(13)  Bbb    -0.0048    -0.649    -0.232    -0.216  0.9425  0.3296  0.0558
              Bcc     0.0183     2.459     0.877     0.820 -0.3088  0.9223 -0.2323
 
              Baa    -0.0213    -2.856    -1.019    -0.953  0.7592 -0.2219 -0.6118
     4 C(13)  Bbb    -0.0168    -2.254    -0.804    -0.752  0.5828 -0.1867  0.7909
              Bcc     0.0381     5.110     1.823     1.705  0.2897  0.9570  0.0124
 
              Baa    -0.0028    -0.372    -0.133    -0.124 -0.3355 -0.1103  0.9356
     5 C(13)  Bbb    -0.0006    -0.078    -0.028    -0.026  0.7946  0.5003  0.3440
              Bcc     0.0034     0.450     0.161     0.150 -0.5060  0.8588 -0.0802
 
              Baa    -0.0013    -0.171    -0.061    -0.057 -0.2697 -0.6108  0.7444
     6 C(13)  Bbb    -0.0011    -0.143    -0.051    -0.048 -0.0501  0.7809  0.6226
              Bcc     0.0023     0.313     0.112     0.104  0.9616 -0.1306  0.2413
 
              Baa    -0.0015    -0.195    -0.070    -0.065  0.4016  0.9146  0.0464
     7 C(13)  Bbb    -0.0013    -0.173    -0.062    -0.058  0.2509 -0.1586  0.9549
[...]
 9,-0.00351254,-0.01793214,-0.02496841,-0.00023082,0.00012541,0.0000395
 6,0.00099275,-0.00143843,0.00125314,-0.00078246,-0.00143959,0.00089727
 ,-0.01967328,-0.12542257,-0.20183594,-0.00007648,-0.00003807,0.0000329
 8,0.00008941,-0.00006983,0.00009452,0.00002198,0.00047264,0.00020600,-
 0.00030458,0.00405570,-0.00396998,-0.00031256,-0.00005745,-0.00013052,
 0.00034097,0.00016102,0.00039247,-0.00052425,0.00091835,0.00027769,0.0
 0072143,0.00088288,-0.00000376,0.00000956,0.00008673,-0.00010315,0.000
 08707,-0.00027516,-0.00126536,0.00017222,0.00394273,0.00479901,0.02285
 522,0.13584862,0.22393778,0.00002388,0.00007080,0.00024629,-0.00347204
 ,0.01007927,-0.02243728,0.00171971,0.00053176,-0.00179562,-0.00002812,
 -0.00002679,0.00002550,-0.00002341,0.00016882,-0.00004652,-0.04845522,
 0.00768927,-0.01861478,0.00069483,-0.00125581,-0.00048512,0.00004050,-
 0.00003251,-0.00001545,-0.00000519,-0.00000459,0.00000070,-0.00309718,
 0.00348465,0.00023042,-0.00040860,-0.00019619,0.00072192,-0.00004701,-
 0.00001875,0.00002113,-0.00000750,0.00001053,0.00000108,0.00002879,-0.
 00001253,0.00000454,-0.00008829,-0.00007758,0.00006293,-0.00007667,-0.
 00017767,0.00005406,0.00003840,0.00000454,0.00001471,0.05137640,-0.000
 04308,-0.00005911,-0.00017706,0.00281066,-0.01158850,0.02288299,-0.001
 62419,0.00028397,0.00009058,0.00000969,-0.00000916,-0.00005024,-0.0000
 5526,-0.00020464,0.00001082,0.00778870,-0.08794345,0.09428463,-0.00066
 234,0.00132281,0.00140209,0.00002398,0.00000955,0.00001786,0.00004241,
 -0.00002962,-0.00002510,0.00381735,-0.00298694,-0.00056555,0.00032380,
 0.00063523,-0.00043284,0.00004195,-0.00000256,-0.00013241,-0.00001155,
 -0.00000362,-0.00000219,-0.00000311,0.00000614,0.00000317,0.00008315,0
 .00007447,-0.00005665,0.00008399,0.00016795,-0.00000164,-0.00004120,-0
 .00000518,-0.00000786,-0.01267645,0.09533250,-0.00017510,-0.00015172,0
 .00037922,-0.00033302,0.00052598,-0.00114633,0.00037342,-0.00045250,0.
 00038933,-0.00004240,0.00005299,-0.00000975,0.00020325,-0.00008370,-0.
 00002886,-0.01915323,0.09449505,-0.26476398,0.00022068,-0.00041902,0.0
 0123210,0.00001168,-0.00000360,-0.00002594,-0.00001985,0.00001859,-0.0
 0000214,-0.00007474,-0.00024284,0.00151751,-0.00061268,-0.00013950,0.0
 0026382,0.00004197,0.00012714,-0.00005795,0.00000213,-0.00000117,-0.00
 000170,-0.00002525,-0.00001664,0.00001544,0.00001265,-0.00002045,0.000
 06417,0.00001976,-0.00003523,-0.00001115,0.00002336,0.00001381,0.00000
 900,0.02136776,-0.10528502,0.28670059,0.00012134,-0.00002091,-0.000128
 72,0.00510101,0.01630801,0.01669995,0.00148402,0.00084875,0.00070211,0
 .00000179,-0.00007111,0.00000288,0.00008326,0.00000696,-0.00003911,-0.
 06289271,-0.04657780,-0.04119442,-0.00364703,0.00293844,-0.00039743,0.
 00001856,-0.00001999,0.00001385,0.00012602,-0.00004913,-0.00003492,0.0
 0091623,-0.00090055,-0.00026643,-0.00000237,-0.00017947,0.00004782,-0.
 00046483,-0.00012469,-0.00027994,-0.00003545,-0.00000089,-0.00000400,0
 .00003962,0.00000438,-0.00001387,0.00001095,-0.00002439,0.00001397,0.0
 0000333,-0.00001071,0.00003558,-0.00002703,0.00000113,-0.00001770,-0.0
 0162104,-0.00152690,-0.00098158,0.06614363,0.00012383,0.00009686,0.000
 34485,-0.00655936,-0.01693893,-0.01546201,-0.00158778,0.00061749,-0.00
 000169,0.00002080,0.00001269,0.00002183,-0.00005917,-0.00006595,-0.000
 01073,-0.04579783,-0.18610698,-0.12428105,0.00453532,-0.00311149,0.001
 29914,0.00000247,0.00000219,-0.00000699,-0.00020077,0.00014211,0.00011
 456,-0.00065994,0.00045816,0.00043409,0.00016068,-0.00003653,0.0000685
 8,0.00069018,0.00064547,0.00011624,0.00003279,0.00001507,0.00000438,-0
 .00000089,-0.00000802,-0.00000251,0.00001213,0.00002343,0.00001680,-0.
 00000987,0.00001892,-0.00007405,0.00006177,0.00002415,0.00003823,0.003
 55490,0.01072192,0.00879650,0.04788611,0.20287137,0.00021433,0.0001838
 1,0.00012395,0.00027261,0.00141849,-0.00013704,-0.00043685,0.00013981,
 -0.00002355,0.00003716,-0.00003437,-0.00001040,-0.00002545,-0.00002932
 ,0.00001904,-0.04052583,-0.12450513,-0.15934296,0.00061910,-0.00024017
 ,0.00103271,-0.00001845,0.00000660,-0.00000068,-0.00009642,0.00010299,
 0.00004318,0.00054495,-0.00008609,0.00042440,-0.00002408,-0.00014295,-
 0.00016830,0.00050885,0.00002205,0.00022457,0.00002373,0.00000173,0.00
 001628,0.00000689,0.00001317,-0.00000178,0.00001770,0.00001289,-0.0000
 1946,0.00001312,0.00004758,-0.00002324,0.00000329,-0.00000756,0.000008
 23,-0.00712677,-0.02208318,-0.01803601,0.04487489,0.13739769,0.1691219
 5,-0.00059061,-0.00146170,0.00032915,-0.02028484,-0.01000530,0.0060426
 6,-0.00251134,0.00537325,-0.00049906,-0.00028574,0.00050894,0.00003781
 ,-0.00007269,-0.00006410,0.00015453,-0.25307265,-0.09159942,0.06128663
 ,0.00065929,-0.00136784,-0.00034563,-0.00003955,0.00005294,-0.00008019
 ,-0.00007464,0.00013450,0.00010116,0.00059927,-0.00022040,-0.00055991,
 0.00031661,0.00005506,-0.00001054,0.00032016,0.00006428,-0.00009661,0.
 00003726,-0.00001871,-0.00001123,-0.00022999,-0.00007822,0.00005559,-0
 .00003460,0.00006613,-0.00006230,0.00003854,0.00002043,-0.00002744,0.0
 0001524,-0.00002082,-0.00001867,0.00336196,0.00166638,-0.00077138,-0.0
 0590725,-0.00223365,0.00166832,0.27678768,0.00125888,0.00111877,-0.000
 18186,0.02163469,0.00901270,-0.00748496,0.00253340,-0.00378071,-0.0001
 5222,0.00031016,-0.00036252,-0.00001504,-0.00006018,0.00011890,-0.0000
 8650,-0.09271892,-0.08756091,0.02691460,0.00072557,0.00165648,0.000321
 99,-0.00002587,-0.00001667,0.00006693,-0.00010894,0.00005406,-0.000035
 31,-0.00090231,0.00104737,0.00011635,0.00002512,-0.00010050,-0.0002633
 0,0.00016933,0.00003951,0.00027183,0.00000315,0.00000139,0.00001716,0.
 00016342,0.00006635,-0.00003996,-0.00000680,-0.00001618,0.00000938,-0.
 00002665,-0.00002230,0.00002201,0.00000595,-0.00000392,0.00001723,-0.0
 1091768,-0.00577467,0.00216525,-0.01986746,-0.00886364,0.00762515,0.09
 832677,0.09358512,-0.00003215,0.00015152,0.00067858,-0.00152366,-0.000
 30210,-0.00118009,-0.00005321,-0.00010608,0.00009573,-0.00001993,-0.00
 001567,-0.00001452,0.00011273,-0.00009657,-0.00002911,0.06137533,0.026
 49834,-0.06590988,0.00055664,0.00049082,-0.00015684,0.00002203,-0.0000
 0332,-0.00001073,-0.00005973,0.00004918,-0.00001746,-0.00021680,-0.000
 46022,0.00019197,-0.00027223,-0.00032094,0.00041341,0.00025532,0.00032
 550,0.00013308,-0.00000066,-0.00000448,0.00000374,0.00000660,-0.000007
 68,-0.00000108,0.00001853,-0.00002310,0.00002781,-0.00000121,0.0000183
 6,0.00001289,-0.00000693,-0.00000726,-0.00000223,0.02691738,0.01119984
 ,-0.00694176,-0.01968649,-0.00756885,0.00614397,-0.06724434,-0.0293999
 4,0.06657700,0.00011002,-0.00002213,-0.00032198,-0.00094330,0.00285671
 ,-0.00827768,0.00041321,0.00076704,-0.00108281,-0.00003151,0.00002805,
 0.00016438,0.00012023,0.00002821,-0.00018372,-0.00006397,-0.00010866,0
 .00078561,-0.04729564,-0.00232214,0.00614224,0.00000421,-0.00003427,-0
 .00008238,-0.00008173,0.00033797,0.00014086,0.00009570,-0.00137910,-0.
 00133121,0.00019698,-0.00029779,0.00014208,0.00008495,0.00005492,0.000
 20392,0.00004899,0.00003428,0.00000553,0.00001816,-0.00001508,0.000000
 03,-0.00002127,-0.00002936,0.00002752,0.00004475,-0.00010721,0.0001704
 9,-0.00010581,-0.00003003,0.00007915,0.00024948,0.00014976,0.00013416,
 -0.00011222,0.00004226,-0.00010590,-0.00000229,-0.00009397,0.00009065,
 0.04647646,-0.00008029,0.00009926,0.00034554,0.00047679,0.00809895,-0.
 02356660,0.00061485,0.00154312,-0.00051152,-0.00002406,-0.00000146,-0.
 00004440,-0.00009432,-0.00011725,-0.00000670,-0.00054911,0.00176979,-0
 .00058175,-0.00220735,-0.08125934,0.08888947,0.00004619,0.00000524,0.0
 0003724,0.00000837,-0.00013534,-0.00004234,-0.00113827,-0.00313010,-0.
 00353554,0.00016104,-0.00019013,0.00054759,0.00032732,0.00007027,0.000
 18229,-0.00001563,-0.00001370,-0.00001471,0.00000544,-0.00000138,0.000
 00688,0.00001540,0.00000781,0.00005926,-0.00001788,-0.00001164,-0.0001
 8988,0.00010082,0.00010084,-0.00002062,0.00003397,-0.00020023,0.000546
 42,-0.00011314,0.00012144,0.00030158,0.00006766,-0.00008622,0.00005606
 ,0.00393127,0.08692817,-0.00025417,-0.00011097,-0.00004276,-0.00027848
 ,0.00768444,-0.02336899,0.00097586,0.00081724,0.00092140,-0.00005695,0
 .00006442,0.00004666,0.00013608,0.00013185,0.00009570,-0.00023762,0.00
 107056,0.00064747,0.00620692,0.08895643,-0.27032122,-0.00002191,-0.000
 02779,-0.00006556,-0.00027751,0.00010800,-0.00013207,-0.00095396,-0.00
 406671,-0.00155676,-0.00070992,-0.00056050,0.00031731,0.00019284,-0.00
 010392,0.00040413,0.00002437,0.00000955,0.00001321,-0.00002256,-0.0000
 1780,0.00000933,-0.00007077,-0.00003805,0.00004877,0.00006751,-0.00014
 923,0.00004818,0.00006275,-0.00001810,0.00005157,0.00055880,-0.0007702
 5,0.00027383,-0.00006117,-0.00018360,0.00045734,-0.00005656,-0.0000395
 2,-0.00002636,-0.00509520,-0.09454153,0.29792404,-0.00171898,-0.000519
 36,0.00028582,0.00571703,-0.00708425,0.00196096,0.00046273,0.00029062,
 0.00064977,0.00003416,-0.00014961,-0.00018486,-0.00016834,-0.00013900,
 0.00008064,0.00000891,-0.00089732,-0.00045939,-0.15524472,0.13017657,-
 0.01083351,0.00003439,0.00000029,0.00000604,-0.00218355,-0.00131798,-0
 .00018412,0.00024146,0.00057759,0.00038854,-0.00005865,-0.00006687,-0.
 00003283,0.00011177,0.00018695,-0.00010307,-0.00006414,-0.00003551,0.0
 0003582,0.00003356,0.00001018,-0.00001002,-0.00001292,-0.00002418,0.00
 001230,0.00029477,0.00006990,-0.00023813,0.00007780,0.00003032,0.00008
 401,-0.00012650,-0.00008688,-0.00006108,0.00044949,-0.00019200,-0.0002
 5669,0.00037577,-0.00012658,-0.00024151,0.00033988,-0.00217180,-0.0000
 1717,0.16940475,0.00001487,-0.00072718,-0.00051007,0.01484966,-0.01672
 190,0.00331457,0.00114727,0.00010622,0.00025455,-0.00013316,0.00039431
 ,0.00040870,-0.00016200,0.00029552,-0.00001026,-0.00276054,-0.00274678
 ,-0.00387192,0.12896350,-0.20245652,0.01245206,-0.00001818,0.00000499,
 0.00003266,-0.00091652,0.00032802,0.00079157,-0.00013343,0.00102614,0.
 00002696,-0.00002126,0.00002111,-0.00010975,-0.00009964,0.00011765,-0.
 00008749,0.00023684,0.00012691,-0.00004201,-0.00005560,-0.00003174,0.0
 0000361,0.00007815,0.00004326,0.00000312,-0.00011253,0.00015352,-0.000
 40348,0.00016881,0.00005370,0.00012474,-0.00028275,0.00037113,0.000009
 72,0.00125577,-0.00103339,-0.00020503,0.00010372,0.00021013,-0.0000288
 0,0.00691438,-0.00885700,0.00018022,-0.14181246,0.21968475,-0.00022238
 ,0.00014321,0.00067644,0.01582021,-0.01646346,0.00133338,0.00030034,0.
 00077945,0.00026853,-0.00002040,0.00005608,-0.00019302,-0.00044453,-0.
 00042815,0.00011623,-0.00189308,-0.00311791,-0.00294178,-0.01050455,0.
 01283155,-0.04778521,0.00004942,0.00002916,0.00003070,0.00026864,0.000
 12693,-0.00002536,0.00047638,0.00080476,0.00066140,-0.00006784,0.00000
 803,0.00000726,0.00011158,0.00000632,-0.00007580,-0.00002004,-0.000051
 70,-0.00000501,-0.00002985,0.00000185,0.00002048,0.00009261,0.00007009
 ,0.00000325,-0.00015555,0.00017685,-0.00079874,0.00016843,0.00013968,-
 0.00004877,0.00003091,-0.00028187,0.00022965,0.00083950,-0.00135326,0.
 00023687,-0.00029047,0.00022161,-0.00003027,-0.02040789,0.02291028,-0.
 00085423,0.01191646,-0.01119124,0.04979325,0.00025019,0.00001061,0.000
 36835,-0.00737118,-0.00200408,0.00166244,0.00087035,-0.00025519,-0.001
 80719,0.00001339,-0.00008827,-0.00020076,0.00001381,-0.00011700,0.0000
 4450,0.00085670,0.00103279,0.00057838,-0.27238863,-0.08240230,0.046609
 79,-0.00003637,0.00004047,-0.00002820,0.00012106,-0.00020627,-0.000341
 82,0.00000353,0.00007632,-0.00035510,0.00008463,0.00004585,0.00009028,
 -0.00041174,-0.00030751,0.00013535,-0.00008248,-0.00004115,0.00004565,
 -0.00003774,0.00001722,0.00002213,-0.00004344,0.00002945,-0.00001880,-
 0.00001466,-0.00003943,0.00010247,-0.00002056,-0.00002696,-0.00005255,
 -0.00004329,-0.00011122,-0.00013498,0.00022192,0.00017681,-0.00020520,
 0.00058218,-0.00032350,0.00001674,0.00046997,0.00062408,-0.00006223,-0
 .01800083,-0.00724502,0.00399438,0.29494914,0.00075640,-0.00048575,-0.
 00051998,-0.02167696,-0.00956443,0.00593450,0.00004651,-0.00322394,-0.
 00454951,-0.00012742,0.00021132,0.00021029,-0.00011584,0.00005771,0.00
 002374,-0.00134410,0.00088240,0.00092269,-0.08152635,-0.07649535,0.017
 43005,-0.00003518,0.00003437,-0.00001391,0.00003333,0.00029919,0.00050
 094,0.00050914,0.00079412,0.00000240,0.00035680,0.00024719,-0.00005726
 ,-0.00164180,-0.00060755,0.00010656,0.00013920,0.00008741,0.00000843,-
 0.00007330,0.00000320,0.00003473,-0.00001341,0.00005220,-0.00003745,0.
 00004179,0.00002303,-0.00010448,0.00004590,0.00000766,0.00006596,0.000
 03800,-0.00011555,0.00010057,0.00022663,0.00039271,0.00005063,0.000660
 90,-0.00032714,-0.00045497,-0.01073026,-0.00476408,0.00160764,0.023268
 60,0.00963106,-0.00543797,0.09113840,0.08287577,0.00036971,-0.00038105
 ,-0.00024566,-0.02126200,-0.00812480,0.00420579,-0.00009481,-0.0029529
 9,-0.00292106,-0.00007948,0.00008855,0.00003822,0.00001615,0.00004630,
 0.00008628,-0.00068715,0.00076366,0.00071476,0.04698028,0.01788358,-0.
 05629157,-0.00001286,0.00000132,-0.00006804,-0.00005377,0.00024462,0.0
 0009720,0.00011999,0.00098543,0.00057440,-0.00013073,-0.00034367,0.000
 16056,-0.00106317,-0.00072932,0.00047848,0.00004685,0.00004125,0.00004
 626,-0.00004127,0.00000217,0.00002958,-0.00000862,0.00001758,-0.000024
 41,0.00000111,-0.00001233,0.00003780,0.00000554,-0.00005160,0.00005243
 ,0.00023493,0.00000319,-0.00007495,-0.00011794,0.00028327,-0.00008654,
 0.00036528,-0.00003667,0.00003638,0.02870161,0.00920275,-0.00496354,-0
 .00280431,-0.00112025,-0.00056519,-0.05047073,-0.01581783,0.05862103,-
 0.00120059,-0.00094642,0.00046188,-0.00002429,0.00003642,-0.00002121,0
 .00015927,-0.00012458,0.00015915,0.00520144,0.00393026,-0.00102273,0.0
 0003857,0.00017940,0.00004862,0.00000222,-0.00000340,0.00001269,0.0000
 0787,-0.00000522,-0.00002136,-0.08005269,-0.14116012,0.00964065,0.0001
 3953,0.00025849,0.00002396,0.00001705,0.00001893,-0.00001244,-0.000118
 07,-0.00015629,-0.00006845,-0.00002288,-0.00000905,0.00012611,-0.00018
 123,-0.00025940,0.00009477,-0.00131614,-0.00014671,-0.00004946,0.00001
 357,0.00003590,-0.00004229,-0.00002015,-0.00000863,-0.00002354,0.00000
 373,-0.00003338,0.00003644,-0.00001784,-0.00000682,-0.00001831,-0.0000
 0588,0.00000443,0.00001862,0.00000289,0.00001281,-0.00000638,0.0000163
 1,-0.00001206,0.00000349,-0.00000356,0.00002383,-0.00000700,-0.0000013
 0,0.00000955,0.00001418,0.07817136,0.00208562,0.00009271,0.00130358,-0
 .00002612,0.00009757,-0.00004584,0.00016201,-0.00021505,0.00009534,-0.
 00638495,-0.00517658,-0.00240539,-0.00076391,-0.00008298,-0.00004757,-
 0.00003287,-0.00003564,0.00000991,-0.00000797,-0.00001440,0.00000395,-
 0.13658962,-0.27972623,0.03810784,0.00018638,0.00020790,-0.00004557,0.
 00003038,0.00000180,-0.00000275,0.00006698,0.00004845,-0.00017023,-0.0
 0002374,0.00002395,0.00003702,0.00051582,0.00098156,0.00029862,0.00031
 293,-0.00012752,0.00045250,-0.00000057,0.00001540,-0.00004315,0.000011
 65,-0.00010694,0.00023003,0.00000127,-0.00000244,0.00008633,-0.0000007
 8,0.00000225,-0.00000809,0.00000563,0.00000359,0.00000446,-0.00002546,
 0.00000849,0.00000099,0.00001112,-0.00000031,0.00000276,0.00000912,0.0
 0003291,0.00000304,-0.00002493,0.00000064,0.00000598,0.14529062,0.2906
 9821,-0.00219387,0.00186753,-0.00400109,0.00003365,-0.00014659,-0.0000
 0143,-0.00013587,0.00027761,0.00005582,0.01279593,0.02005709,0.0011667
 9,0.00152951,0.00088741,0.00005203,0.00004600,0.00005070,-0.00000107,-
 0.00002752,0.00002778,-0.00005410,0.00955515,0.03811368,-0.05960174,0.
 00003819,0.00025646,0.00019260,-0.00003970,0.00000394,0.00003979,0.000
 20765,-0.00012210,-0.00003891,0.00001007,-0.00003496,-0.00002538,0.000
 35806,-0.00069144,0.00152569,-0.00006430,0.00107500,-0.00096037,0.0000
 1983,-0.00009023,0.00009436,0.00005114,0.00028462,-0.00055173,-0.00000
 751,-0.00009920,0.00000905,0.00001169,-0.00001305,0.00001383,-0.000003
 14,0.00000017,-0.00000688,0.00002535,-0.00001951,-0.00000065,0.0000377
 6,-0.00002114,0.00003444,-0.00000449,-0.00002585,-0.00003011,0.0000132
 5,-0.00000541,0.00002315,-0.01209973,-0.04174396,0.05563800,0.00089153
 ,0.00122221,0.00056239,-0.00010647,0.00005083,-0.00007852,0.00014037,-
 0.00003775,0.00005103,0.00040780,-0.00206442,-0.00126921,-0.00006172,-
 0.00000748,0.00005750,-0.00000374,-0.00001076,0.00001424,0.00005388,-0
 .00002140,0.00006970,-0.05458586,-0.06468523,-0.08580004,0.00031269,-0
 .00007410,-0.00012715,0.00005069,0.00002046,-0.00003632,-0.00016354,0.
 00013022,0.00011534,0.00003320,-0.00000374,-0.00003263,0.00110973,0.00
 050888,0.00081202,0.00039274,-0.00002070,0.00077493,-0.00002359,0.0000
 3559,-0.00003858,0.00000288,-0.00001392,0.00000344,-0.00004818,-0.0000
 7576,0.00000097,-0.00001607,0.00000717,-0.00000723,-0.00000536,-0.0000
 0322,-0.00000191,0.00000935,0.00000960,-0.00000673,-0.00003155,0.00001
 073,-0.00005243,-0.00000430,-0.00000369,-0.00000527,0.00001537,0.00001
 347,-0.00002879,-0.00080921,-0.00480863,-0.01015708,0.05243939,0.00033
 936,0.00140578,0.00027767,0.00004656,-0.00002884,0.00008966,-0.0001613
 1,0.00010294,-0.00022953,0.00522224,0.01028120,0.01185834,0.00013600,-
 0.00009418,0.00006033,-0.00000172,-0.00000020,-0.00003469,-0.00001380,
 0.00003064,-0.00002608,-0.06847708,-0.11741955,-0.10991926,0.00003202,
 -0.00029093,-0.00037239,-0.00004288,-0.00002091,0.00001322,0.00017958,
 -0.00007628,-0.00007531,0.00005693,-0.00006441,0.00001170,-0.00034371,
 -0.00088578,0.00286993,0.00012386,-0.00001531,-0.00067019,0.00002987,0
 .00000393,0.00002722,-0.00002192,-0.00001247,-0.00008870,-0.00002910,-
 0.00009380,-0.00012486,0.00001355,-0.00000468,0.00000742,0.00000532,-0
 .00000263,0.00000517,-0.00000536,-0.00000388,0.00000935,0.00001403,0.0
 0002328,-0.00000512,0.00000365,-0.00002679,0.00001668,0.00000084,-0.00
 001621,0.00000085,-0.00692858,-0.00672733,-0.01988854,0.06982166,0.113
 93640,-0.00136012,-0.00152584,0.00090799,0.00012433,-0.00010313,0.0001
 1890,0.00010964,0.00026155,-0.00018954,-0.00737323,-0.01491036,-0.0152
 6795,0.00020276,0.00033270,0.00027181,0.00003014,0.00002668,-0.0000224
 9,-0.00000474,0.00002190,-0.00007557,-0.08954950,-0.10819042,-0.238564
 02,0.00070533,0.00091916,-0.00002011,-0.00006766,-0.00002486,0.0000390
 3,0.00028686,-0.00025461,-0.00000820,-0.00013177,0.00007301,0.00017603
 ,-0.00058311,0.00316496,-0.00374811,-0.00042046,0.00022543,-0.00016724
 ,-0.00000821,-0.00009467,0.00001194,0.00005356,0.00011734,-0.00004299,
 -0.00003484,-0.00007422,0.00026743,0.00001679,-0.00001027,0.00001202,-
 0.00000370,0.00000838,0.00000436,0.00000784,-0.00001470,0.00000645,0.0
 0006277,-0.00000863,0.00003811,0.00001081,0.00000366,-0.00002399,-0.00
 000614,-0.00000037,0.00003863,0.00275233,0.00387020,0.00642793,0.09518
 033,0.11618712,0.24980957\\-0.00000099,-0.00000266,0.00000274,-0.00000
 124,0.00000377,-0.00000393,0.00000121,0.00000034,-0.00000030,0.0000018
 2,-0.00000594,0.00000623,-0.00000645,-0.00000325,0.00000311,0.00000148
 ,0.00000652,-0.00000668,-0.00000146,0.00000481,-0.00000502,0.00000705,
 -0.00000574,0.00000622,-0.00000058,-0.00000216,0.00000220,-0.00000500,
 0.00000355,-0.00000387,0.00000510,0.00000066,-0.00000048,0.00000115,-0
 .00000034,0.00000038,0.00000153,-0.00000652,0.00000679,-0.00000008,-0.
 00000808,0.00000835,-0.00000793,-0.00000551,0.00000539,-0.00000860,-0.
 00000108,0.00000078,-0.00000702,-0.00000362,0.00000346,0.00000524,0.00
 000688,-0.00000691,0.00000167,0.00000582,-0.00000596,-0.00000031,0.000
 00897,-0.00000929,0.00000222,0.00000485,-0.00000493,-0.00000375,0.0000
 0304,-0.00000329,-0.00000294,0.00000735,-0.00000772,0.00000987,-0.0000
 0695,0.00000758,0.00000803,-0.00000469,0.00000515\\\@


 When I told the people of Northern Ireland that I was
 an atheist, a woman in the audience stood up and said,
 "Yes, but is it the God of the Catholics or the God
 of the Protestants in whom you don't believe?"
                               -- Quentin Crisp
 Job cpu time:  0 days 22 hours 20 minutes  0.9 seconds.
 File lengths (MBytes):  RWF=    673 Int=      0 D2E=      0 Chk=     16 Scr=      1
 Normal termination of Gaussian 09 at Fri May 19 04:58:24 2017.
