 Entering Gaussian System, Link 0=/shared/apps/gaussian/G09_LINUX_LINDA/g09/g09
 Input=/gss_gpfs_scratch/r.west/QMscratch/ATUOYWHBWRKTHZ-UHFFFAOYSA.gjf
 Output=/gss_gpfs_scratch/r.west/QMscratch/ATUOYWHBWRKTHZ-UHFFFAOYSA.log
 Initial command:
 /shared/apps/gaussian/G09_LINUX_LINDA/g09/l1.exe /home/r.west/Code/RMG-Py/scripts/Gau-19627.inp -scrdir=/home/r.west/Code/RMG-Py/scripts/
 Entering Link 1 = /shared/apps/gaussian/G09_LINUX_LINDA/g09/l1.exe PID=     19628.
  
 Copyright (c) 1988,1990,1992,1993,1995,1998,2003,2009,2010,
            Gaussian, Inc.  All Rights Reserved.
  
 This is part of the Gaussian(R) 09 program.  It is based on
 the Gaussian(R) 03 system (copyright 2003, Gaussian, Inc.),
 the Gaussian(R) 98 system (copyright 1998, Gaussian, Inc.),
 the Gaussian(R) 94 system (copyright 1995, Gaussian, Inc.),
 the Gaussian 92(TM) system (copyright 1992, Gaussian, Inc.),
 the Gaussian 90(TM) system (copyright 1990, Gaussian, Inc.),
 the Gaussian 88(TM) system (copyright 1988, Gaussian, Inc.),
 the Gaussian 86(TM) system (copyright 1986, Carnegie Mellon
 University), and the Gaussian 82(TM) system (copyright 1983,
 Carnegie Mellon University). Gaussian is a federally registered
 trademark of Gaussian, Inc.
  
 This software contains proprietary and confidential information,
 including trade secrets, belonging to Gaussian, Inc.
  
 This software is provided under written license and may be
 used, copied, transmitted, or stored only in accord with that
 written license.
  
 The following legend is applicable only to US Government
 contracts under FAR:
  
                    RESTRICTED RIGHTS LEGEND
  
 Use, reproduction and disclosure by the US Government is
 subject to restrictions as set forth in subparagraphs (a)
 and (c) of the Commercial Computer Software - Restricted
 Rights clause in FAR 52.227-19.
  
 Gaussian, Inc.
 340 Quinnipiac St., Bldg. 40, Wallingford CT 06492
  
  
 ---------------------------------------------------------------
 Warning -- This program may not be used in any manner that
 competes with the business of Gaussian, Inc. or will provide
 assistance to any competitor of Gaussian, Inc.  The licensee
 of this program is prohibited from giving any competitor of
 Gaussian, Inc. access to this program.  By using this program,
 the user acknowledges that Gaussian, Inc. is engaged in the
 business of creating and licensing software in the field of
 computational chemistry and represents and warrants to the
 licensee that it is not a competitor of Gaussian, Inc. and that
 it will not use this program in any manner prohibited above.
 ---------------------------------------------------------------
  

 Cite this work as:
 Gaussian 09, Revision B.01,
 M. J. Frisch, G. W. Trucks, H. B. Schlegel, G. E. Scuseria, 
 M. A. Robb, J. R. Cheeseman, G. Scalmani, V. Barone, B. Mennucci, 
 G. A. Petersson, H. Nakatsuji, M. Caricato, X. Li, H. P. Hratchian, 
 A. F. Izmaylov, J. Bloino, G. Zheng, J. L. Sonnenberg, M. Hada, 
 M. Ehara, K. Toyota, R. Fukuda, J. Hasegawa, M. Ishida, T. Nakajima, 
 Y. Honda, O. Kitao, H. Nakai, T. Vreven, J. A. Montgomery, Jr., 
 J. E. Peralta, F. Ogliaro, M. Bearpark, J. J. Heyd, E. Brothers, 
 K. N. Kudin, V. N. Staroverov, T. Keith, R. Kobayashi, J. Normand, 
 K. Raghavachari, A. Rendell, J. C. Burant, S. S. Iyengar, J. Tomasi, 
 M. Cossi, N. Rega, J. M. Millam, M. Klene, J. E. Knox, J. B. Cross, 
 V. Bakken, C. Adamo, J. Jaramillo, R. Gomperts, R. E. Stratmann, 
 O. Yazyev, A. J. Austin, R. Cammi, C. Pomelli, J. W. Ochterski, 
 R. L. Martin, K. Morokuma, V. G. Zakrzewski, G. A. Voth, 
 P. Salvador, J. J. Dannenberg, S. Dapprich, A. D. Daniels, 
 O. Farkas, J. B. Foresman, J. V. Ortiz, J. Cioslowski, 
 and D. J. Fox, Gaussian, Inc., Wallingford CT, 2010.
 
 ******************************************
 Gaussian 09:  EM64L-G09RevB.01 12-Aug-2010
                19-Jan-2017 
 ******************************************
 %nprocshared=20
 Will use up to   20 processors via shared memory.
 %mem=5GB
 --------------------------------------------------------------
 # m062x/6-311+g(2df,2p) opt=(verytight,gdiis) freq IOP(2/16=3)
 --------------------------------------------------------------

 Warning!  Use of Opt=GDIIS is deprecated since it is seldom a good choice.

 1/7=1,14=-1,18=20,19=11,26=3,38=1/1,3;
 2/9=110,12=2,16=3,17=6,18=5,40=1/2;
 3/5=4,6=6,7=214,11=2,16=1,25=1,30=1,71=1,74=-55/1,2,3;
 4//1;
 5/5=2,38=5/2;
 6/7=2,8=2,9=2,10=2,28=1/1;
 7//1,2,3,16;
 1/7=1,14=-1,18=20,19=11/3(2);
 2/9=110,16=3/2;
 99//99;
 2/9=110,16=3/2;
 3/5=4,6=6,7=214,11=2,16=1,25=1,30=1,71=1,74=-55/1,2,3;
 4/5=5,16=3/1;
 5/5=2,38=5/2;
 7//1,2,3,16;
 1/7=1,14=-1,18=20,19=11/3(-5);
 2/9=110,16=3/2;
 6/7=2,8=2,9=2,10=2,19=2,28=1/1;
 99/9=1/99;
 -------------------------------
 InChI=1S/C3H8/c1-3-2/h3H2,1-2H3
 -------------------------------
 Symbolic Z-matrix:
 Charge =  0 Multiplicity = 1
 C                    -0.0244    0.1126    0.2252 
 C                     1.2671   -0.0809   -0.5637 
 C                    -1.2484   -0.0055   -0.6777 
 H                    -0.0837   -0.6558    1.0258 
 H                    -0.0159    1.1165    0.7021 
 H                     1.3548    0.6928   -1.3561 
 H                     2.1372    0.0107    0.12 
 H                     1.2866   -1.0887   -1.0307 
 H                    -2.1698    0.1398   -0.0753 
 H                    -1.2859   -1.0116   -1.1473 
 H                    -1.2177    0.7699   -1.4727 
 

 GradGradGradGradGradGradGradGradGradGradGradGradGradGradGradGradGradGrad
 Berny optimization.
 Initialization pass.
                           ----------------------------
                           !    Initial Parameters    !
                           ! (Angstroms and Degrees)  !
 --------------------------                            --------------------------
 ! Name  Definition              Value          Derivative Info.                !
 --------------------------------------------------------------------------------
 ! R1    R(1,2)                  1.5257         estimate D2E/DX2                !
 ! R2    R(1,3)                  1.5256         estimate D2E/DX2                !
 ! R3    R(1,4)                  1.1113         estimate D2E/DX2                !
 ! R4    R(1,5)                  1.1114         estimate D2E/DX2                !
 ! R5    R(2,6)                  1.1109         estimate D2E/DX2                !
 ! R6    R(2,7)                  1.1104         estimate D2E/DX2                !
 ! R7    R(2,8)                  1.1109         estimate D2E/DX2                !
 ! R8    R(3,9)                  1.1104         estimate D2E/DX2                !
 ! R9    R(3,10)                 1.1109         estimate D2E/DX2                !
 ! R10   R(3,11)                 1.111          estimate D2E/DX2                !
 ! A1    A(2,1,3)              111.3041         estimate D2E/DX2                !
 ! A2    A(2,1,4)              109.2684         estimate D2E/DX2                !
 ! A3    A(2,1,5)              109.2655         estimate D2E/DX2                !
 ! A4    A(3,1,4)              109.2716         estimate D2E/DX2                !
 ! A5    A(3,1,5)              109.2692         estimate D2E/DX2                !
 ! A6    A(4,1,5)              108.4113         estimate D2E/DX2                !
 ! A7    A(1,2,6)              110.3227         estimate D2E/DX2                !
 ! A8    A(1,2,7)              109.5409         estimate D2E/DX2                !
 ! A9    A(1,2,8)              110.3209         estimate D2E/DX2                !
 ! A10   A(6,2,7)              108.6554         estimate D2E/DX2                !
 ! A11   A(6,2,8)              109.3032         estimate D2E/DX2                !
 ! A12   A(7,2,8)              108.6585         estimate D2E/DX2                !
 ! A13   A(1,3,9)              109.5454         estimate D2E/DX2                !
 ! A14   A(1,3,10)             110.3265         estimate D2E/DX2                !
 ! A15   A(1,3,11)             110.3237         estimate D2E/DX2                !
 ! A16   A(9,3,10)             108.652          estimate D2E/DX2                !
 ! A17   A(9,3,11)             108.6521         estimate D2E/DX2                !
 ! A18   A(10,3,11)            109.3016         estimate D2E/DX2                !
 ! D1    D(3,1,2,6)             60.4352         estimate D2E/DX2                !
 ! D2    D(3,1,2,7)            180.0            estimate D2E/DX2                !
 ! D3    D(3,1,2,8)            -60.4327         estimate D2E/DX2                !
 ! D4    D(4,1,2,6)           -178.7945         estimate D2E/DX2                !
 ! D5    D(4,1,2,7)            -59.2297         estimate D2E/DX2                !
 ! D6    D(4,1,2,8)             60.3377         estimate D2E/DX2                !
 ! D7    D(5,1,2,6)            -60.3303         estimate D2E/DX2                !
 ! D8    D(5,1,2,7)             59.2345         estimate D2E/DX2                !
 ! D9    D(5,1,2,8)            178.8018         estimate D2E/DX2                !
 ! D10   D(2,1,3,9)           -179.9988         estimate D2E/DX2                !
 ! D11   D(2,1,3,10)            60.4355         estimate D2E/DX2                !
 ! D12   D(2,1,3,11)           -60.4347         estimate D2E/DX2                !
 ! D13   D(4,1,3,9)             59.2327         estimate D2E/DX2                !
 ! D14   D(4,1,3,10)           -60.333          estimate D2E/DX2                !
 ! D15   D(4,1,3,11)           178.7968         estimate D2E/DX2                !
 ! D16   D(5,1,3,9)            -59.2355         estimate D2E/DX2                !
 ! D17   D(5,1,3,10)          -178.8013         estimate D2E/DX2                !
 ! D18   D(5,1,3,11)            60.3286         estimate D2E/DX2                !
 --------------------------------------------------------------------------------
 Trust Radius=3.00D-01 FncErr=1.00D-07 GrdErr=1.00D-06
 Number of steps in this run=     56 maximum allowed number of steps=    100.
 GradGradGradGradGradGradGradGradGradGradGradGradGradGradGradGradGradGrad

                          Input orientation:                          
 ---------------------------------------------------------------------
 Center     Atomic      Atomic             Coordinates (Angstroms)
 Number     Number       Type             X           Y           Z
 ---------------------------------------------------------------------
      1          6           0       -0.024400    0.112600    0.225200
      2          6           0        1.267100   -0.080900   -0.563700
      3          6           0       -1.248400   -0.005500   -0.677700
      4          1           0       -0.083700   -0.655800    1.025800
      5          1           0       -0.015900    1.116500    0.702100
      6          1           0        1.354800    0.692800   -1.356100
      7          1           0        2.137200    0.010700    0.120000
      8          1           0        1.286600   -1.088700   -1.030700
      9          1           0       -2.169800    0.139800   -0.075300
     10          1           0       -1.285900   -1.011600   -1.147300
     11          1           0       -1.217700    0.769900   -1.472700
 ---------------------------------------------------------------------
                    Distance matrix (angstroms):
                    1          2          3          4          5
     1  C    0.000000
     2  C    1.525706   0.000000
     3  C    1.525566   2.519210   0.000000
     4  H    1.111267   2.163719   2.163638   0.000000
     5  H    1.111450   2.163817   2.163744   1.802894   0.000000
     6  H    2.177001   1.110946   2.779298   3.092160   2.508890
     7  H    2.166556   1.110365   3.478344   2.489396   2.489473
     8  H    2.176954   1.110914   2.779237   2.508848   3.092250
     9  H    2.166514   3.478437   1.110394   2.489420   2.489494
    10  H    2.176916   2.779317   1.110931   2.508833   3.092247
    11  H    2.176895   2.779276   1.110951   3.092099   2.508826
                    6          7          8          9         10
     6  H    0.000000
     7  H    1.804517   0.000000
     8  H    1.812258   1.804525   0.000000
     9  H    3.790655   4.313358   3.790607   0.000000
    10  H    3.149901   3.790615   2.576295   1.804490   0.000000
    11  H    2.576295   3.790571   3.149806   1.804507   1.812258
                   11
    11  H    0.000000
 Stoichiometry    C3H8
 Framework group  C1[X(C3H8)]
 Deg. of freedom    27
 Full point group                 C1      NOp   1
 Largest Abelian subgroup         C1      NOp   1
 Largest concise Abelian subgroup C1      NOp   1
                         Standard orientation:                         
 ---------------------------------------------------------------------
 Center     Atomic      Atomic             Coordinates (Angstroms)
 Number     Number       Type             X           Y           Z
 ---------------------------------------------------------------------
      1          6           0        0.000058    0.594379   -0.000040
      2          6           0       -1.259638   -0.266402   -0.000002
      3          6           0        1.259572   -0.266420    0.000005
      4          1           0        0.000050    1.244334   -0.901414
      5          1           0        0.000039    1.244443    0.901480
      6          1           0       -1.288201   -0.908449    0.906177
      7          1           0       -2.156649    0.388030   -0.000035
      8          1           0       -1.288143   -0.908537   -0.906081
      9          1           0        2.156709    0.387891   -0.000003
     10          1           0        1.288152   -0.908574   -0.906080
     11          1           0        1.288094   -0.908486    0.906178
 ---------------------------------------------------------------------
 Rotational constants (GHZ):     28.6500528      8.5525558      7.5616036
 Standard basis: 6-311+G(2df,2p) (5D, 7F)
 There are   174 symmetry adapted basis functions of A   symmetry.
 Integral buffers will be    131072 words long.
 Raffenetti 2 integral format.
 Two-electron integral symmetry is turned on.
   174 basis functions,   244 primitive gaussians,   189 cartesian basis functions
    13 alpha electrons       13 beta electrons
       nuclear repulsion energy        82.2872301985 Hartrees.
 NAtoms=   11 NActive=   11 NUniq=   11 SFac= 1.00D+00 NAtFMM=   50 NAOKFM=F Big=F
 One-electron integrals computed using PRISM.
 NBasis=   174 RedAO= T  NBF=   174
 NBsUse=   174 1.00D-06 NBFU=   174
 Harris functional with IExCor= 1009 diagonalized for initial guess.
 ExpMin= 4.38D-02 ExpMax= 4.56D+03 ExpMxC= 6.82D+02 IAcc=2 IRadAn=         0 AccDes= 0.00D+00
 HarFok:  IExCor= 1009 AccDes= 0.00D+00 IRadAn=         0 IDoV= 1
 ScaDFX=  1.000000  1.000000  1.000000  1.000000
 FoFCou: FMM=F IPFlag=           0 FMFlag=      100000 FMFlg1=           0
         NFxFlg=           0 DoJE=T BraDBF=F KetDBF=T FulRan=T
         Omega=  0.000000  0.000000  1.000000  0.000000  0.000000 ICntrl=     500 IOpCl=  0
         NMat0=    1 NMatS0=    1 NMatT0=    0 NMatD0=    1 NMtDS0=    0 NMtDT0=    0
         I1Cent=           4 NGrid=           0.
 Petite list used in FoFCou.
 Initial guess orbital symmetries:
       Occupied  (A) (A) (A) (A) (A) (A) (A) (A) (A) (A) (A) (A)
                 (A)
       Virtual   (A) (A) (A) (A) (A) (A) (A) (A) (A) (A) (A) (A)
                 (A) (A) (A) (A) (A) (A) (A) (A) (A) (A) (A) (A)
                 (A) (A) (A) (A) (A) (A) (A) (A) (A) (A) (A) (A)
                 (A) (A) (A) (A) (A) (A) (A) (A) (A) (A) (A) (A)
                 (A) (A) (A) (A) (A) (A) (A) (A) (A) (A) (A) (A)
                 (A) (A) (A) (A) (A) (A) (A) (A) (A) (A) (A) (A)
                 (A) (A) (A) (A) (A) (A) (A) (A) (A) (A) (A) (A)
                 (A) (A) (A) (A) (A) (A) (A) (A) (A) (A) (A) (A)
                 (A) (A) (A) (A) (A) (A) (A) (A) (A) (A) (A) (A)
                 (A) (A) (A) (A) (A) (A) (A) (A) (A) (A) (A) (A)
                 (A) (A) (A) (A) (A) (A) (A) (A) (A) (A) (A) (A)
                 (A) (A) (A) (A) (A) (A) (A) (A) (A) (A) (A) (A)
                 (A) (A) (A) (A) (A) (A) (A) (A) (A) (A) (A) (A)
                 (A) (A) (A) (A) (A)
 The electronic state of the initial guess is 1-A.
 Requested convergence on RMS density matrix=1.00D-08 within 128 cycles.
 Requested convergence on MAX density matrix=1.00D-06.
 Requested convergence on             energy=1.00D-06.
 No special actions if energy rises.
 Keep R1 ints in memory in canonical form, NReq=164854339.
 SCF Done:  E(RM062X) =  -119.105470697     A.U. after   10 cycles
             Convg  =    0.1539D-08             -V/T =  2.0064

 **********************************************************************

            Population analysis using the SCF density.

 **********************************************************************

 Orbital symmetries:
       Occupied  (A) (A) (A) (A) (A) (A) (A) (A) (A) (A) (A) (A)
                 (A)
       Virtual   (A) (A) (A) (A) (A) (A) (A) (A) (A) (A) (A) (A)
                 (A) (A) (A) (A) (A) (A) (A) (A) (A) (A) (A) (A)
                 (A) (A) (A) (A) (A) (A) (A) (A) (A) (A) (A) (A)
                 (A) (A) (A) (A) (A) (A) (A) (A) (A) (A) (A) (A)
                 (A) (A) (A) (A) (A) (A) (A) (A) (A) (A) (A) (A)
                 (A) (A) (A) (A) (A) (A) (A) (A) (A) (A) (A) (A)
                 (A) (A) (A) (A) (A) (A) (A) (A) (A) (A) (A) (A)
                 (A) (A) (A) (A) (A) (A) (A) (A) (A) (A) (A) (A)
                 (A) (A) (A) (A) (A) (A) (A) (A) (A) (A) (A) (A)
                 (A) (A) (A) (A) (A) (A) (A) (A) (A) (A) (A) (A)
                 (A) (A) (A) (A) (A) (A) (A) (A) (A) (A) (A) (A)
                 (A) (A) (A) (A) (A) (A) (A) (A) (A) (A) (A) (A)
                 (A) (A) (A) (A) (A) (A) (A) (A) (A) (A) (A) (A)
                 (A) (A) (A) (A) (A)
 The electronic state is 1-A.
 Alpha  occ. eigenvalues --  -10.53121 -10.52474 -10.52472  -0.87771  -0.76471
 Alpha  occ. eigenvalues --   -0.65798  -0.52833  -0.50121  -0.45962  -0.44228
 Alpha  occ. eigenvalues --   -0.39317  -0.38886  -0.38665
 Alpha virt. eigenvalues --    0.01968   0.03740   0.04100   0.04592   0.07483
 Alpha virt. eigenvalues --    0.07911   0.08064   0.08912   0.09125   0.12002
 Alpha virt. eigenvalues --    0.12046   0.13970   0.18809   0.19723   0.20171
 Alpha virt. eigenvalues --    0.22245   0.23138   0.24082   0.26844   0.26989
 Alpha virt. eigenvalues --    0.29032   0.30483   0.41260   0.42187   0.42420
 Alpha virt. eigenvalues --    0.46236   0.47299   0.47414   0.50137   0.52147
 Alpha virt. eigenvalues --    0.54878   0.54932   0.58051   0.58818   0.60589
 Alpha virt. eigenvalues --    0.60888   0.62489   0.62552   0.66681   0.68741
 Alpha virt. eigenvalues --    0.68954   0.73402   0.77617   0.82958   0.82995
 Alpha virt. eigenvalues --    0.83434   0.84161   0.90894   0.95575   1.00713
 Alpha virt. eigenvalues --    1.01201   1.09306   1.10048   1.12784   1.13758
 Alpha virt. eigenvalues --    1.16091   1.17948   1.18034   1.22303   1.22648
 Alpha virt. eigenvalues --    1.23975   1.24705   1.28727   1.34307   1.35387
 Alpha virt. eigenvalues --    1.35847   1.36141   1.42463   1.43324   1.43785
 Alpha virt. eigenvalues --    1.44281   1.44433   1.47892   1.53631   1.55326
 Alpha virt. eigenvalues --    1.58468   1.58847   1.60776   1.62482   1.65238
 Alpha virt. eigenvalues --    1.67211   2.36917   2.44173   2.44913   2.50270
 Alpha virt. eigenvalues --    2.55570   2.62575   2.62742   2.71365   2.72431
 Alpha virt. eigenvalues --    2.82507   2.82525   2.87242   2.89079   2.95493
 Alpha virt. eigenvalues --    2.96705   2.99548   3.04500   3.05449   3.07969
 Alpha virt. eigenvalues --    3.11608   3.12824   3.19539   3.20679   3.29225
 Alpha virt. eigenvalues --    3.30007   3.32888   3.33431   3.36281   3.36334
 Alpha virt. eigenvalues --    3.44443   3.46603   3.55002   3.58163   3.58226
 Alpha virt. eigenvalues --    3.59468   3.67883   3.69165   3.72794   3.77681
 Alpha virt. eigenvalues --    3.82224   3.82724   3.84603   3.90569   3.95342
 Alpha virt. eigenvalues --    3.96826   3.96886   3.98249   4.02132   4.06201
 Alpha virt. eigenvalues --    4.13210   4.17575   4.17682   4.19342   4.19677
 Alpha virt. eigenvalues --    4.19910   4.22621   4.26845   4.33362   4.34088
 Alpha virt. eigenvalues --    4.42263   4.49243   4.50966   4.52674   4.53489
 Alpha virt. eigenvalues --    4.55360   4.58020   4.63972   4.71175   4.79777
 Alpha virt. eigenvalues --    5.14430   5.35291   5.38696   5.49760   5.52052
 Alpha virt. eigenvalues --    5.55210   5.57050   5.58782  24.20762  24.30975
 Alpha virt. eigenvalues --   24.40219
          Condensed to atoms (all electrons):
              1          2          3          4          5          6
     1  C    5.076361   0.238821   0.238815   0.449941   0.449914  -0.023077
     2  C    0.238821   5.040459  -0.032472  -0.045370  -0.045376   0.414491
     3  C    0.238815  -0.032472   5.040460  -0.045380  -0.045371  -0.016954
     4  H    0.449941  -0.045370  -0.045380   0.552140  -0.034073   0.006521
     5  H    0.449914  -0.045376  -0.045371  -0.034073   0.552217  -0.008474
     6  H   -0.023077   0.414491  -0.016954   0.006521  -0.008474   0.559769
     7  H   -0.047591   0.406820   0.022099  -0.004771  -0.004770  -0.025024
     8  H   -0.023077   0.414487  -0.016952  -0.008473   0.006522  -0.035532
     9  H   -0.047589   0.022096   0.406814  -0.004772  -0.004773  -0.000018
    10  H   -0.023081  -0.016958   0.414497  -0.008474   0.006523  -0.000939
    11  H   -0.023089  -0.016952   0.414492   0.006523  -0.008477   0.003351
              7          8          9         10         11
     1  C   -0.047591  -0.023077  -0.047589  -0.023081  -0.023089
     2  C    0.406820   0.414487   0.022096  -0.016958  -0.016952
     3  C    0.022099  -0.016952   0.406814   0.414497   0.414492
     4  H   -0.004771  -0.008473  -0.004772  -0.008474   0.006523
     5  H   -0.004770   0.006522  -0.004773   0.006523  -0.008477
     6  H   -0.025024  -0.035532  -0.000018  -0.000939   0.003351
     7  H    0.553371  -0.025022  -0.000360  -0.000018  -0.000018
     8  H   -0.025022   0.559765  -0.000018   0.003351  -0.000939
     9  H   -0.000360  -0.000018   0.553393  -0.025027  -0.025025
    10  H   -0.000018   0.003351  -0.025027   0.559769  -0.035532
    11  H   -0.000018  -0.000939  -0.025025  -0.035532   0.559781
 Mulliken atomic charges:
              1
     1  C   -0.266348
     2  C   -0.380046
     3  C   -0.380046
     4  H    0.136188
     5  H    0.136139
     6  H    0.125887
     7  H    0.125286
     8  H    0.125889
     9  H    0.125277
    10  H    0.125888
    11  H    0.125885
 Sum of Mulliken atomic charges =   0.00000
 Mulliken charges with hydrogens summed into heavy atoms:
              1
     1  C    0.005980
     2  C   -0.002983
     3  C   -0.002996
 Sum of Mulliken charges with hydrogens summed into heavy atoms =   0.00000
 Electronic spatial extent (au):  <R**2>=            226.3955
 Charge=              0.0000 electrons
 Dipole moment (field-independent basis, Debye):
    X=              0.0000    Y=              0.1068    Z=             -0.0001  Tot=              0.1068
 Quadrupole moment (field-independent basis, Debye-Ang):
   XX=            -22.7472   YY=            -22.2201   ZZ=            -21.4975
   XY=             -0.0001   XZ=             -0.0001   YZ=             -0.0001
 Traceless Quadrupole moment (field-independent basis, Debye-Ang):
   XX=             -0.5922   YY=             -0.0652   ZZ=              0.6574
   XY=             -0.0001   XZ=             -0.0001   YZ=             -0.0001
 Octapole moment (field-independent basis, Debye-Ang**2):
  XXX=              0.0006  YYY=              0.4440  ZZZ=             -0.0003  XYY=             -0.0002
  XXY=              1.8490  XXZ=             -0.0002  XZZ=              0.0000  YZZ=             -0.5652
  YYZ=             -0.0005  XYZ=              0.0001
 Hexadecapole moment (field-independent basis, Debye-Ang**3):
 XXXX=           -205.9094 YYYY=            -75.1563 ZZZZ=            -46.1390 XXXY=             -0.0011
 XXXZ=             -0.0005 YYYX=             -0.0004 YYYZ=             -0.0003 ZZZX=             -0.0002
 ZZZY=             -0.0006 XXYY=            -45.9946 XXZZ=            -42.8073 YYZZ=            -17.5651
 XXYZ=             -0.0002 YYXZ=             -0.0001 ZZXY=              0.0001
 N-N= 8.228723019852D+01 E-N=-4.395859596170D+02  KE= 1.183468456402D+02
 Calling FoFJK, ICntrl=      2127 FMM=F ISym2X=0 I1Cent= 0 IOpClX= 0 NMat=1 NMatS=1 NMatT=0.
 ***** Axes restored to original set *****
 -------------------------------------------------------------------
 Center     Atomic                   Forces (Hartrees/Bohr)
 Number     Number              X              Y              Z
 -------------------------------------------------------------------
      1        6          -0.000136550    0.000975768    0.004839524
      2        6           0.008792020   -0.000021645    0.001640597
      3        6          -0.008966005    0.000502271    0.000798308
      4        1           0.000630974    0.010607400   -0.006898273
      5        1          -0.000250993   -0.012468386   -0.002741827
      6        1           0.000228199   -0.010378021    0.008030872
      7        1          -0.007446598   -0.001721443   -0.010971211
      8        1           0.001109109    0.012480278    0.003845562
      9        1           0.008308031   -0.002191759   -0.010259370
     10        1          -0.000694734    0.012541245    0.003766902
     11        1          -0.001573453   -0.010325709    0.007948916
 -------------------------------------------------------------------
 Cartesian Forces:  Max     0.012541245 RMS     0.006865221

 GradGradGradGradGradGradGradGradGradGradGradGradGradGradGradGradGradGrad
 Berny optimization.
 Internal  Forces:  Max     0.012938674 RMS     0.005604861
 Search for a local minimum.
 Step number   1 out of a maximum of   56
 All quantities printed in internal units (Hartrees-Bohrs-Radians)
 Swaping is turned off.
 Second derivative matrix not updated -- first step.
 ITU=  0
     Eigenvalues ---    0.00426   0.00428   0.03774   0.04960   0.05675
     Eigenvalues ---    0.05675   0.05794   0.05794   0.08082   0.12007
     Eigenvalues ---    0.16000   0.16000   0.16000   0.16000   0.16000
     Eigenvalues ---    0.16000   0.21951   0.29824   0.29837   0.32447
     Eigenvalues ---    0.32466   0.32500   0.32500   0.32502   0.32503
     Eigenvalues ---    0.32558   0.32561
 Angle between quadratic step and forces=  30.92 degrees.
 Linear search not attempted -- option 19 set.
 Iteration  1 RMS(Cart)=  0.02459030 RMS(Int)=  0.00041725
 Iteration  2 RMS(Cart)=  0.00047741 RMS(Int)=  0.00014506
 Iteration  3 RMS(Cart)=  0.00000018 RMS(Int)=  0.00014506
 Variable       Old X    -DE/DX   Delta X   Delta X   Delta X     New X
                                 (Linear)    (Quad)   (Total)
    R1        2.88317   0.00091   0.00000   0.00305   0.00305   2.88621
    R2        2.88290   0.00097   0.00000   0.00326   0.00326   2.88616
    R3        2.09999  -0.01234   0.00000  -0.03800  -0.03800   2.06199
    R4        2.10034  -0.01244   0.00000  -0.03834  -0.03834   2.06200
    R5        2.09938  -0.01294   0.00000  -0.03981  -0.03981   2.05958
    R6        2.09829  -0.01273   0.00000  -0.03910  -0.03910   2.05918
    R7        2.09932  -0.01292   0.00000  -0.03975  -0.03975   2.05958
    R8        2.09834  -0.01275   0.00000  -0.03915  -0.03915   2.05919
    R9        2.09936  -0.01293   0.00000  -0.03977  -0.03977   2.05958
   R10        2.09939  -0.01294   0.00000  -0.03981  -0.03981   2.05958
    A1        1.94262   0.00259   0.00000   0.01992   0.01974   1.96236
    A2        1.90709  -0.00038   0.00000   0.00275   0.00262   1.90971
    A3        1.90704  -0.00037   0.00000   0.00278   0.00265   1.90969
    A4        1.90715  -0.00037   0.00000   0.00276   0.00263   1.90978
    A5        1.90711  -0.00038   0.00000   0.00276   0.00263   1.90974
    A6        1.89213  -0.00119   0.00000  -0.03241  -0.03240   1.85974
    A7        1.92549   0.00133   0.00000   0.00552   0.00536   1.93085
    A8        1.91185   0.00560   0.00000   0.04055   0.04021   1.95205
    A9        1.92546   0.00134   0.00000   0.00555   0.00539   1.93085
   A10        1.89640  -0.00291   0.00000  -0.01274  -0.01306   1.88333
   A11        1.90770  -0.00259   0.00000  -0.02678  -0.02675   1.88095
   A12        1.89645  -0.00292   0.00000  -0.01277  -0.01310   1.88335
   A13        1.91193   0.00559   0.00000   0.04050   0.04016   1.95209
   A14        1.92556   0.00133   0.00000   0.00549   0.00533   1.93089
   A15        1.92551   0.00134   0.00000   0.00554   0.00538   1.93089
   A16        1.89634  -0.00291   0.00000  -0.01272  -0.01304   1.88330
   A17        1.89634  -0.00291   0.00000  -0.01272  -0.01304   1.88329
   A18        1.90767  -0.00258   0.00000  -0.02677  -0.02675   1.88092
    D1        1.05479  -0.00075   0.00000  -0.01315  -0.01324   1.04155
    D2        3.14159   0.00000   0.00000  -0.00001  -0.00001   3.14158
    D3       -1.05475   0.00074   0.00000   0.01310   0.01320  -1.04155
    D4       -3.12055   0.00019   0.00000   0.00485   0.00478  -3.11577
    D5       -1.03375   0.00094   0.00000   0.01799   0.01801  -1.01574
    D6        1.05309   0.00168   0.00000   0.03110   0.03122   1.08431
    D7       -1.05296  -0.00168   0.00000  -0.03117  -0.03129  -1.08425
    D8        1.03384  -0.00094   0.00000  -0.01803  -0.01805   1.01578
    D9        3.12068  -0.00019   0.00000  -0.00491  -0.00485   3.11583
   D10       -3.14157   0.00000   0.00000  -0.00001  -0.00001  -3.14158
   D11        1.05480  -0.00075   0.00000  -0.01314  -0.01323   1.04157
   D12       -1.05478   0.00075   0.00000   0.01314   0.01323  -1.04155
   D13        1.03381  -0.00094   0.00000  -0.01800  -0.01802   1.01578
   D14       -1.05301  -0.00168   0.00000  -0.03113  -0.03124  -1.08425
   D15        3.12059  -0.00019   0.00000  -0.00485  -0.00478   3.11581
   D16       -1.03385   0.00094   0.00000   0.01802   0.01805  -1.01581
   D17       -3.12067   0.00019   0.00000   0.00489   0.00483  -3.11584
   D18        1.05293   0.00169   0.00000   0.03117   0.03129   1.08422
         Item               Value     Threshold  Converged?
 Maximum Force            0.012939     0.000002     NO 
 RMS     Force            0.005605     0.000001     NO 
 Maximum Displacement     0.055934     0.000006     NO 
 RMS     Displacement     0.024473     0.000004     NO 
 Predicted change in Energy=-2.594656D-03
 GradGradGradGradGradGradGradGradGradGradGradGradGradGradGradGradGradGrad

                          Input orientation:                          
 ---------------------------------------------------------------------
 Center     Atomic      Atomic             Coordinates (Angstroms)
 Number     Number       Type             X           Y           Z
 ---------------------------------------------------------------------
      1          6           0       -0.024295    0.112278    0.223313
      2          6           0        1.276506   -0.079434   -0.553776
      3          6           0       -1.258604   -0.003439   -0.668712
      4          1           0       -0.082679   -0.629370    1.021545
      5          1           0       -0.016902    1.090151    0.707402
      6          1           0        1.367486    0.668968   -1.340831
      7          1           0        2.150499    0.005009    0.091508
      8          1           0        1.301262   -1.062040   -1.024641
      9          1           0       -2.180770    0.134840   -0.104899
     10          1           0       -1.299419   -0.984079   -1.142555
     11          1           0       -1.233184    0.746916   -1.458755
 ---------------------------------------------------------------------
                    Distance matrix (angstroms):
                    1          2          3          4          5
     1  C    0.000000
     2  C    1.527319   0.000000
     3  C    1.527291   2.538851   0.000000
     4  H    1.091157   2.152080   2.152105   0.000000
     5  H    1.091161   2.152069   2.152081   1.749218   0.000000
     6  H    2.166450   1.089880   2.792888   3.060961   2.507825
     7  H    2.181423   1.089672   3.492848   2.500898   2.500897
     8  H    2.166452   1.089881   2.792890   2.507863   3.060957
     9  H    2.181426   3.492872   1.089677   2.500975   2.500955
    10  H    2.166457   2.792925   1.089884   2.507908   3.060984
    11  H    2.166456   2.792917   1.089884   3.060998   2.507865
                    6          7          8          9         10
     6  H    0.000000
     7  H    1.762256   0.000000
     8  H    1.760894   1.762266   0.000000
     9  H    3.795121   4.337663   3.795128   0.000000
    10  H    3.143924   3.795147   2.604520   1.762240   0.000000
    11  H    2.604509   3.795135   3.143913   1.762237   1.760884
                   11
    11  H    0.000000
 Stoichiometry    C3H8
 Framework group  C1[X(C3H8)]
 Deg. of freedom    27
 Full point group                 C1      NOp   1
 Largest Abelian subgroup         C1      NOp   1
 Largest concise Abelian subgroup C1      NOp   1
                         Standard orientation:                         
 ---------------------------------------------------------------------
 Center     Atomic      Atomic             Coordinates (Angstroms)
 Number     Number       Type             X           Y           Z
 ---------------------------------------------------------------------
      1          6           0        0.000007    0.589129   -0.000004
      2          6           0       -1.269431   -0.260124   -0.000002
      3          6           0        1.269420   -0.260111   -0.000001
      4          1           0       -0.000034    1.241598   -0.874594
      5          1           0       -0.000023    1.241554    0.874624
      6          1           0       -1.302242   -0.901663    0.880447
      7          1           0       -2.168824    0.355081    0.000007
      8          1           0       -1.302243   -0.901670   -0.880447
      9          1           0        2.168839    0.355066    0.000008
     10          1           0        1.302277   -0.901661   -0.880445
     11          1           0        1.302268   -0.901666    0.880439
 ---------------------------------------------------------------------
 Rotational constants (GHZ):     29.5707847      8.4710874      7.4964169
 Standard basis: 6-311+G(2df,2p) (5D, 7F)
 There are   174 symmetry adapted basis functions of A   symmetry.
 Integral buffers will be    131072 words long.
 Raffenetti 2 integral format.
 Two-electron integral symmetry is turned on.
   174 basis functions,   244 primitive gaussians,   189 cartesian basis functions
    13 alpha electrons       13 beta electrons
       nuclear repulsion energy        82.6992707072 Hartrees.
 NAtoms=   11 NActive=   11 NUniq=   11 SFac= 1.00D+00 NAtFMM=   50 NAOKFM=F Big=F
 One-electron integrals computed using PRISM.
 NBasis=   174 RedAO= T  NBF=   174
 NBsUse=   174 1.00D-06 NBFU=   174
 Initial guess read from the read-write file.
 B after Tr=     0.000000    0.000000    0.000000
         Rot=    1.000000    0.000000    0.000000    0.000000 Ang=   0.00 deg.
 Initial guess orbital symmetries:
       Occupied  (A) (A) (A) (A) (A) (A) (A) (A) (A) (A) (A) (A)
                 (A)
       Virtual   (A) (A) (A) (A) (A) (A) (A) (A) (A) (A) (A) (A)
                 (A) (A) (A) (A) (A) (A) (A) (A) (A) (A) (A) (A)
                 (A) (A) (A) (A) (A) (A) (A) (A) (A) (A) (A) (A)
                 (A) (A) (A) (A) (A) (A) (A) (A) (A) (A) (A) (A)
                 (A) (A) (A) (A) (A) (A) (A) (A) (A) (A) (A) (A)
                 (A) (A) (A) (A) (A) (A) (A) (A) (A) (A) (A) (A)
                 (A) (A) (A) (A) (A) (A) (A) (A) (A) (A) (A) (A)
                 (A) (A) (A) (A) (A) (A) (A) (A) (A) (A) (A) (A)
                 (A) (A) (A) (A) (A) (A) (A) (A) (A) (A) (A) (A)
                 (A) (A) (A) (A) (A) (A) (A) (A) (A) (A) (A) (A)
                 (A) (A) (A) (A) (A) (A) (A) (A) (A) (A) (A) (A)
                 (A) (A) (A) (A) (A) (A) (A) (A) (A) (A) (A) (A)
                 (A) (A) (A) (A) (A) (A) (A) (A) (A) (A) (A) (A)
                 (A) (A) (A) (A) (A)
 Harris functional with IExCor= 1009 diagonalized for initial guess.
 ExpMin= 4.38D-02 ExpMax= 4.56D+03 ExpMxC= 6.82D+02 IAcc=2 IRadAn=         0 AccDes= 0.00D+00
 HarFok:  IExCor= 1009 AccDes= 0.00D+00 IRadAn=         0 IDoV= 1
 ScaDFX=  1.000000  1.000000  1.000000  1.000000
 FoFCou: FMM=F IPFlag=           0 FMFlag=      100000 FMFlg1=           0
         NFxFlg=           0 DoJE=T BraDBF=F KetDBF=T FulRan=T
         Omega=  0.000000  0.000000  1.000000  0.000000  0.000000 ICntrl=     500 IOpCl=  0
         NMat0=    1 NMatS0=    1 NMatT0=    0 NMatD0=    1 NMtDS0=    0 NMtDT0=    0
         I1Cent=           4 NGrid=           0.
 Petite list used in FoFCou.
 Requested convergence on RMS density matrix=1.00D-08 within 128 cycles.
 Requested convergence on MAX density matrix=1.00D-06.
 Requested convergence on             energy=1.00D-06.
 No special actions if energy rises.
 Keep R1 ints in memory in canonical form, NReq=164854339.
 SCF Done:  E(RM062X) =  -119.107988509     A.U. after    9 cycles
             Convg  =    0.2579D-08             -V/T =  2.0047
 Calling FoFJK, ICntrl=      2127 FMM=F ISym2X=0 I1Cent= 0 IOpClX= 0 NMat=1 NMatS=1 NMatT=0.
 ***** Axes restored to original set *****
 -------------------------------------------------------------------
 Center     Atomic                   Forces (Hartrees/Bohr)
 Number     Number              X              Y              Z
 -------------------------------------------------------------------
      1        6           0.000047965   -0.000149291   -0.000840383
      2        6          -0.001791373    0.000249590    0.000993993
      3        6           0.001685766    0.000142618    0.001145453
      4        1          -0.000028643   -0.000041556    0.000518657
      5        1          -0.000017420    0.000221430    0.000471607
      6        1           0.000087097    0.000337220   -0.000772014
      7        1          -0.000293841    0.000049874    0.000216427
      8        1           0.000052532   -0.000593118   -0.000601169
      9        1           0.000279220    0.000033724    0.000244455
     10        1          -0.000028758   -0.000590067   -0.000603583
     11        1           0.000007454    0.000339577   -0.000773443
 -------------------------------------------------------------------
 Cartesian Forces:  Max     0.001791373 RMS     0.000623829

 GradGradGradGradGradGradGradGradGradGradGradGradGradGradGradGradGradGrad
 Berny optimization.
 Using GDIIS optimizer.
 Internal  Forces:  Max     0.001832709 RMS     0.000552241
 Search for a local minimum.
 Step number   2 out of a maximum of   56
 All quantities printed in internal units (Hartrees-Bohrs-Radians)
 Swaping is turned off.
 Update second derivatives using D2CorX and points    1    2
 DE= -2.52D-03 DEPred=-2.59D-03 R= 9.70D-01
 SS=  1.41D+00  RLast= 1.59D-01 DXNew= 5.0454D-01 4.7674D-01
 Trust test= 9.70D-01 RLast= 1.59D-01 DXMaxT set to 4.77D-01
 ITU=  1  0
     Eigenvalues ---    0.00426   0.00428   0.03599   0.04882   0.05484
     Eigenvalues ---    0.05485   0.05611   0.05629   0.08333   0.12195
     Eigenvalues ---    0.15861   0.16000   0.16000   0.16000   0.16000
     Eigenvalues ---    0.16216   0.22018   0.29434   0.29830   0.32311
     Eigenvalues ---    0.32454   0.32481   0.32500   0.32501   0.32503
     Eigenvalues ---    0.32560   0.34410
 DIIS coeff's:      0.96021      0.03979
 Cosine:  1.000 >  0.970
 Length:  1.000
 GDIIS step was calculated using  2 of the last  2 vectors.
 Iteration  1 RMS(Cart)=  0.00547220 RMS(Int)=  0.00001009
 Iteration  2 RMS(Cart)=  0.00000809 RMS(Int)=  0.00000655
 Iteration  3 RMS(Cart)=  0.00000000 RMS(Int)=  0.00000655
 Variable       Old X    -DE/DX   Delta X   Delta X   Delta X     New X
                                  (DIIS)     (GDIIS)  (Total)
    R1        2.88621  -0.00158  -0.00012  -0.00494  -0.00506   2.88115
    R2        2.88616  -0.00157  -0.00013  -0.00490  -0.00503   2.88113
    R3        2.06199   0.00041   0.00151  -0.00062   0.00090   2.06288
    R4        2.06200   0.00041   0.00153  -0.00064   0.00089   2.06288
    R5        2.05958   0.00080   0.00158   0.00044   0.00202   2.06160
    R6        2.05918  -0.00010   0.00156  -0.00219  -0.00063   2.05855
    R7        2.05958   0.00080   0.00158   0.00044   0.00202   2.06160
    R8        2.05919  -0.00011   0.00156  -0.00219  -0.00064   2.05856
    R9        2.05958   0.00079   0.00158   0.00043   0.00202   2.06160
   R10        2.05958   0.00079   0.00158   0.00043   0.00202   2.06160
    A1        1.96236  -0.00183  -0.00079  -0.00718  -0.00795   1.95441
    A2        1.90971   0.00059  -0.00010   0.00267   0.00257   1.91228
    A3        1.90969   0.00059  -0.00011   0.00269   0.00259   1.91228
    A4        1.90978   0.00059  -0.00010   0.00262   0.00252   1.91230
    A5        1.90974   0.00059  -0.00010   0.00266   0.00256   1.91230
    A6        1.85974  -0.00046   0.00129  -0.00325  -0.00197   1.85776
    A7        1.93085   0.00025  -0.00021   0.00167   0.00146   1.93231
    A8        1.95205  -0.00054  -0.00160  -0.00113  -0.00271   1.94934
    A9        1.93085   0.00025  -0.00021   0.00167   0.00146   1.93232
   A10        1.88333   0.00017   0.00052   0.00061   0.00114   1.88447
   A11        1.88095  -0.00031   0.00106  -0.00356  -0.00249   1.87845
   A12        1.88335   0.00017   0.00052   0.00059   0.00113   1.88448
   A13        1.95209  -0.00055  -0.00160  -0.00115  -0.00273   1.94936
   A14        1.93089   0.00025  -0.00021   0.00164   0.00143   1.93233
   A15        1.93089   0.00025  -0.00021   0.00164   0.00143   1.93232
   A16        1.88330   0.00018   0.00052   0.00063   0.00116   1.88446
   A17        1.88329   0.00018   0.00052   0.00063   0.00117   1.88446
   A18        1.88092  -0.00030   0.00106  -0.00354  -0.00248   1.87845
    D1        1.04155  -0.00003   0.00053  -0.00114  -0.00061   1.04095
    D2        3.14158   0.00000   0.00000   0.00002   0.00002  -3.14158
    D3       -1.04155   0.00003  -0.00053   0.00116   0.00063  -1.04093
    D4       -3.11577  -0.00009  -0.00019  -0.00073  -0.00092  -3.11670
    D5       -1.01574  -0.00006  -0.00072   0.00042  -0.00030  -1.01604
    D6        1.08431  -0.00003  -0.00124   0.00156   0.00031   1.08462
    D7       -1.08425   0.00003   0.00124  -0.00160  -0.00035  -1.08460
    D8        1.01578   0.00006   0.00072  -0.00044   0.00028   1.01606
    D9        3.11583   0.00009   0.00019   0.00069   0.00088   3.11672
   D10       -3.14158   0.00000   0.00000  -0.00002  -0.00002   3.14159
   D11        1.04157  -0.00003   0.00053  -0.00117  -0.00064   1.04093
   D12       -1.04155   0.00003  -0.00053   0.00114   0.00061  -1.04094
   D13        1.01578   0.00006   0.00072  -0.00045   0.00027   1.01605
   D14       -1.08425   0.00003   0.00124  -0.00160  -0.00035  -1.08461
   D15        3.11581   0.00009   0.00019   0.00071   0.00090   3.11671
   D16       -1.01581  -0.00006  -0.00072   0.00047  -0.00025  -1.01606
   D17       -3.11584  -0.00009  -0.00019  -0.00069  -0.00088  -3.11672
   D18        1.08422  -0.00003  -0.00124   0.00162   0.00037   1.08459
         Item               Value     Threshold  Converged?
 Maximum Force            0.001833     0.000002     NO 
 RMS     Force            0.000552     0.000001     NO 
 Maximum Displacement     0.013475     0.000006     NO 
 RMS     Displacement     0.005473     0.000004     NO 
 Predicted change in Energy=-2.594335D-05
 GradGradGradGradGradGradGradGradGradGradGradGradGradGradGradGradGradGrad

                          Input orientation:                          
 ---------------------------------------------------------------------
 Center     Atomic      Atomic             Coordinates (Angstroms)
 Number     Number       Type             X           Y           Z
 ---------------------------------------------------------------------
      1          6           0       -0.024417    0.112882    0.226519
      2          6           0        1.270920   -0.079316   -0.554307
      3          6           0       -1.253005   -0.003657   -0.668734
      4          1           0       -0.082866   -0.628309    1.025818
      5          1           0       -0.017101    1.090692    0.711794
      6          1           0        1.360546    0.668859   -1.343215
      7          1           0        2.145467    0.004863    0.089696
      8          1           0        1.294310   -1.062267   -1.026994
      9          1           0       -2.175605    0.134392   -0.106226
     10          1           0       -1.292288   -0.984730   -1.144263
     11          1           0       -1.226060    0.746392   -1.460488
 ---------------------------------------------------------------------
                    Distance matrix (angstroms):
                    1          2          3          4          5
     1  C    0.000000
     2  C    1.524640   0.000000
     3  C    1.524627   2.527650   0.000000
     4  H    1.091631   2.151959   2.151957   0.000000
     5  H    1.091631   2.151959   2.151956   1.748686   0.000000
     6  H    2.165941   1.090951   2.781700   3.062418   2.509764
     7  H    2.176875   1.089339   3.482083   2.498540   2.498546
     8  H    2.165943   1.090951   2.781693   2.509775   3.062420
     9  H    2.176877   3.482095   1.089341   2.498558   2.498561
    10  H    2.165940   2.781701   1.090952   2.509779   3.062422
    11  H    2.165935   2.781702   1.090951   3.062419   2.509767
                    6          7          8          9         10
     6  H    0.000000
     7  H    1.763583   0.000000
     8  H    1.761017   1.763585   0.000000
     9  H    3.784199   4.327451   3.784193   0.000000
    10  H    3.132327   3.784192   2.590416   1.763577   0.000000
    11  H    2.590424   3.784195   3.132320   1.763577   1.761014
                   11
    11  H    0.000000
 Stoichiometry    C3H8
 Framework group  C1[X(C3H8)]
 Deg. of freedom    27
 Full point group                 C1      NOp   1
 Largest Abelian subgroup         C1      NOp   1
 Largest concise Abelian subgroup C1      NOp   1
                         Standard orientation:                         
 ---------------------------------------------------------------------
 Center     Atomic      Atomic             Coordinates (Angstroms)
 Number     Number       Type             X           Y           Z
 ---------------------------------------------------------------------
      1          6           0        0.000005    0.591874   -0.000001
      2          6           0       -1.263828   -0.260919    0.000000
      3          6           0        1.263822   -0.260917    0.000000
      4          1           0       -0.000002    1.245466   -0.874344
      5          1           0       -0.000002    1.245466    0.874342
      6          1           0       -1.295213   -0.904256    0.880514
      7          1           0       -2.163721    0.352963   -0.000008
      8          1           0       -1.295206   -0.904273   -0.880503
      9          1           0        2.163730    0.352947   -0.000006
     10          1           0        1.295210   -0.904274   -0.880502
     11          1           0        1.295211   -0.904259    0.880512
 ---------------------------------------------------------------------
 Rotational constants (GHZ):     29.4266460      8.5368203      7.5383130
 Standard basis: 6-311+G(2df,2p) (5D, 7F)
 There are   174 symmetry adapted basis functions of A   symmetry.
 Integral buffers will be    131072 words long.
 Raffenetti 2 integral format.
 Two-electron integral symmetry is turned on.
   174 basis functions,   244 primitive gaussians,   189 cartesian basis functions
    13 alpha electrons       13 beta electrons
       nuclear repulsion energy        82.8001858716 Hartrees.
 NAtoms=   11 NActive=   11 NUniq=   11 SFac= 1.00D+00 NAtFMM=   50 NAOKFM=F Big=F
 One-electron integrals computed using PRISM.
 NBasis=   174 RedAO= T  NBF=   174
 NBsUse=   174 1.00D-06 NBFU=   174
 Initial guess read from the read-write file.
 B after Tr=     0.000000    0.000000    0.000000
         Rot=    1.000000    0.000000    0.000000    0.000000 Ang=   0.00 deg.
 Initial guess orbital symmetries:
       Occupied  (A) (A) (A) (A) (A) (A) (A) (A) (A) (A) (A) (A)
                 (A)
       Virtual   (A) (A) (A) (A) (A) (A) (A) (A) (A) (A) (A) (A)
                 (A) (A) (A) (A) (A) (A) (A) (A) (A) (A) (A) (A)
                 (A) (A) (A) (A) (A) (A) (A) (A) (A) (A) (A) (A)
                 (A) (A) (A) (A) (A) (A) (A) (A) (A) (A) (A) (A)
                 (A) (A) (A) (A) (A) (A) (A) (A) (A) (A) (A) (A)
                 (A) (A) (A) (A) (A) (A) (A) (A) (A) (A) (A) (A)
                 (A) (A) (A) (A) (A) (A) (A) (A) (A) (A) (A) (A)
                 (A) (A) (A) (A) (A) (A) (A) (A) (A) (A) (A) (A)
                 (A) (A) (A) (A) (A) (A) (A) (A) (A) (A) (A) (A)
                 (A) (A) (A) (A) (A) (A) (A) (A) (A) (A) (A) (A)
                 (A) (A) (A) (A) (A) (A) (A) (A) (A) (A) (A) (A)
                 (A) (A) (A) (A) (A) (A) (A) (A) (A) (A) (A) (A)
                 (A) (A) (A) (A) (A) (A) (A) (A) (A) (A) (A) (A)
                 (A) (A) (A) (A) (A)
 Requested convergence on RMS density matrix=1.00D-08 within 128 cycles.
 Requested convergence on MAX density matrix=1.00D-06.
 Requested convergence on             energy=1.00D-06.
 No special actions if energy rises.
 Keep R1 ints in memory in canonical form, NReq=164854339.
 DSYEVD returned Info=         349 IAlg= 4 N=   174 NDim=   174 NE2=     2929194 trying DSYEV.
 SCF Done:  E(RM062X) =  -119.108013662     A.U. after    8 cycles
             Convg  =    0.2537D-08             -V/T =  2.0047
 Calling FoFJK, ICntrl=      2127 FMM=F ISym2X=0 I1Cent= 0 IOpClX= 0 NMat=1 NMatS=1 NMatT=0.
 ***** Axes restored to original set *****
 -------------------------------------------------------------------
 Center     Atomic                   Forces (Hartrees/Bohr)
 Number     Number              X              Y              Z
 -------------------------------------------------------------------
      1        6           0.000026068   -0.000095752   -0.000516497
      2        6          -0.000121444    0.000073884    0.000376764
      3        6           0.000083261    0.000066737    0.000381788
      4        1          -0.000007778   -0.000023325    0.000143972
      5        1          -0.000004024    0.000072954    0.000126319
      6        1           0.000002959    0.000028940   -0.000120341
      7        1           0.000245337   -0.000013810   -0.000023842
      8        1          -0.000000875   -0.000069725   -0.000102014
      9        1          -0.000241013    0.000001027   -0.000045086
     10        1           0.000007044   -0.000069668   -0.000101309
     11        1           0.000010464    0.000028738   -0.000119754
 -------------------------------------------------------------------
 Cartesian Forces:  Max     0.000516497 RMS     0.000157698

 GradGradGradGradGradGradGradGradGradGradGradGradGradGradGradGradGradGrad
 Berny optimization.
 Using GDIIS optimizer.
 Internal  Forces:  Max     0.000253090 RMS     0.000087285
 Search for a local minimum.
 Step number   3 out of a maximum of   56
 All quantities printed in internal units (Hartrees-Bohrs-Radians)
 Swaping is turned off.
 Update second derivatives using D2CorX and points    1    2    3
 DE= -2.52D-05 DEPred=-2.59D-05 R= 9.70D-01
 SS=  1.41D+00  RLast= 1.45D-02 DXNew= 8.0178D-01 4.3410D-02
 Trust test= 9.70D-01 RLast= 1.45D-02 DXMaxT set to 4.77D-01
 ITU=  1  1  0
     Eigenvalues ---    0.00426   0.00428   0.03634   0.04863   0.05449
     Eigenvalues ---    0.05492   0.05493   0.05620   0.08264   0.12145
     Eigenvalues ---    0.15544   0.16000   0.16000   0.16000   0.16000
     Eigenvalues ---    0.16860   0.23234   0.29829   0.30526   0.32145
     Eigenvalues ---    0.32453   0.32474   0.32500   0.32501   0.32503
     Eigenvalues ---    0.32560   0.33164
 DIIS coeff's:      0.95792      0.03960      0.00248
 Cosine:  1.000 >  0.840
 Length:  0.992
 GDIIS step was calculated using  3 of the last  3 vectors.
 Iteration  1 RMS(Cart)=  0.00076675 RMS(Int)=  0.00000064
 Iteration  2 RMS(Cart)=  0.00000063 RMS(Int)=  0.00000022
 Variable       Old X    -DE/DX   Delta X   Delta X   Delta X     New X
                                  (DIIS)     (GDIIS)  (Total)
    R1        2.88115   0.00004   0.00021  -0.00030  -0.00009   2.88106
    R2        2.88113   0.00004   0.00020  -0.00028  -0.00007   2.88105
    R3        2.06288   0.00012   0.00006   0.00034   0.00040   2.06328
    R4        2.06288   0.00012   0.00006   0.00034   0.00039   2.06328
    R5        2.06160   0.00011   0.00001   0.00039   0.00040   2.06200
    R6        2.05855   0.00018   0.00012   0.00038   0.00051   2.05906
    R7        2.06160   0.00011   0.00001   0.00039   0.00040   2.06200
    R8        2.05856   0.00018   0.00012   0.00038   0.00050   2.05906
    R9        2.06160   0.00011   0.00001   0.00038   0.00040   2.06200
   R10        2.06160   0.00011   0.00001   0.00039   0.00040   2.06200
    A1        1.95441   0.00008   0.00029  -0.00003   0.00026   1.95467
    A2        1.91228  -0.00001  -0.00011   0.00028   0.00017   1.91245
    A3        1.91228  -0.00001  -0.00012   0.00028   0.00016   1.91245
    A4        1.91230  -0.00002  -0.00011   0.00027   0.00016   1.91245
    A5        1.91230  -0.00002  -0.00011   0.00027   0.00016   1.91245
    A6        1.85776  -0.00003   0.00016  -0.00112  -0.00096   1.85680
    A7        1.93231  -0.00002  -0.00007  -0.00016  -0.00024   1.93208
    A8        1.94934   0.00025   0.00001   0.00172   0.00174   1.95108
    A9        1.93232  -0.00002  -0.00007  -0.00016  -0.00024   1.93208
   A10        1.88447  -0.00009  -0.00002  -0.00014  -0.00015   1.88432
   A11        1.87845  -0.00005   0.00017  -0.00122  -0.00105   1.87740
   A12        1.88448  -0.00009  -0.00001  -0.00014  -0.00016   1.88432
   A13        1.94936   0.00025   0.00002   0.00171   0.00172   1.95108
   A14        1.93233  -0.00002  -0.00007  -0.00017  -0.00025   1.93208
   A15        1.93232  -0.00002  -0.00007  -0.00017  -0.00024   1.93208
   A16        1.88446  -0.00008  -0.00002  -0.00013  -0.00014   1.88432
   A17        1.88446  -0.00008  -0.00002  -0.00013  -0.00014   1.88432
   A18        1.87845  -0.00005   0.00017  -0.00122  -0.00105   1.87740
    D1        1.04095  -0.00005   0.00006  -0.00088  -0.00082   1.04013
    D2       -3.14158   0.00000   0.00000  -0.00001  -0.00001  -3.14159
    D3       -1.04093   0.00005  -0.00006   0.00086   0.00080  -1.04013
    D4       -3.11670  -0.00002   0.00003  -0.00036  -0.00033  -3.11703
    D5       -1.01604   0.00003  -0.00003   0.00051   0.00048  -1.01556
    D6        1.08462   0.00007  -0.00009   0.00138   0.00128   1.08590
    D7       -1.08460  -0.00007   0.00009  -0.00139  -0.00130  -1.08590
    D8        1.01606  -0.00003   0.00003  -0.00052  -0.00049   1.01557
    D9        3.11672   0.00002  -0.00003   0.00034   0.00032   3.11703
   D10        3.14159   0.00000   0.00000   0.00000   0.00000   3.14159
   D11        1.04093  -0.00005   0.00006  -0.00086  -0.00080   1.04013
   D12       -1.04094   0.00005  -0.00006   0.00087   0.00082  -1.04013
   D13        1.01605  -0.00003   0.00003  -0.00052  -0.00049   1.01557
   D14       -1.08461  -0.00007   0.00009  -0.00139  -0.00129  -1.08590
   D15        3.11671   0.00002  -0.00003   0.00035   0.00033   3.11703
   D16       -1.01606   0.00003  -0.00003   0.00053   0.00049  -1.01557
   D17       -3.11672  -0.00002   0.00002  -0.00034  -0.00031  -3.11703
   D18        1.08459   0.00007  -0.00009   0.00140   0.00131   1.08590
         Item               Value     Threshold  Converged?
 Maximum Force            0.000253     0.000002     NO 
 RMS     Force            0.000087     0.000001     NO 
 Maximum Displacement     0.002478     0.000006     NO 
 RMS     Displacement     0.000767     0.000004     NO 
 Predicted change in Energy=-1.076618D-06
 GradGradGradGradGradGradGradGradGradGradGradGradGradGradGradGradGradGrad

                          Input orientation:                          
 ---------------------------------------------------------------------
 Center     Atomic      Atomic             Coordinates (Angstroms)
 Number     Number       Type             X           Y           Z
 ---------------------------------------------------------------------
      1          6           0       -0.024424    0.112920    0.226738
      2          6           0        1.270975   -0.079242   -0.553900
      3          6           0       -1.253096   -0.003580   -0.668337
      4          1           0       -0.082894   -0.628031    1.026543
      5          1           0       -0.017139    1.090684    0.712578
      6          1           0        1.360081    0.668669   -1.343409
      7          1           0        2.146779    0.004670    0.088883
      8          1           0        1.293862   -1.062125   -1.027240
      9          1           0       -2.176843    0.134275   -0.107148
     10          1           0       -1.291809   -0.984617   -1.144470
     11          1           0       -1.225592    0.746177   -1.460640
 ---------------------------------------------------------------------
                    Distance matrix (angstroms):
                    1          2          3          4          5
     1  C    0.000000
     2  C    1.524592   0.000000
     3  C    1.524588   2.527796   0.000000
     4  H    1.091840   2.152192   2.152192   0.000000
     5  H    1.091840   2.152192   2.152191   1.748393   0.000000
     6  H    2.165888   1.091162   2.781427   3.062724   2.510361
     7  H    2.178266   1.089607   3.483188   2.500191   2.500192
     8  H    2.165888   1.091162   2.781425   2.510363   3.062724
     9  H    2.178266   3.483191   1.089608   2.500197   2.500198
    10  H    2.165887   2.781428   1.091162   2.510364   3.062725
    11  H    2.165887   2.781428   1.091162   3.062725   2.510362
                    6          7          8          9         10
     6  H    0.000000
     7  H    1.763873   0.000000
     8  H    1.760681   1.763873   0.000000
     9  H    3.784673   4.330003   3.784671   0.000000
    10  H    3.131366   3.784671   2.589488   1.763871   0.000000
    11  H    2.589490   3.784672   3.131365   1.763871   1.760680
                   11
    11  H    0.000000
 Stoichiometry    C3H8
 Framework group  C1[X(C3H8)]
 Deg. of freedom    27
 Full point group                 C1      NOp   1
 Largest Abelian subgroup         C1      NOp   1
 Largest concise Abelian subgroup C1      NOp   1
                         Standard orientation:                         
 ---------------------------------------------------------------------
 Center     Atomic      Atomic             Coordinates (Angstroms)
 Number     Number       Type             X           Y           Z
 ---------------------------------------------------------------------
      1          6           0        0.000001    0.591896    0.000000
      2          6           0       -1.263899   -0.260709    0.000000
      3          6           0        1.263897   -0.260709    0.000000
      4          1           0       -0.000001    1.246033   -0.874196
      5          1           0       -0.000001    1.246032    0.874197
      6          1           0       -1.294745   -0.904668    0.880341
      7          1           0       -2.165000    0.351875   -0.000002
      8          1           0       -1.294744   -0.904670   -0.880340
      9          1           0        2.165003    0.351871   -0.000001
     10          1           0        1.294745   -0.904670   -0.880339
     11          1           0        1.294745   -0.904669    0.880340
 ---------------------------------------------------------------------
 Rotational constants (GHZ):     29.4263224      8.5355211      7.5368952
 Standard basis: 6-311+G(2df,2p) (5D, 7F)
 There are   174 symmetry adapted basis functions of A   symmetry.
 Integral buffers will be    131072 words long.
 Raffenetti 2 integral format.
 Two-electron integral symmetry is turned on.
   174 basis functions,   244 primitive gaussians,   189 cartesian basis functions
    13 alpha electrons       13 beta electrons
       nuclear repulsion energy        82.7924353603 Hartrees.
 NAtoms=   11 NActive=   11 NUniq=   11 SFac= 1.00D+00 NAtFMM=   50 NAOKFM=F Big=F
 One-electron integrals computed using PRISM.
 NBasis=   174 RedAO= T  NBF=   174
 NBsUse=   174 1.00D-06 NBFU=   174
 Initial guess read from the read-write file.
 B after Tr=     0.000000    0.000000    0.000000
         Rot=    1.000000    0.000000    0.000000    0.000000 Ang=   0.00 deg.
 Initial guess orbital symmetries:
       Occupied  (A) (A) (A) (A) (A) (A) (A) (A) (A) (A) (A) (A)
                 (A)
       Virtual   (A) (A) (A) (A) (A) (A) (A) (A) (A) (A) (A) (A)
                 (A) (A) (A) (A) (A) (A) (A) (A) (A) (A) (A) (A)
                 (A) (A) (A) (A) (A) (A) (A) (A) (A) (A) (A) (A)
                 (A) (A) (A) (A) (A) (A) (A) (A) (A) (A) (A) (A)
                 (A) (A) (A) (A) (A) (A) (A) (A) (A) (A) (A) (A)
                 (A) (A) (A) (A) (A) (A) (A) (A) (A) (A) (A) (A)
                 (A) (A) (A) (A) (A) (A) (A) (A) (A) (A) (A) (A)
                 (A) (A) (A) (A) (A) (A) (A) (A) (A) (A) (A) (A)
                 (A) (A) (A) (A) (A) (A) (A) (A) (A) (A) (A) (A)
                 (A) (A) (A) (A) (A) (A) (A) (A) (A) (A) (A) (A)
                 (A) (A) (A) (A) (A) (A) (A) (A) (A) (A) (A) (A)
                 (A) (A) (A) (A) (A) (A) (A) (A) (A) (A) (A) (A)
                 (A) (A) (A) (A) (A) (A) (A) (A) (A) (A) (A) (A)
                 (A) (A) (A) (A) (A)
 Requested convergence on RMS density matrix=1.00D-08 within 128 cycles.
 Requested convergence on MAX density matrix=1.00D-06.
 Requested convergence on             energy=1.00D-06.
 No special actions if energy rises.
 Keep R1 ints in memory in canonical form, NReq=164854339.
 SCF Done:  E(RM062X) =  -119.108014847     A.U. after    6 cycles
             Convg  =    0.5507D-08             -V/T =  2.0047
 Calling FoFJK, ICntrl=      2127 FMM=F ISym2X=0 I1Cent= 0 IOpClX= 0 NMat=1 NMatS=1 NMatT=0.
 ***** Axes restored to original set *****
 -------------------------------------------------------------------
 Center     Atomic                   Forces (Hartrees/Bohr)
 Number     Number              X              Y              Z
 -------------------------------------------------------------------
      1        6           0.000004905   -0.000015314   -0.000082499
      2        6          -0.000025822    0.000013441    0.000067568
      3        6           0.000018087    0.000011873    0.000068176
      4        1          -0.000000536    0.000010447    0.000014767
      5        1          -0.000001113   -0.000004440    0.000017572
      6        1           0.000007570   -0.000011362   -0.000001211
      7        1           0.000002291   -0.000006669   -0.000036076
      8        1           0.000008378    0.000009477   -0.000005082
      9        1           0.000001024   -0.000006571   -0.000035838
     10        1          -0.000006967    0.000010051   -0.000005622
     11        1          -0.000007817   -0.000010933   -0.000001756
 -------------------------------------------------------------------
 Cartesian Forces:  Max     0.000082499 RMS     0.000025625

 GradGradGradGradGradGradGradGradGradGradGradGradGradGradGradGradGradGrad
 Berny optimization.
 Using GDIIS optimizer.
 Internal  Forces:  Max     0.000041224 RMS     0.000013097
 Search for a local minimum.
 Step number   4 out of a maximum of   56
 All quantities printed in internal units (Hartrees-Bohrs-Radians)
 Swaping is turned off.
 Update second derivatives using D2CorX and points    1    2    3    4
 DE= -1.19D-06 DEPred=-1.08D-06 R= 1.10D+00
 SS=  1.41D+00  RLast= 4.67D-03 DXNew= 8.0178D-01 1.4000D-02
 Trust test= 1.10D+00 RLast= 4.67D-03 DXMaxT set to 4.77D-01
 ITU=  1  1  1  0
     Eigenvalues ---    0.00426   0.00428   0.03630   0.04615   0.05330
     Eigenvalues ---    0.05479   0.05481   0.05623   0.08269   0.12148
     Eigenvalues ---    0.14442   0.16000   0.16000   0.16000   0.16000
     Eigenvalues ---    0.16417   0.23078   0.29829   0.30536   0.32387
     Eigenvalues ---    0.32458   0.32500   0.32501   0.32503   0.32560
     Eigenvalues ---    0.33024   0.34432
 DIIS coeff's:      1.14242     -0.12762     -0.01228     -0.00252
 Cosine:  1.000 >  0.710
 Length:  0.990
 GDIIS step was calculated using  4 of the last  4 vectors.
 Iteration  1 RMS(Cart)=  0.00014862 RMS(Int)=  0.00000040
 Iteration  2 RMS(Cart)=  0.00000003 RMS(Int)=  0.00000040
 Variable       Old X    -DE/DX   Delta X   Delta X   Delta X     New X
                                  (DIIS)     (GDIIS)  (Total)
    R1        2.88106  -0.00002  -0.00008  -0.00004  -0.00012   2.88094
    R2        2.88105  -0.00002  -0.00008  -0.00003  -0.00011   2.88094
    R3        2.06328   0.00000  -0.00003   0.00005   0.00002   2.06330
    R4        2.06328   0.00000  -0.00003   0.00005   0.00002   2.06330
    R5        2.06200  -0.00001  -0.00001   0.00001  -0.00001   2.06199
    R6        2.05906  -0.00002  -0.00004  -0.00004  -0.00007   2.05899
    R7        2.06200  -0.00001  -0.00001   0.00001  -0.00001   2.06199
    R8        2.05906  -0.00002  -0.00004  -0.00004  -0.00007   2.05899
    R9        2.06200  -0.00001  -0.00001   0.00001  -0.00001   2.06199
   R10        2.06200  -0.00001  -0.00001   0.00001  -0.00001   2.06199
    A1        1.95467   0.00000  -0.00003   0.00003   0.00000   1.95466
    A2        1.91245   0.00000   0.00007  -0.00001   0.00006   1.91251
    A3        1.91245   0.00000   0.00007  -0.00001   0.00006   1.91251
    A4        1.91245   0.00000   0.00007  -0.00001   0.00006   1.91251
    A5        1.91245   0.00000   0.00007  -0.00001   0.00006   1.91251
    A6        1.85680  -0.00001  -0.00025   0.00001  -0.00024   1.85656
    A7        1.93208   0.00001   0.00000   0.00003   0.00003   1.93210
    A8        1.95108   0.00004   0.00031   0.00003   0.00034   1.95142
    A9        1.93208   0.00001   0.00000   0.00003   0.00003   1.93210
   A10        1.88432  -0.00002  -0.00004  -0.00007  -0.00011   1.88421
   A11        1.87740  -0.00001  -0.00025   0.00005  -0.00021   1.87720
   A12        1.88432  -0.00002  -0.00004  -0.00007  -0.00011   1.88421
   A13        1.95108   0.00004   0.00031   0.00003   0.00034   1.95142
   A14        1.93208   0.00001   0.00000   0.00003   0.00003   1.93211
   A15        1.93208   0.00001   0.00000   0.00003   0.00003   1.93211
   A16        1.88432  -0.00002  -0.00004  -0.00007  -0.00010   1.88421
   A17        1.88432  -0.00002  -0.00004  -0.00007  -0.00010   1.88421
   A18        1.87740  -0.00001  -0.00025   0.00005  -0.00021   1.87720
    D1        1.04013   0.00000  -0.00016   0.00005  -0.00011   1.04002
    D2       -3.14159   0.00000   0.00000   0.00000   0.00000  -3.14159
    D3       -1.04013   0.00000   0.00016  -0.00005   0.00011  -1.04002
    D4       -3.11703   0.00000  -0.00005   0.00005   0.00000  -3.11703
    D5       -1.01556   0.00000   0.00011   0.00000   0.00011  -1.01545
    D6        1.08590   0.00001   0.00027  -0.00005   0.00022   1.08612
    D7       -1.08590  -0.00001  -0.00027   0.00005  -0.00022  -1.08612
    D8        1.01557   0.00000  -0.00011   0.00000  -0.00011   1.01545
    D9        3.11703   0.00000   0.00005  -0.00005   0.00000   3.11703
   D10        3.14159   0.00000   0.00000   0.00000   0.00000   3.14159
   D11        1.04013   0.00000  -0.00016   0.00005  -0.00011   1.04002
   D12       -1.04013   0.00000   0.00016  -0.00005   0.00011  -1.04002
   D13        1.01557   0.00000  -0.00011   0.00000  -0.00011   1.01545
   D14       -1.08590  -0.00001  -0.00027   0.00005  -0.00022  -1.08612
   D15        3.11703   0.00000   0.00005  -0.00005   0.00000   3.11703
   D16       -1.01557   0.00000   0.00011   0.00000   0.00011  -1.01545
   D17       -3.11703   0.00000  -0.00005   0.00005   0.00000  -3.11703
   D18        1.08590   0.00001   0.00027  -0.00004   0.00023   1.08612
         Item               Value     Threshold  Converged?
 Maximum Force            0.000041     0.000002     NO 
 RMS     Force            0.000013     0.000001     NO 
 Maximum Displacement     0.000469     0.000006     NO 
 RMS     Displacement     0.000149     0.000004     NO 
 Predicted change in Energy=-3.286368D-08
 GradGradGradGradGradGradGradGradGradGradGradGradGradGradGradGradGradGrad

                          Input orientation:                          
 ---------------------------------------------------------------------
 Center     Atomic      Atomic             Coordinates (Angstroms)
 Number     Number       Type             X           Y           Z
 ---------------------------------------------------------------------
      1          6           0       -0.024425    0.112929    0.226788
      2          6           0        1.270919   -0.079226   -0.553822
      3          6           0       -1.253048   -0.003567   -0.668256
      4          1           0       -0.082899   -0.627933    1.026689
      5          1           0       -0.017149    1.090644    0.712751
      6          1           0        1.359996    0.668601   -1.343410
      7          1           0        2.146914    0.004622    0.088644
      8          1           0        1.293783   -1.062057   -1.027265
      9          1           0       -2.176957    0.134235   -0.107396
     10          1           0       -1.291723   -0.984553   -1.144488
     11          1           0       -1.225511    0.746105   -1.460634
 ---------------------------------------------------------------------
                    Distance matrix (angstroms):
                    1          2          3          4          5
     1  C    0.000000
     2  C    1.524530   0.000000
     3  C    1.524529   2.527693   0.000000
     4  H    1.091851   2.152190   2.152190   0.000000
     5  H    1.091851   2.152190   2.152190   1.748253   0.000000
     6  H    2.165851   1.091159   2.781302   3.062730   2.510467
     7  H    2.178423   1.089569   3.483203   2.500424   2.500424
     8  H    2.165851   1.091159   2.781302   2.510467   3.062730
     9  H    2.178423   3.483204   1.089569   2.500425   2.500425
    10  H    2.165851   2.781302   1.091159   2.510467   3.062731
    11  H    2.165851   2.781302   1.091159   3.062731   2.510467
                    6          7          8          9         10
     6  H    0.000000
     7  H    1.763771   0.000000
     8  H    1.760543   1.763771   0.000000
     9  H    3.784615   4.330252   3.784615   0.000000
    10  H    3.131150   3.784614   2.589323   1.763770   0.000000
    11  H    2.589323   3.784615   3.131150   1.763770   1.760542
                   11
    11  H    0.000000
 Stoichiometry    C3H8
 Framework group  C1[X(C3H8)]
 Deg. of freedom    27
 Full point group                 C1      NOp   1
 Largest Abelian subgroup         C1      NOp   1
 Largest concise Abelian subgroup C1      NOp   1
                         Standard orientation:                         
 ---------------------------------------------------------------------
 Center     Atomic      Atomic             Coordinates (Angstroms)
 Number     Number       Type             X           Y           Z
 ---------------------------------------------------------------------
      1          6           0        0.000000    0.591905    0.000000
      2          6           0       -1.263846   -0.260669    0.000000
      3          6           0        1.263846   -0.260669    0.000000
      4          1           0        0.000000    1.246154   -0.874127
      5          1           0        0.000000    1.246154    0.874126
      6          1           0       -1.294661   -0.904720    0.880271
      7          1           0       -2.165126    0.351585    0.000000
      8          1           0       -1.294661   -0.904720   -0.880271
      9          1           0        2.165126    0.351584    0.000000
     10          1           0        1.294661   -0.904720   -0.880271
     11          1           0        1.294661   -0.904720    0.880271
 ---------------------------------------------------------------------
 Rotational constants (GHZ):     29.4272506      8.5360496      7.5372028
 Standard basis: 6-311+G(2df,2p) (5D, 7F)
 There are   174 symmetry adapted basis functions of A   symmetry.
 Integral buffers will be    131072 words long.
 Raffenetti 2 integral format.
 Two-electron integral symmetry is turned on.
   174 basis functions,   244 primitive gaussians,   189 cartesian basis functions
    13 alpha electrons       13 beta electrons
       nuclear repulsion energy        82.7940787195 Hartrees.
 NAtoms=   11 NActive=   11 NUniq=   11 SFac= 1.00D+00 NAtFMM=   50 NAOKFM=F Big=F
 One-electron integrals computed using PRISM.
 NBasis=   174 RedAO= T  NBF=   174
 NBsUse=   174 1.00D-06 NBFU=   174
 Initial guess read from the read-write file.
 B after Tr=     0.000000    0.000000    0.000000
         Rot=    1.000000    0.000000    0.000000    0.000000 Ang=   0.00 deg.
 Initial guess orbital symmetries:
       Occupied  (A) (A) (A) (A) (A) (A) (A) (A) (A) (A) (A) (A)
                 (A)
       Virtual   (A) (A) (A) (A) (A) (A) (A) (A) (A) (A) (A) (A)
                 (A) (A) (A) (A) (A) (A) (A) (A) (A) (A) (A) (A)
                 (A) (A) (A) (A) (A) (A) (A) (A) (A) (A) (A) (A)
                 (A) (A) (A) (A) (A) (A) (A) (A) (A) (A) (A) (A)
                 (A) (A) (A) (A) (A) (A) (A) (A) (A) (A) (A) (A)
                 (A) (A) (A) (A) (A) (A) (A) (A) (A) (A) (A) (A)
                 (A) (A) (A) (A) (A) (A) (A) (A) (A) (A) (A) (A)
                 (A) (A) (A) (A) (A) (A) (A) (A) (A) (A) (A) (A)
                 (A) (A) (A) (A) (A) (A) (A) (A) (A) (A) (A) (A)
                 (A) (A) (A) (A) (A) (A) (A) (A) (A) (A) (A) (A)
                 (A) (A) (A) (A) (A) (A) (A) (A) (A) (A) (A) (A)
                 (A) (A) (A) (A) (A) (A) (A) (A) (A) (A) (A) (A)
                 (A) (A) (A) (A) (A) (A) (A) (A) (A) (A) (A) (A)
                 (A) (A) (A) (A) (A)
 Requested convergence on RMS density matrix=1.00D-08 within 128 cycles.
 Requested convergence on MAX density matrix=1.00D-06.
 Requested convergence on             energy=1.00D-06.
 No special actions if energy rises.
 Keep R1 ints in memory in canonical form, NReq=164854339.
 SCF Done:  E(RM062X) =  -119.108014880     A.U. after    5 cycles
             Convg  =    0.3491D-08             -V/T =  2.0047
 Calling FoFJK, ICntrl=      2127 FMM=F ISym2X=0 I1Cent= 0 IOpClX= 0 NMat=1 NMatS=1 NMatT=0.
 ***** Axes restored to original set *****
 -------------------------------------------------------------------
 Center     Atomic                   Forces (Hartrees/Bohr)
 Number     Number              X              Y              Z
 -------------------------------------------------------------------
      1        6           0.000000499   -0.000001050   -0.000005487
      2        6          -0.000008991    0.000000522    0.000001010
      3        6           0.000008494   -0.000000039    0.000001543
      4        1          -0.000000083   -0.000000234    0.000000746
      5        1          -0.000000053    0.000000497    0.000000610
      6        1           0.000001612    0.000001297   -0.000000356
      7        1           0.000003935    0.000000078    0.000001229
      8        1           0.000001497   -0.000001439    0.000000158
      9        1          -0.000003948    0.000000321    0.000000936
     10        1          -0.000001533   -0.000001338    0.000000058
     11        1          -0.000001429    0.000001384   -0.000000446
 -------------------------------------------------------------------
 Cartesian Forces:  Max     0.000008991 RMS     0.000002697

 GradGradGradGradGradGradGradGradGradGradGradGradGradGradGradGradGradGrad
 Berny optimization.
 Using GDIIS optimizer.
 Internal  Forces:  Max     0.000003894 RMS     0.000001296
 Search for a local minimum.
 Step number   5 out of a maximum of   56
 All quantities printed in internal units (Hartrees-Bohrs-Radians)
 Swaping is turned off.
 Update second derivatives using D2CorX and points    1    2    3    4    5
 DE= -3.31D-08 DEPred=-3.29D-08 R= 1.01D+00
 Trust test= 1.01D+00 RLast= 8.78D-04 DXMaxT set to 4.77D-01
 ITU=  0  1  1  1  0
     Eigenvalues ---    0.00426   0.00428   0.03630   0.04636   0.05477
     Eigenvalues ---    0.05478   0.05515   0.05623   0.08269   0.12149
     Eigenvalues ---    0.13762   0.16000   0.16000   0.16000   0.16000
     Eigenvalues ---    0.16499   0.22912   0.29828   0.30494   0.32440
     Eigenvalues ---    0.32462   0.32500   0.32501   0.32503   0.32560
     Eigenvalues ---    0.33052   0.34478
 DIIS coeff's:      1.10044     -0.11011      0.00805      0.00130      0.00032
 Cosine:  1.000 >  0.670
 Length:  1.079
 GDIIS step was calculated using  5 of the last  5 vectors.
 Iteration  1 RMS(Cart)=  0.00001103 RMS(Int)=  0.00000005
 Iteration  2 RMS(Cart)=  0.00000000 RMS(Int)=  0.00000005
 Variable       Old X    -DE/DX   Delta X   Delta X   Delta X     New X
                                  (DIIS)     (GDIIS)  (Total)
    R1        2.88094   0.00000   0.00000  -0.00001  -0.00001   2.88093
    R2        2.88094   0.00000   0.00000  -0.00001  -0.00001   2.88093
    R3        2.06330   0.00000   0.00001  -0.00001   0.00000   2.06330
    R4        2.06330   0.00000   0.00001  -0.00001   0.00000   2.06330
    R5        2.06199   0.00000   0.00001   0.00000   0.00000   2.06200
    R6        2.05899   0.00000   0.00000   0.00001   0.00001   2.05900
    R7        2.06199   0.00000   0.00001   0.00000   0.00000   2.06200
    R8        2.05899   0.00000   0.00000   0.00001   0.00001   2.05900
    R9        2.06199   0.00000   0.00001   0.00000   0.00000   2.06200
   R10        2.06199   0.00000   0.00001   0.00000   0.00000   2.06200
    A1        1.95466   0.00000   0.00000   0.00001   0.00001   1.95467
    A2        1.91251   0.00000   0.00000   0.00000   0.00000   1.91251
    A3        1.91251   0.00000   0.00000   0.00000   0.00000   1.91251
    A4        1.91251   0.00000   0.00000   0.00000   0.00000   1.91251
    A5        1.91251   0.00000   0.00000   0.00000   0.00000   1.91251
    A6        1.85656   0.00000   0.00000  -0.00001  -0.00001   1.85655
    A7        1.93210   0.00000   0.00000   0.00001   0.00001   1.93211
    A8        1.95142   0.00000   0.00001   0.00000   0.00001   1.95142
    A9        1.93210   0.00000   0.00000   0.00001   0.00001   1.93211
   A10        1.88421   0.00000  -0.00001  -0.00001  -0.00002   1.88420
   A11        1.87720   0.00000   0.00000   0.00000   0.00000   1.87720
   A12        1.88421   0.00000  -0.00001  -0.00001  -0.00002   1.88420
   A13        1.95142   0.00000   0.00001   0.00000   0.00001   1.95142
   A14        1.93211   0.00000   0.00000   0.00001   0.00001   1.93211
   A15        1.93211   0.00000   0.00000   0.00001   0.00001   1.93211
   A16        1.88421   0.00000  -0.00001  -0.00001  -0.00001   1.88420
   A17        1.88421   0.00000  -0.00001  -0.00001  -0.00001   1.88420
   A18        1.87720   0.00000   0.00000   0.00000   0.00000   1.87720
    D1        1.04002   0.00000   0.00000   0.00001   0.00001   1.04002
    D2       -3.14159   0.00000   0.00000   0.00000   0.00000   3.14159
    D3       -1.04002   0.00000   0.00000  -0.00001  -0.00001  -1.04002
    D4       -3.11703   0.00000   0.00000   0.00001   0.00001  -3.11702
    D5       -1.01545   0.00000   0.00000   0.00000   0.00001  -1.01545
    D6        1.08612   0.00000   0.00000   0.00000   0.00000   1.08612
[...]
 Vib (V=0)    2  0.130088D+01          0.114236          0.263037
 Vib (V=0)    3  0.119666D+01          0.077969          0.179531
 Electronic      0.100000D+01          0.000000          0.000000
 Translational   0.114964D+08          7.060560         16.257541
 Rotational      0.199461D+05          4.299859          9.900791
 ***** Axes restored to original set *****
 -------------------------------------------------------------------
 Center     Atomic                   Forces (Hartrees/Bohr)
 Number     Number              X              Y              Z
 -------------------------------------------------------------------
      1        6           0.000000007   -0.000000019   -0.000000065
      2        6           0.000000014    0.000000014    0.000000070
      3        6          -0.000000029    0.000000017    0.000000061
      4        1          -0.000000001    0.000000007   -0.000000006
      5        1          -0.000000001   -0.000000006   -0.000000004
      6        1          -0.000000003   -0.000000016   -0.000000022
      7        1          -0.000000030    0.000000002    0.000000012
      8        1          -0.000000002    0.000000010   -0.000000023
      9        1           0.000000032    0.000000001    0.000000017
     10        1           0.000000007    0.000000008   -0.000000022
     11        1           0.000000006   -0.000000018   -0.000000018
 -------------------------------------------------------------------
 Cartesian Forces:  Max     0.000000070 RMS     0.000000025

 GradGradGradGradGradGradGradGradGradGradGradGradGradGradGradGradGradGrad
 Berny optimization.
 Internal  Forces:  Max     0.000000075 RMS     0.000000020
 Search for a local minimum.
 Step number   1 out of a maximum of    2
 All quantities printed in internal units (Hartrees-Bohrs-Radians)
 Swaping is turned off.
 Second derivative matrix not updated -- analytic derivatives used.
 ITU=  0
     Eigenvalues ---    0.00275   0.00320   0.03564   0.03937   0.04468
     Eigenvalues ---    0.04569   0.04643   0.04647   0.07044   0.10320
     Eigenvalues ---    0.11995   0.12369   0.13088   0.14234   0.15146
     Eigenvalues ---    0.16349   0.21763   0.29999   0.31026   0.33275
     Eigenvalues ---    0.33777   0.33908   0.33983   0.34197   0.34335
     Eigenvalues ---    0.34892   0.35061
 Angle between quadratic step and forces=  90.00 degrees.
 Linear search not attempted -- option 19 set.
 Iteration  1 RMS(Cart)=  0.00000037 RMS(Int)=  0.00000000
 Variable       Old X    -DE/DX   Delta X   Delta X   Delta X     New X
                                 (Linear)    (Quad)   (Total)
    R1        2.88093   0.00000   0.00000   0.00000   0.00000   2.88093
    R2        2.88093   0.00000   0.00000   0.00000   0.00000   2.88093
    R3        2.06330   0.00000   0.00000   0.00000   0.00000   2.06330
    R4        2.06330   0.00000   0.00000   0.00000   0.00000   2.06330
    R5        2.06200   0.00000   0.00000   0.00000   0.00000   2.06200
    R6        2.05900   0.00000   0.00000   0.00000   0.00000   2.05900
    R7        2.06200   0.00000   0.00000   0.00000   0.00000   2.06200
    R8        2.05900   0.00000   0.00000   0.00000   0.00000   2.05900
    R9        2.06200   0.00000   0.00000   0.00000   0.00000   2.06200
   R10        2.06200   0.00000   0.00000   0.00000   0.00000   2.06200
    A1        1.95468   0.00000   0.00000   0.00000   0.00000   1.95468
    A2        1.91251   0.00000   0.00000   0.00000   0.00000   1.91251
    A3        1.91251   0.00000   0.00000   0.00000   0.00000   1.91251
    A4        1.91251   0.00000   0.00000   0.00000   0.00000   1.91251
    A5        1.91251   0.00000   0.00000   0.00000   0.00000   1.91251
    A6        1.85655   0.00000   0.00000   0.00000   0.00000   1.85655
    A7        1.93212   0.00000   0.00000   0.00000   0.00000   1.93212
    A8        1.95142   0.00000   0.00000   0.00000   0.00000   1.95142
    A9        1.93212   0.00000   0.00000   0.00000   0.00000   1.93212
   A10        1.88420   0.00000   0.00000   0.00000   0.00000   1.88420
   A11        1.87720   0.00000   0.00000   0.00000   0.00000   1.87720
   A12        1.88420   0.00000   0.00000   0.00000   0.00000   1.88420
   A13        1.95142   0.00000   0.00000   0.00000   0.00000   1.95142
   A14        1.93212   0.00000   0.00000   0.00000   0.00000   1.93212
   A15        1.93212   0.00000   0.00000   0.00000   0.00000   1.93212
   A16        1.88420   0.00000   0.00000   0.00000   0.00000   1.88420
   A17        1.88420   0.00000   0.00000   0.00000   0.00000   1.88420
   A18        1.87720   0.00000   0.00000   0.00000   0.00000   1.87720
    D1        1.04003   0.00000   0.00000   0.00000   0.00000   1.04003
    D2        3.14159   0.00000   0.00000   0.00000   0.00000   3.14159
    D3       -1.04003   0.00000   0.00000   0.00000   0.00000  -1.04003
    D4       -3.11701   0.00000   0.00000   0.00000   0.00000  -3.11701
    D5       -1.01545   0.00000   0.00000   0.00000   0.00000  -1.01545
    D6        1.08612   0.00000   0.00000   0.00000   0.00000   1.08612
    D7       -1.08612   0.00000   0.00000   0.00000   0.00000  -1.08612
    D8        1.01545   0.00000   0.00000   0.00000   0.00000   1.01545
    D9        3.11701   0.00000   0.00000   0.00000   0.00000   3.11701
   D10        3.14159   0.00000   0.00000   0.00000   0.00000   3.14159
   D11        1.04003   0.00000   0.00000   0.00000   0.00000   1.04003
   D12       -1.04003   0.00000   0.00000   0.00000   0.00000  -1.04003
   D13        1.01545   0.00000   0.00000   0.00000   0.00000   1.01545
   D14       -1.08612   0.00000   0.00000   0.00000   0.00000  -1.08612
   D15        3.11701   0.00000   0.00000   0.00000   0.00000   3.11701
   D16       -1.01545   0.00000   0.00000   0.00000   0.00000  -1.01545
   D17       -3.11701   0.00000   0.00000   0.00000   0.00000  -3.11701
   D18        1.08612   0.00000   0.00000   0.00000   0.00000   1.08612
         Item               Value     Threshold  Converged?
 Maximum Force            0.000000     0.000002     YES
 RMS     Force            0.000000     0.000001     YES
 Maximum Displacement     0.000001     0.000006     YES
 RMS     Displacement     0.000000     0.000004     YES
 Predicted change in Energy=-6.921623D-14
 Optimization completed.
    -- Stationary point found.
                           ----------------------------
                           !   Optimized Parameters   !
                           ! (Angstroms and Degrees)  !
 --------------------------                            --------------------------
 ! Name  Definition              Value          Derivative Info.                !
 --------------------------------------------------------------------------------
 ! R1    R(1,2)                  1.5245         -DE/DX =    0.0                 !
 ! R2    R(1,3)                  1.5245         -DE/DX =    0.0                 !
 ! R3    R(1,4)                  1.0919         -DE/DX =    0.0                 !
 ! R4    R(1,5)                  1.0919         -DE/DX =    0.0                 !
 ! R5    R(2,6)                  1.0912         -DE/DX =    0.0                 !
 ! R6    R(2,7)                  1.0896         -DE/DX =    0.0                 !
 ! R7    R(2,8)                  1.0912         -DE/DX =    0.0                 !
 ! R8    R(3,9)                  1.0896         -DE/DX =    0.0                 !
 ! R9    R(3,10)                 1.0912         -DE/DX =    0.0                 !
 ! R10   R(3,11)                 1.0912         -DE/DX =    0.0                 !
 ! A1    A(2,1,3)              111.9947         -DE/DX =    0.0                 !
 ! A2    A(2,1,4)              109.5786         -DE/DX =    0.0                 !
 ! A3    A(2,1,5)              109.5786         -DE/DX =    0.0                 !
 ! A4    A(3,1,4)              109.5786         -DE/DX =    0.0                 !
 ! A5    A(3,1,5)              109.5786         -DE/DX =    0.0                 !
 ! A6    A(4,1,5)              106.3727         -DE/DX =    0.0                 !
 ! A7    A(1,2,6)              110.7022         -DE/DX =    0.0                 !
 ! A8    A(1,2,7)              111.8082         -DE/DX =    0.0                 !
 ! A9    A(1,2,8)              110.7022         -DE/DX =    0.0                 !
 ! A10   A(6,2,7)              107.9564         -DE/DX =    0.0                 !
 ! A11   A(6,2,8)              107.5558         -DE/DX =    0.0                 !
 ! A12   A(7,2,8)              107.9564         -DE/DX =    0.0                 !
 ! A13   A(1,3,9)              111.8082         -DE/DX =    0.0                 !
 ! A14   A(1,3,10)             110.7022         -DE/DX =    0.0                 !
 ! A15   A(1,3,11)             110.7022         -DE/DX =    0.0                 !
 ! A16   A(9,3,10)             107.9564         -DE/DX =    0.0                 !
 ! A17   A(9,3,11)             107.9564         -DE/DX =    0.0                 !
 ! A18   A(10,3,11)            107.5558         -DE/DX =    0.0                 !
 ! D1    D(3,1,2,6)             59.5892         -DE/DX =    0.0                 !
 ! D2    D(3,1,2,7)            180.0            -DE/DX =    0.0                 !
 ! D3    D(3,1,2,8)            -59.5892         -DE/DX =    0.0                 !
 ! D4    D(4,1,2,6)           -178.5917         -DE/DX =    0.0                 !
 ! D5    D(4,1,2,7)            -58.1809         -DE/DX =    0.0                 !
 ! D6    D(4,1,2,8)             62.2299         -DE/DX =    0.0                 !
 ! D7    D(5,1,2,6)            -62.2299         -DE/DX =    0.0                 !
 ! D8    D(5,1,2,7)             58.1809         -DE/DX =    0.0                 !
 ! D9    D(5,1,2,8)            178.5917         -DE/DX =    0.0                 !
 ! D10   D(2,1,3,9)            180.0            -DE/DX =    0.0                 !
 ! D11   D(2,1,3,10)            59.5892         -DE/DX =    0.0                 !
 ! D12   D(2,1,3,11)           -59.5892         -DE/DX =    0.0                 !
 ! D13   D(4,1,3,9)             58.1809         -DE/DX =    0.0                 !
 ! D14   D(4,1,3,10)           -62.2299         -DE/DX =    0.0                 !
 ! D15   D(4,1,3,11)           178.5917         -DE/DX =    0.0                 !
 ! D16   D(5,1,3,9)            -58.1809         -DE/DX =    0.0                 !
 ! D17   D(5,1,3,10)          -178.5917         -DE/DX =    0.0                 !
 ! D18   D(5,1,3,11)            62.2299         -DE/DX =    0.0                 !
 --------------------------------------------------------------------------------
 GradGradGradGradGradGradGradGradGradGradGradGradGradGradGradGradGradGrad


 Test job not archived.
 1\1\GINC-COMPUTE-3-044\Freq\RM062X\6-311+G(2df,2p)\C3H8\ROOT\20-Jan-20
 17\0\\#N Geom=AllCheck Guess=TCheck SCRF=Check Test GenChk RM062X/6-31
 1+G(2df,2p) Freq\\InChI=1S/C3H8/c1-3-2/h3H2,1-2H3\\0,1\C,-0.024424057,
 0.112926758,0.2267748244\C,1.270919574,-0.079225423,-0.5538217224\C,-1
 .2530487401,-0.0035664352,-0.6682554791\H,-0.0828990128,-0.6279332666,
 1.0266808358\H,-0.0171491009,1.0906408194,0.7127427282\H,1.3600192722,
 0.6686046158,-1.3434065771\H,2.1469174078,0.0046231903,0.0886514578\H,
 1.2938067605,-1.0620608259,-1.0272597033\H,-2.1769603717,0.134236624,-
 0.1073881144\H,-1.2917471145,-0.9845557302,-1.1444856897\H,-1.22553460
 94,0.7461096993,-1.4606325646\\Version=EM64L-G09RevB.01\State=1-A\HF=-
 119.1080149\RMSD=4.899e-10\RMSF=2.465e-08\ZeroPoint=0.104292\Thermal=0
 .1087266\Dipole=-0.0013228,0.0061193,0.0332212\DipoleDeriv=0.1351752,-
 0.0004971,0.0021336,-0.0004971,0.111094,-0.0050305,0.0021336,-0.005030
 5,0.0849026,-0.0136572,0.0076648,0.02077,0.005595,0.0859487,-0.0074048
 ,0.0094391,-0.0069713,0.0513295,-0.0107652,-0.0011376,-0.0268111,0.000
 9322,0.0863497,-0.006186,-0.0154802,-0.0066195,0.0480365,-0.0077526,-0
 .0047969,0.0069825,-0.0060656,-0.0328287,0.1169005,0.0061437,0.0889186
 ,-0.084009,-0.0071315,0.0006154,-0.0031392,0.0018841,-0.107935,-0.1080
 967,-0.0023004,-0.0801147,-0.0095237,0.0375161,0.0193621,0.0027721,-0.
 0161899,-0.0373137,0.1071255,0.0477737,0.0867262,-0.0522627,-0.1197975
 ,-0.0044133,-0.0643331,-0.0106923,0.0701152,-0.0126704,-0.0987059,-0.0
 113554,-0.0108139,0.0373439,-0.0266455,0.0032497,0.022777,-0.1037004,-
 0.0879376,0.0341785,-0.0704432,0.0142962,-0.1318543,0.0173759,0.052421
 2,0.0236549,0.0684433,-0.0146294,0.086794,-0.0159444,0.0029148,0.04110
 14,0.0242619,-0.0061546,-0.0232925,-0.1038488,-0.0897393,-0.0358483,-0
 .0660309,0.0106871,0.0398217,-0.0317896,0.012109,0.0018943,-0.0363245,
 0.1076687,-0.0341278,0.0868653,-0.0555574\Polar=42.608006,-0.2176446,3
 5.8864279,0.2312476,0.3451208,37.752764\PG=C01 [X(C3H8)]\NImag=0\\0.46
 264900,0.00455846,0.59978073,-0.00417230,-0.00966068,0.54796111,-0.164
 41091,0.01286195,0.05281720,0.51558860,0.01367413,-0.08243999,-0.00823
 487,0.01099155,0.56991456,0.05726325,-0.00840496,-0.11443040,0.0484815
 9,-0.00582788,0.54965021,-0.15530262,-0.00753013,-0.05690645,-0.032338
 98,-0.00200742,-0.01783525,0.52353268,-0.00834231,-0.08117693,-0.00593
 159,0.00379926,0.00071107,0.00277477,-0.00750235,0.57101616,-0.0613524
 9,-0.00576149,-0.12480176,0.01395196,0.00155864,0.01180395,-0.05109475
 ,-0.00367065,0.54060452,-0.04784659,-0.00964368,0.01015663,-0.00351955
 ,-0.02100414,0.02248213,-0.00015724,0.02017765,-0.02161595,0.05745416,
 -0.00968414,-0.17417804,0.12957407,0.00024588,0.00389260,-0.00442957,0
 .00039976,0.00265049,-0.00309614,0.01025632,0.18431295,0.01012988,0.12
 868166,-0.18544407,0.00217630,0.01149837,-0.01278641,-0.00033681,0.013
 44541,-0.01490662,-0.01084948,-0.14181263,0.20219183,-0.04712200,-0.00
 189043,-0.00069896,-0.00162511,0.02788646,0.01362898,-0.00196781,-0.02
 633867,-0.01304296,-0.00063924,-0.00157571,-0.00081605,0.05665270,-0.0
 0184997,-0.26179290,-0.10114517,0.00062282,-0.00262975,-0.00120277,-0.
 00054715,-0.00096891,-0.00045676,-0.00017479,-0.02069495,-0.00941152,0
 .00163590,0.28122147,-0.00067221,-0.10025276,-0.09855381,0.00101475,-0
 .01587125,-0.00815851,-0.00140204,-0.01825777,-0.00947665,0.00011018,0
 .02148722,0.01114736,0.00112802,0.11239286,0.10608477,-0.00360252,-0.0
 2110325,0.02144544,-0.04862317,-0.01277446,0.01154429,0.00193313,-0.00
 092089,0.00084190,-0.00493181,0.00098398,0.00303374,0.00124684,0.00022
 825,-0.00077237,0.05265830,0.00052670,0.00388472,-0.00400822,-0.013146
 56,-0.17505791,0.13189525,-0.00015527,0.00011616,-0.00031496,0.0012613
 4,0.00130194,-0.00087991,-0.00068156,0.00066676,-0.00002359,0.01356995
 ,0.18662123,0.00193297,0.01245982,-0.01422943,0.01216276,0.13178225,-0
 .18418316,-0.00105703,-0.00046605,0.00090674,0.00326600,-0.00125983,-0
 .00070915,-0.00056107,-0.00021457,0.00011432,-0.01715840,-0.14508494,0
 .19981169,-0.02005648,-0.00259488,-0.01811161,-0.21806804,-0.01700100,
 -0.12850356,-0.00413443,0.00111106,0.00513328,0.00085096,-0.00065333,0
 .00002691,0.00090657,0.00055897,-0.00016833,0.00247300,0.00086258,0.00
 199963,0.23821549,0.00357000,-0.00095114,0.00322484,-0.01723441,-0.050
 52712,-0.01267517,0.00067342,0.00026273,-0.00059158,-0.00031645,0.0000
 0053,-0.00021021,-0.00007414,0.00002822,0.00047008,0.01929805,0.002154
 03,0.01313447,0.01819204,0.04931322,0.01563646,0.00193369,0.01245667,-
 0.12978128,-0.01262629,-0.14517132,0.00273751,-0.00049992,-0.00176678,
 -0.00085508,0.00027561,0.00072129,-0.00090793,0.00004629,0.00063799,-0
 .01786242,-0.00326654,-0.01371590,0.13955046,0.01426189,0.15470390,-0.
 00173993,0.02759104,0.01258297,-0.04737199,0.00139183,-0.00062016,0.00
 200024,0.00103696,0.00051516,0.00125916,-0.00052945,-0.00063814,-0.004
 97553,0.00064541,0.00312128,-0.00115656,-0.00165788,-0.00111739,0.0007
 5831,-0.02441310,-0.00977740,0.05124407,0.00024476,-0.00322630,-0.0018
 5490,0.00195981,-0.26473463,-0.10203798,-0.00034766,0.00041321,0.00043
 873,0.00039887,0.00068304,-0.00013583,0.00047306,0.00171215,-0.0002831
 3,-0.00008242,-0.01967581,-0.01002267,-0.00037583,-0.00126720,-0.00002
 408,-0.00301446,0.28584797,0.00080288,-0.01712574,-0.00898100,-0.00016
 634,-0.10196601,-0.09575762,-0.00097446,0.00071947,0.00054258,-0.00074
 815,0.00005128,0.00008571,0.00346393,0.00007479,-0.00107565,-0.0001877
 3,0.02179922,0.01131247,0.00102615,-0.01759830,-0.00857998,-0.00353940
 ,0.11357685,0.10199917,-0.02003073,0.00351006,0.01531373,-0.00349209,-
 0.00082194,-0.00531394,-0.23791651,0.02897312,0.11901306,0.00082970,0.
 00057612,-0.00003120,0.00077290,-0.00060603,0.00021013,0.00031056,-0.0
 0008719,-0.00008370,-0.00151090,0.00025755,0.00097349,0.00029145,0.000
 04929,-0.00008747,0.25962668,-0.00265482,-0.00094757,0.00194068,-0.000
 38430,0.00035181,-0.00032549,0.02920653,-0.05327954,-0.01801618,0.0002
 8215,-0.00005425,-0.00018136,-0.00001584,0.00006152,0.00046119,0.00028
 908,0.00010742,-0.00029580,-0.00013444,0.00057502,-0.00001540,-0.00033
 919,0.00030934,0.00022046,-0.03165352,0.05228235,-0.01843433,0.0032318
 3,0.01242735,-0.00291818,-0.00041715,-0.00249819,0.12029078,-0.0180650
 6,-0.12257042,0.00087916,0.00027934,0.00079733,0.00092136,-0.00006154,
 0.00073836,-0.00018564,-0.00026019,0.00008156,-0.00117231,0.00006670,0
 .00069227,-0.00005234,0.00018740,-0.00010125,-0.12883204,0.02007614,0.
 13032358,-0.00215287,-0.02595836,-0.01198114,0.00189415,-0.00118557,-0
 .00036198,-0.04771151,-0.00514372,-0.00112971,0.00113113,0.00049383,0.
 00072240,-0.00439322,-0.00027460,-0.00343309,-0.00002969,0.00001772,0.
 00009816,0.00029076,0.00031867,0.00009821,-0.00027853,0.00068172,0.000
 30458,0.00145648,0.02571490,0.01059952,0.05099163,-0.00013675,-0.00160
 929,-0.00113642,0.00021472,0.00046307,0.00049038,-0.00570163,-0.264308
 75,-0.10237053,-0.00041406,0.00067685,-0.00021364,-0.00006967,0.001755
 48,-0.00011047,-0.00001151,-0.00011438,-0.00007397,-0.00006532,0.00029
 306,0.00017769,-0.00067828,0.00005182,0.00014051,0.00021654,-0.0027882
 3,-0.00060710,0.00676356,0.28526197,-0.00120911,-0.01949386,-0.0101850
 8,0.00113800,0.00055524,0.00059881,-0.00157688,-0.10222050,-0.09584398
 ,0.00084591,0.00004972,0.00021993,-0.00375420,0.00025024,-0.00170128,-
 0.00010159,0.00011599,-0.00000492,0.00013631,0.00024358,-0.00008427,-0
 .00036990,0.00022239,0.00056026,-0.00117004,-0.01525878,-0.00775712,0.
 00570112,0.11374283,0.10283760,-0.00038437,0.02019923,-0.02044551,0.00
 196708,0.00085056,-0.00076534,-0.04793697,-0.00685012,0.00878051,-0.00
 443068,-0.00051326,-0.00341755,0.00114389,-0.00023879,0.00086369,-0.00
 027807,-0.00050983,0.00051806,0.00027476,-0.00027163,0.00018797,-0.000
 03070,0.00001286,0.00010600,-0.00033753,-0.02031055,0.01890401,-0.0011
 9834,-0.00011761,0.00036037,0.05121092,0.00009394,0.00265671,-0.002767
 74,0.00006927,0.00005630,-0.00025655,-0.00648810,-0.17543570,0.1322809
 1,-0.00082321,0.00140885,-0.00078035,0.00065059,0.00064092,-0.00001237
 ,0.00052323,-0.00000417,0.00004129,0.00010015,0.00011865,-0.00026295,-
 0.00003288,-0.00011359,0.00010747,-0.00041399,0.00338214,-0.00443036,-
 0.00142816,-0.01968160,0.02179315,0.00774914,0.18697149,0.00007500,0.0
 1439250,-0.01621957,0.00112323,-0.00045105,0.00093265,0.00815538,0.132
 17191,-0.18449157,-0.00367136,-0.00111908,-0.00131720,0.00063888,-0.00
 027186,0.00024311,-0.00059722,0.00002789,0.00061579,0.00008306,-0.0003
 2627,0.00010614,-0.00010468,-0.00006678,-0.00000470,0.00000798,0.01139
 454,-0.01213347,-0.00061808,-0.01003929,0.01136005,-0.00509220,-0.1457
 1251,0.20090880\\0.,0.00000002,0.00000006,-0.00000001,-0.00000001,-0.0
 0000007,0.00000003,-0.00000002,-0.00000006,0.,0.,0.,0.,0.,0.,0.,0.0000
 0002,0.00000002,0.00000003,0.,-0.00000001,0.,0.,0.00000002,-0.00000003
 ,0.,-0.00000002,0.,0.,0.00000002,0.,0.00000002,0.00000002\\\@


 WHERE THERE IS MUCH DESIRE TO LEARN, THERE OF NECESSITY WILL BE
 MUCH ARGUING, MUCH WRITING, MANY OPINIONS; FOR OPINION IN GOOD MEN
 IS BUT KNOWLEDGE IN THE MAKING. -- JOHN MILTON.
 Job cpu time:  0 days  0 hours 28 minutes 43.9 seconds.
 File lengths (MBytes):  RWF=     94 Int=      0 D2E=      0 Chk=      3 Scr=      1
 Normal termination of Gaussian 09 at Fri Jan 20 00:07:46 2017.
