 Entering Gaussian System, Link 0=/shared/apps/gaussian/G09_LINUX_LINDA/g09/g09
 Input=/gss_gpfs_scratch/westgroup/QMscratch/AUNGTSCVKGQIAH-UHFFFAOYSA-u1.gjf
 Output=/gss_gpfs_scratch/westgroup/QMscratch/AUNGTSCVKGQIAH-UHFFFAOYSA-u1.log
 Initial command:
 /shared/apps/gaussian/G09_LINUX_LINDA/g09/l1.exe /gss_gpfs_scratch/westgroup/rwest-autotst-1/Gau-6443.inp -scrdir=/gss_gpfs_scratch/westgroup/rwest-autotst-1/
 Entering Link 1 = /shared/apps/gaussian/G09_LINUX_LINDA/g09/l1.exe PID=      6444.
  
 Copyright (c) 1988,1990,1992,1993,1995,1998,2003,2009,2010,
            Gaussian, Inc.  All Rights Reserved.
  
 This is part of the Gaussian(R) 09 program.  It is based on
 the Gaussian(R) 03 system (copyright 2003, Gaussian, Inc.),
 the Gaussian(R) 98 system (copyright 1998, Gaussian, Inc.),
 the Gaussian(R) 94 system (copyright 1995, Gaussian, Inc.),
 the Gaussian 92(TM) system (copyright 1992, Gaussian, Inc.),
 the Gaussian 90(TM) system (copyright 1990, Gaussian, Inc.),
 the Gaussian 88(TM) system (copyright 1988, Gaussian, Inc.),
 the Gaussian 86(TM) system (copyright 1986, Carnegie Mellon
 University), and the Gaussian 82(TM) system (copyright 1983,
 Carnegie Mellon University). Gaussian is a federally registered
 trademark of Gaussian, Inc.
  
 This software contains proprietary and confidential information,
 including trade secrets, belonging to Gaussian, Inc.
  
 This software is provided under written license and may be
 used, copied, transmitted, or stored only in accord with that
 written license.
  
 The following legend is applicable only to US Government
 contracts under FAR:
  
                    RESTRICTED RIGHTS LEGEND
  
 Use, reproduction and disclosure by the US Government is
 subject to restrictions as set forth in subparagraphs (a)
 and (c) of the Commercial Computer Software - Restricted
 Rights clause in FAR 52.227-19.
  
 Gaussian, Inc.
 340 Quinnipiac St., Bldg. 40, Wallingford CT 06492
  
  
 ---------------------------------------------------------------
 Warning -- This program may not be used in any manner that
 competes with the business of Gaussian, Inc. or will provide
 assistance to any competitor of Gaussian, Inc.  The licensee
 of this program is prohibited from giving any competitor of
 Gaussian, Inc. access to this program.  By using this program,
 the user acknowledges that Gaussian, Inc. is engaged in the
 business of creating and licensing software in the field of
 computational chemistry and represents and warrants to the
 licensee that it is not a competitor of Gaussian, Inc. and that
 it will not use this program in any manner prohibited above.
 ---------------------------------------------------------------
  

 Cite this work as:
 Gaussian 09, Revision B.01,
 M. J. Frisch, G. W. Trucks, H. B. Schlegel, G. E. Scuseria, 
 M. A. Robb, J. R. Cheeseman, G. Scalmani, V. Barone, B. Mennucci, 
 G. A. Petersson, H. Nakatsuji, M. Caricato, X. Li, H. P. Hratchian, 
 A. F. Izmaylov, J. Bloino, G. Zheng, J. L. Sonnenberg, M. Hada, 
 M. Ehara, K. Toyota, R. Fukuda, J. Hasegawa, M. Ishida, T. Nakajima, 
 Y. Honda, O. Kitao, H. Nakai, T. Vreven, J. A. Montgomery, Jr., 
 J. E. Peralta, F. Ogliaro, M. Bearpark, J. J. Heyd, E. Brothers, 
 K. N. Kudin, V. N. Staroverov, T. Keith, R. Kobayashi, J. Normand, 
 K. Raghavachari, A. Rendell, J. C. Burant, S. S. Iyengar, J. Tomasi, 
 M. Cossi, N. Rega, J. M. Millam, M. Klene, J. E. Knox, J. B. Cross, 
 V. Bakken, C. Adamo, J. Jaramillo, R. Gomperts, R. E. Stratmann, 
 O. Yazyev, A. J. Austin, R. Cammi, C. Pomelli, J. W. Ochterski, 
 R. L. Martin, K. Morokuma, V. G. Zakrzewski, G. A. Voth, 
 P. Salvador, J. J. Dannenberg, S. Dapprich, A. D. Daniels, 
 O. Farkas, J. B. Foresman, J. V. Ortiz, J. Cioslowski, 
 and D. J. Fox, Gaussian, Inc., Wallingford CT, 2010.
 
 ******************************************
 Gaussian 09:  EM64L-G09RevB.01 12-Aug-2010
                18-Mar-2017 
 ******************************************
 %nprocshared=20
 Will use up to   20 processors via shared memory.
 %mem=5GB
 --------------------------------------------------------------
 # m062x/6-311+g(2df,2p) opt=(verytight,gdiis) freq IOP(2/16=3)
 --------------------------------------------------------------

 Warning!  Use of Opt=GDIIS is deprecated since it is seldom a good choice.

 1/7=1,14=-1,18=20,19=11,26=3,38=1/1,3;
 2/9=110,12=2,16=3,17=6,18=5,40=1/2;
 3/5=4,6=6,7=214,11=2,16=1,25=1,30=1,71=1,74=-55/1,2,3;
 4//1;
 5/5=2,38=5/2;
 6/7=2,8=2,9=2,10=2,28=1/1;
 7//1,2,3,16;
 1/7=1,14=-1,18=20,19=11/3(2);
 2/9=110,16=3/2;
 99//99;
 2/9=110,16=3/2;
 3/5=4,6=6,7=214,11=2,16=1,25=1,30=1,71=1,74=-55/1,2,3;
 4/5=5,16=3/1;
 5/5=2,38=5/2;
 7//1,2,3,16;
 1/7=1,14=-1,18=20,19=11/3(-5);
 2/9=110,16=3/2;
 6/7=2,8=2,9=2,10=2,19=2,28=1/1;
 99/9=1/99;
 -----------------------------------------------
 InChI=1S/C8H17/c1-3-5-7-8-6-4-2/h1,3-8H2,2H3/u1
 -----------------------------------------------
 Symbolic Z-matrix:
 Charge =  0 Multiplicity = 2
 C                     1.7446   -0.2206   -0.0674 
 C                    -0.7752   -0.4016    0.0277 
 C                     0.4149    0.4094   -0.4986 
 C                    -2.1049    0.2283   -0.4036 
 C                     2.9339    0.5908   -0.594 
 C                    -3.2929   -0.5814    0.1232 
 C                     4.2592   -0.0332   -0.1668 
 C                    -4.6078    0.0414   -0.3256 
 H                     2.8826    1.6297   -0.2011 
 H                     2.8975    0.632    -1.7045 
 H                    -2.1516    0.2673   -1.5146 
 H                    -2.1645    1.2674   -0.0103 
 H                     1.7897   -0.2606    1.0435 
 H                     1.8047   -1.2592   -0.4615 
 H                    -0.7153   -1.4403   -0.3661 
 H                    -0.7306   -0.4416    1.1386 
 H                     0.3701    0.4495   -1.6095 
 H                     0.3552    1.4481   -0.1047 
 H                    -3.2669   -0.6167    1.2342 
 H                    -3.2398   -1.6204   -0.2681 
 H                     4.3473   -1.0651   -0.5686 
 H                     4.3323   -0.0632    0.9413 
 H                     5.1005    0.5745   -0.5617 
 H                    -4.724     1.0579    0.1073 
 H                    -5.4588   -0.5924    0.0016 
 

 GradGradGradGradGradGradGradGradGradGradGradGradGradGradGradGradGradGrad
 Berny optimization.
 Initialization pass.
                           ----------------------------
                           !    Initial Parameters    !
                           ! (Angstroms and Degrees)  !
 --------------------------                            --------------------------
 ! Name  Definition              Value          Derivative Info.                !
 --------------------------------------------------------------------------------
 ! R1    R(1,3)                  1.5333         estimate D2E/DX2                !
 ! R2    R(1,5)                  1.533          estimate D2E/DX2                !
 ! R3    R(1,13)                 1.1125         estimate D2E/DX2                !
 ! R4    R(1,14)                 1.1125         estimate D2E/DX2                !
 ! R5    R(2,3)                  1.5333         estimate D2E/DX2                !
 ! R6    R(2,4)                  1.5333         estimate D2E/DX2                !
 ! R7    R(2,15)                 1.1125         estimate D2E/DX2                !
 ! R8    R(2,16)                 1.1125         estimate D2E/DX2                !
 ! R9    R(3,17)                 1.1125         estimate D2E/DX2                !
 ! R10   R(3,18)                 1.1125         estimate D2E/DX2                !
 ! R11   R(4,6)                  1.5312         estimate D2E/DX2                !
 ! R12   R(4,11)                 1.1127         estimate D2E/DX2                !
 ! R13   R(4,12)                 1.1126         estimate D2E/DX2                !
 ! R14   R(5,7)                  1.5259         estimate D2E/DX2                !
 ! R15   R(5,9)                  1.1119         estimate D2E/DX2                !
 ! R16   R(5,10)                 1.1119         estimate D2E/DX2                !
 ! R17   R(6,8)                  1.5226         estimate D2E/DX2                !
 ! R18   R(6,19)                 1.1119         estimate D2E/DX2                !
 ! R19   R(6,20)                 1.1115         estimate D2E/DX2                !
 ! R20   R(7,21)                 1.1109         estimate D2E/DX2                !
 ! R21   R(7,22)                 1.1109         estimate D2E/DX2                !
 ! R22   R(7,23)                 1.1104         estimate D2E/DX2                !
 ! R23   R(8,24)                 1.1109         estimate D2E/DX2                !
 ! R24   R(8,25)                 1.1104         estimate D2E/DX2                !
 ! A1    A(3,1,5)              111.0211         estimate D2E/DX2                !
 ! A2    A(3,1,13)             109.3139         estimate D2E/DX2                !
 ! A3    A(3,1,14)             109.3187         estimate D2E/DX2                !
 ! A4    A(5,1,13)             109.3042         estimate D2E/DX2                !
 ! A5    A(5,1,14)             109.3013         estimate D2E/DX2                !
 ! A6    A(13,1,14)            108.5406         estimate D2E/DX2                !
 ! A7    A(3,2,4)              111.0554         estimate D2E/DX2                !
 ! A8    A(3,2,15)             109.3024         estimate D2E/DX2                !
 ! A9    A(3,2,16)             109.308          estimate D2E/DX2                !
 ! A10   A(4,2,15)             109.3116         estimate D2E/DX2                !
 ! A11   A(4,2,16)             109.2946         estimate D2E/DX2                !
 ! A12   A(15,2,16)            108.5268         estimate D2E/DX2                !
 ! A13   A(1,3,2)              111.0544         estimate D2E/DX2                !
 ! A14   A(1,3,17)             109.3021         estimate D2E/DX2                !
 ! A15   A(1,3,18)             109.305          estimate D2E/DX2                !
 ! A16   A(2,3,17)             109.3022         estimate D2E/DX2                !
 ! A17   A(2,3,18)             109.3086         estimate D2E/DX2                !
 ! A18   A(17,3,18)            108.5264         estimate D2E/DX2                !
 ! A19   A(2,4,6)              111.029          estimate D2E/DX2                !
 ! A20   A(2,4,11)             109.3704         estimate D2E/DX2                !
 ! A21   A(2,4,12)             109.3107         estimate D2E/DX2                !
 ! A22   A(6,4,11)             109.2389         estimate D2E/DX2                !
 ! A23   A(6,4,12)             109.3102         estimate D2E/DX2                !
 ! A24   A(11,4,12)            108.5404         estimate D2E/DX2                !
 ! A25   A(1,5,7)              111.1737         estimate D2E/DX2                !
 ! A26   A(1,5,9)              109.7163         estimate D2E/DX2                !
 ! A27   A(1,5,10)             109.7126         estimate D2E/DX2                !
 ! A28   A(7,5,9)              108.859          estimate D2E/DX2                !
 ! A29   A(7,5,10)             108.8575         estimate D2E/DX2                !
 ! A30   A(9,5,10)             108.4692         estimate D2E/DX2                !
 ! A31   A(4,6,8)              110.6297         estimate D2E/DX2                !
 ! A32   A(4,6,19)             110.0249         estimate D2E/DX2                !
 ! A33   A(4,6,20)             109.6411         estimate D2E/DX2                !
 ! A34   A(8,6,19)             109.1301         estimate D2E/DX2                !
 ! A35   A(8,6,20)             108.6535         estimate D2E/DX2                !
 ! A36   A(19,6,20)            108.7219         estimate D2E/DX2                !
 ! A37   A(5,7,21)             110.3341         estimate D2E/DX2                !
 ! A38   A(5,7,22)             110.3318         estimate D2E/DX2                !
 ! A39   A(5,7,23)             109.5531         estimate D2E/DX2                !
 ! A40   A(21,7,22)            109.2979         estimate D2E/DX2                !
 ! A41   A(21,7,23)            108.6417         estimate D2E/DX2                !
 ! A42   A(22,7,23)            108.6421         estimate D2E/DX2                !
 ! A43   A(6,8,24)             110.4714         estimate D2E/DX2                !
 ! A44   A(6,8,25)             109.9698         estimate D2E/DX2                !
 ! A45   A(24,8,25)            109.104          estimate D2E/DX2                !
 ! D1    D(5,1,3,2)            179.9991         estimate D2E/DX2                !
 ! D2    D(5,1,3,17)            59.3274         estimate D2E/DX2                !
 ! D3    D(5,1,3,18)           -59.3194         estimate D2E/DX2                !
 ! D4    D(13,1,3,2)           -59.3402         estimate D2E/DX2                !
 ! D5    D(13,1,3,17)          179.9881         estimate D2E/DX2                !
 ! D6    D(13,1,3,18)           61.3413         estimate D2E/DX2                !
 ! D7    D(14,1,3,2)            59.3389         estimate D2E/DX2                !
 ! D8    D(14,1,3,17)          -61.3328         estimate D2E/DX2                !
 ! D9    D(14,1,3,18)         -179.9796         estimate D2E/DX2                !
 ! D10   D(3,1,5,7)            179.9992         estimate D2E/DX2                !
 ! D11   D(3,1,5,9)             59.532          estimate D2E/DX2                !
 ! D12   D(3,1,5,10)           -59.538          estimate D2E/DX2                !
 ! D13   D(13,1,5,7)            59.3327         estimate D2E/DX2                !
 ! D14   D(13,1,5,9)           -61.1344         estimate D2E/DX2                !
 ! D15   D(13,1,5,10)          179.7956         estimate D2E/DX2                !
 ! D16   D(14,1,5,7)           -59.3304         estimate D2E/DX2                !
 ! D17   D(14,1,5,9)          -179.7975         estimate D2E/DX2                !
 ! D18   D(14,1,5,10)           61.1325         estimate D2E/DX2                !
 ! D19   D(4,2,3,1)           -179.9944         estimate D2E/DX2                !
 ! D20   D(4,2,3,17)           -59.3228         estimate D2E/DX2                !
 ! D21   D(4,2,3,18)            59.3261         estimate D2E/DX2                !
 ! D22   D(15,2,3,1)           -59.3103         estimate D2E/DX2                !
 ! D23   D(15,2,3,17)           61.3613         estimate D2E/DX2                !
 ! D24   D(15,2,3,18)         -179.9898         estimate D2E/DX2                !
 ! D25   D(16,2,3,1)            59.3389         estimate D2E/DX2                !
 ! D26   D(16,2,3,17)         -179.9895         estimate D2E/DX2                !
 ! D27   D(16,2,3,18)          -61.3405         estimate D2E/DX2                !
 ! D28   D(3,2,4,6)           -179.9552         estimate D2E/DX2                !
 ! D29   D(3,2,4,11)            59.4235         estimate D2E/DX2                !
 ! D30   D(3,2,4,12)           -59.284          estimate D2E/DX2                !
 ! D31   D(15,2,4,6)            59.3661         estimate D2E/DX2                !
 ! D32   D(15,2,4,11)          -61.2552         estimate D2E/DX2                !
 ! D33   D(15,2,4,12)         -179.9627         estimate D2E/DX2                !
 ! D34   D(16,2,4,6)           -59.2806         estimate D2E/DX2                !
 ! D35   D(16,2,4,11)         -179.9019         estimate D2E/DX2                !
 ! D36   D(16,2,4,12)           61.3906         estimate D2E/DX2                !
 ! D37   D(2,4,6,8)           -179.2512         estimate D2E/DX2                !
 ! D38   D(2,4,6,19)            60.0911         estimate D2E/DX2                !
 ! D39   D(2,4,6,20)           -59.4343         estimate D2E/DX2                !
 ! D40   D(11,4,6,8)           -58.5522         estimate D2E/DX2                !
 ! D41   D(11,4,6,19)         -179.2099         estimate D2E/DX2                !
 ! D42   D(11,4,6,20)           61.2648         estimate D2E/DX2                !
 ! D43   D(12,4,6,8)            60.0773         estimate D2E/DX2                !
 ! D44   D(12,4,6,19)          -60.5804         estimate D2E/DX2                !
 ! D45   D(12,4,6,20)          179.8943         estimate D2E/DX2                !
 ! D46   D(1,5,7,21)            60.437          estimate D2E/DX2                !
 ! D47   D(1,5,7,22)           -60.4389         estimate D2E/DX2                !
 ! D48   D(1,5,7,23)           179.9995         estimate D2E/DX2                !
 ! D49   D(9,5,7,21)          -178.591          estimate D2E/DX2                !
 ! D50   D(9,5,7,22)            60.5331         estimate D2E/DX2                !
 ! D51   D(9,5,7,23)           -59.0285         estimate D2E/DX2                !
 ! D52   D(10,5,7,21)          -60.5295         estimate D2E/DX2                !
 ! D53   D(10,5,7,22)          178.5946         estimate D2E/DX2                !
 ! D54   D(10,5,7,23)           59.033          estimate D2E/DX2                !
 ! D55   D(4,6,8,24)           -63.4527         estimate D2E/DX2                !
 ! D56   D(4,6,8,25)           176.06           estimate D2E/DX2                !
 ! D57   D(19,6,8,24)           57.7363         estimate D2E/DX2                !
 ! D58   D(19,6,8,25)          -62.751          estimate D2E/DX2                !
 ! D59   D(20,6,8,24)          176.1391         estimate D2E/DX2                !
 ! D60   D(20,6,8,25)           55.6518         estimate D2E/DX2                !
 --------------------------------------------------------------------------------
 Trust Radius=3.00D-01 FncErr=1.00D-07 GrdErr=1.00D-06
 Number of steps in this run=    139 maximum allowed number of steps=    150.
 GradGradGradGradGradGradGradGradGradGradGradGradGradGradGradGradGradGrad

                          Input orientation:                          
 ---------------------------------------------------------------------
 Center     Atomic      Atomic             Coordinates (Angstroms)
 Number     Number       Type             X           Y           Z
 ---------------------------------------------------------------------
      1          6           0        1.744600   -0.220600   -0.067400
      2          6           0       -0.775200   -0.401600    0.027700
      3          6           0        0.414900    0.409400   -0.498600
      4          6           0       -2.104900    0.228300   -0.403600
      5          6           0        2.933900    0.590800   -0.594000
      6          6           0       -3.292900   -0.581400    0.123200
      7          6           0        4.259200   -0.033200   -0.166800
      8          6           0       -4.607800    0.041400   -0.325600
      9          1           0        2.882600    1.629700   -0.201100
     10          1           0        2.897500    0.632000   -1.704500
     11          1           0       -2.151600    0.267300   -1.514600
     12          1           0       -2.164500    1.267400   -0.010300
     13          1           0        1.789700   -0.260600    1.043500
     14          1           0        1.804700   -1.259200   -0.461500
     15          1           0       -0.715300   -1.440300   -0.366100
     16          1           0       -0.730600   -0.441600    1.138600
     17          1           0        0.370100    0.449500   -1.609500
     18          1           0        0.355200    1.448100   -0.104700
     19          1           0       -3.266900   -0.616700    1.234200
     20          1           0       -3.239800   -1.620400   -0.268100
     21          1           0        4.347300   -1.065100   -0.568600
     22          1           0        4.332300   -0.063200    0.941300
     23          1           0        5.100500    0.574500   -0.561700
     24          1           0       -4.724000    1.057900    0.107300
     25          1           0       -5.458800   -0.592400    0.001600
 ---------------------------------------------------------------------
                    Distance matrix (angstroms):
                    1          2          3          4          5
     1  C    0.000000
     2  C    2.528082   0.000000
     3  C    1.533276   1.533314   0.000000
     4  C    3.890140   1.533263   2.528085   0.000000
     5  C    1.533008   3.889575   2.527324   5.055409   0.000000
     6  C    5.054000   2.525918   3.887943   1.531168   6.376634
     7  C    2.523532   5.051607   3.883893   6.373871   1.525875
     8  C    6.363041   3.874260   5.039134   2.511080   7.566447
     9  H    2.176357   4.190230   2.768968   5.184601   1.111897
    10  H    2.176282   4.190176   2.768944   5.184527   1.111860
    11  H    4.184831   2.172693   2.763941   1.112665   5.178269
    12  H    4.183117   2.171902   2.761866   1.112639   5.176116
    13  H    1.112534   2.762326   2.171876   4.183423   2.171516
    14  H    1.112482   2.762368   2.171899   4.183417   2.171439
    15  H    2.761883   1.112459   2.171704   2.171778   4.182579
    16  H    2.762226   1.112514   2.171818   2.171600   4.182859
    17  H    2.171717   2.171752   1.112526   2.762019   2.761209
    18  H    2.171724   2.171802   1.112483   2.762127   2.761172
    19  H    5.192898   2.776775   4.196561   2.178683   6.576495
    20  H    5.181116   2.765362   4.186890   2.173488   6.565835
    21  H    2.781803   5.199597   4.200336   6.582628   2.177234
    22  H    2.781805   5.199590   4.200320   6.582649   2.177242
    23  H    3.484047   5.985317   4.688932   7.215444   2.166902
    24  H    6.596049   4.210641   5.214975   2.794448   7.704118
    25  H    7.213319   4.687557   5.979478   3.476547   8.496594
                    6          7          8          9         10
     6  C    0.000000
     7  C    7.577522   0.000000
     8  C    1.522584   8.868736   0.000000
     9  H    6.567415   2.159037   7.657956   0.000000
    10  H    6.567639   2.158990   7.653738   1.804394   0.000000
    11  H    2.169158   6.557837   2.738187   5.378158   5.065815
    12  H    2.170062   6.555911   2.751764   5.063683   5.375676
    13  H    5.175199   2.759523   6.549324   2.513303   3.094424
    14  H    5.175598   2.759437   6.544477   3.094418   2.513145
    15  H    2.760642   5.173519   4.165169   4.732548   4.374707
    16  H    2.759703   5.173873   4.172511   4.374962   4.732752
    17  H    4.181217   4.176061   5.156979   3.112735   2.535761
    18  H    4.180842   4.176041   5.163233   2.535749   3.112663
    19  H    1.111865   7.677594   2.159649   6.702444   6.942265
    20  H    1.111511   7.665798   2.153209   6.931913   6.693504
    21  H    7.686690   1.110866   9.026473   3.089069   2.504463
    22  H    7.686449   1.110914   9.030026   2.504520   3.089047
    23  H    8.500256   1.110419   9.725792   2.482450   2.482440
    24  H    2.176144   9.053370   1.110935   7.634293   7.845462
    25  H    2.169339   9.735532   1.110389   8.634684   8.616129
                   11         12         13         14         15
    11  H    0.000000
    12  H    1.806456   0.000000
    13  H    4.728255   4.368178   0.000000
    14  H    4.369386   4.726715   1.806226   0.000000
    15  H    2.509563   3.091668   3.107039   2.528300   0.000000
    16  H    3.092127   2.509327   2.528580   3.107497   1.806034
    17  H    2.530054   3.106541   3.091588   2.509111   2.509080
    18  H    3.109044   2.527934   2.509145   3.091574   3.091465
    19  H    3.095360   2.512747   5.072709   5.386031   3.122489
    20  H    2.510250   3.092268   5.372636   5.061111   2.532813
    21  H    6.701187   6.939438   3.128483   2.552246   5.080522
    22  H    6.941299   6.699586   2.552298   3.128422   5.392955
    23  H    7.320884   7.318769   3.772990   3.772903   6.158020
    24  H    3.142109   2.570751   6.711423   6.951001   4.747082
    25  H    3.738384   3.783042   7.330512   7.308729   4.832694
                   16         17         18         19         20
    16  H    0.000000
    17  H    3.091545   0.000000
    18  H    2.509128   1.806058   0.000000
    19  H    2.544134   4.738268   4.379002   0.000000
    20  H    3.108771   4.372095   4.729315   1.806946   0.000000
    21  H    5.393362   4.381279   4.740067   7.837550   7.613327
    22  H    5.080853   4.740092   4.381263   7.624959   7.824591
    23  H    6.158344   4.846668   4.846638   8.640463   8.629275
    24  H    4.388545   5.409936   5.098576   2.489444   3.084974
    25  H    4.865325   6.136552   6.162592   2.514820   2.460383
                   21         22         23         24         25
    21  H    0.000000
    22  H    1.812133   0.000000
    23  H    1.804341   1.804384   0.000000
    24  H    9.340902   9.163460   9.859109   0.000000
    25  H    9.834031   9.850316  10.638505   1.809584   0.000000
 Stoichiometry    C8H17(2)
 Framework group  C1[X(C8H17)]
 Deg. of freedom    69
 Full point group                 C1      NOp   1
 Largest Abelian subgroup         C1      NOp   1
 Largest concise Abelian subgroup C1      NOp   1
                         Standard orientation:                         
 ---------------------------------------------------------------------
 Center     Atomic      Atomic             Coordinates (Angstroms)
 Number     Number       Type             X           Y           Z
 ---------------------------------------------------------------------
      1          6           0        1.838537   -0.362756    0.021226
      2          6           0       -0.688342   -0.440105    0.011312
      3          6           0        0.548819    0.464474   -0.035813
      4          6           0       -1.978061    0.387089   -0.045864
      5          6           0        3.074924    0.542360   -0.025957
      6          6           0       -3.213081   -0.516724    0.002347
      7          6           0        4.360609   -0.277461    0.030635
      8          6           0       -4.487877    0.312374   -0.073520
      9          1           0        3.058507    1.245033    0.835609
     10          1           0        3.068859    1.136864   -0.965510
     11          1           0       -1.994495    0.980462   -0.986960
     12          1           0       -2.002769    1.090151    0.816144
     13          1           0        1.853332   -0.956862    0.961732
     14          1           0        1.863786   -1.065010   -0.841223
     15          1           0       -0.663304   -1.142586   -0.850928
     16          1           0       -0.674046   -1.034186    0.951818
     17          1           0        0.534328    1.058652   -0.976269
     18          1           0        0.523979    1.166895    0.826514
     19          1           0       -3.217162   -1.105861    0.945291
     20          1           0       -3.194912   -1.220376   -0.857885
     21          1           0        4.414310   -0.971474   -0.835093
     22          1           0        4.403873   -0.862934    0.973757
     23          1           0        5.237250    0.403164   -0.005161
     24          1           0       -4.571107    0.978898    0.811350
     25          1           0       -5.373596   -0.356341   -0.109378
 ---------------------------------------------------------------------
 Rotational constants (GHZ):     10.7233959      0.5108073      0.4994502
 Standard basis: 6-311+G(2df,2p) (5D, 7F)
 There are   425 symmetry adapted basis functions of A   symmetry.
 Integral buffers will be    131072 words long.
 Raffenetti 2 integral format.
 Two-electron integral symmetry is turned on.
   425 basis functions,   603 primitive gaussians,   465 cartesian basis functions
    33 alpha electrons       32 beta electrons
       nuclear repulsion energy       364.7643787429 Hartrees.
 NAtoms=   25 NActive=   25 NUniq=   25 SFac= 1.00D+00 NAtFMM=   50 NAOKFM=F Big=F
 One-electron integrals computed using PRISM.
 NBasis=   425 RedAO= T  NBF=   425
 NBsUse=   425 1.00D-06 NBFU=   425
 Harris functional with IExCor= 1009 diagonalized for initial guess.
 ExpMin= 4.38D-02 ExpMax= 4.56D+03 ExpMxC= 6.82D+02 IAcc=2 IRadAn=         0 AccDes= 0.00D+00
 HarFok:  IExCor= 1009 AccDes= 0.00D+00 IRadAn=         0 IDoV= 1
 ScaDFX=  1.000000  1.000000  1.000000  1.000000
 FoFCou: FMM=F IPFlag=           0 FMFlag=      100000 FMFlg1=           0
         NFxFlg=           0 DoJE=T BraDBF=F KetDBF=T FulRan=T
         Omega=  0.000000  0.000000  1.000000  0.000000  0.000000 ICntrl=     500 IOpCl=  0
         NMat0=    1 NMatS0=    1 NMatT0=    0 NMatD0=    1 NMtDS0=    0 NMtDT0=    0
         I1Cent=           4 NGrid=           0.
 Petite list used in FoFCou.
 Initial guess orbital symmetries:
 Alpha Orbitals:
       Occupied  (A) (A) (A) (A) (A) (A) (A) (A) (A) (A) (A) (A)
                 (A) (A) (A) (A) (A) (A) (A) (A) (A) (A) (A) (A)
                 (A) (A) (A) (A) (A) (A) (A) (A) (A)
       Virtual   (A) (A) (A) (A) (A) (A) (A) (A) (A) (A) (A) (A)
                 (A) (A) (A) (A) (A) (A) (A) (A) (A) (A) (A) (A)
                 (A) (A) (A) (A) (A) (A) (A) (A) (A) (A) (A) (A)
                 (A) (A) (A) (A) (A) (A) (A) (A) (A) (A) (A) (A)
                 (A) (A) (A) (A) (A) (A) (A) (A) (A) (A) (A) (A)
                 (A) (A) (A) (A) (A) (A) (A) (A) (A) (A) (A) (A)
                 (A) (A) (A) (A) (A) (A) (A) (A) (A) (A) (A) (A)
                 (A) (A) (A) (A) (A) (A) (A) (A) (A) (A) (A) (A)
                 (A) (A) (A) (A) (A) (A) (A) (A) (A) (A) (A) (A)
                 (A) (A) (A) (A) (A) (A) (A) (A) (A) (A) (A) (A)
                 (A) (A) (A) (A) (A) (A) (A) (A) (A) (A) (A) (A)
                 (A) (A) (A) (A) (A) (A) (A) (A) (A) (A) (A) (A)
                 (A) (A) (A) (A) (A) (A) (A) (A) (A) (A) (A) (A)
                 (A) (A) (A) (A) (A) (A) (A) (A) (A) (A) (A) (A)
                 (A) (A) (A) (A) (A) (A) (A) (A) (A) (A) (A) (A)
                 (A) (A) (A) (A) (A) (A) (A) (A) (A) (A) (A) (A)
                 (A) (A) (A) (A) (A) (A) (A) (A) (A) (A) (A) (A)
                 (A) (A) (A) (A) (A) (A) (A) (A) (A) (A) (A) (A)
                 (A) (A) (A) (A) (A) (A) (A) (A) (A) (A) (A) (A)
                 (A) (A) (A) (A) (A) (A) (A) (A) (A) (A) (A) (A)
                 (A) (A) (A) (A) (A) (A) (A) (A) (A) (A) (A) (A)
                 (A) (A) (A) (A) (A) (A) (A) (A) (A) (A) (A) (A)
                 (A) (A) (A) (A) (A) (A) (A) (A) (A) (A) (A) (A)
                 (A) (A) (A) (A) (A) (A) (A) (A) (A) (A) (A) (A)
                 (A) (A) (A) (A) (A) (A) (A) (A) (A) (A) (A) (A)
                 (A) (A) (A) (A) (A) (A) (A) (A) (A) (A) (A) (A)
                 (A) (A) (A) (A) (A) (A) (A) (A) (A) (A) (A) (A)
                 (A) (A) (A) (A) (A) (A) (A) (A) (A) (A) (A) (A)
                 (A) (A) (A) (A) (A) (A) (A) (A) (A) (A) (A) (A)
                 (A) (A) (A) (A) (A) (A) (A) (A) (A) (A) (A) (A)
                 (A) (A) (A) (A) (A) (A) (A) (A) (A) (A) (A) (A)
                 (A) (A) (A) (A) (A) (A) (A) (A) (A) (A) (A) (A)
                 (A) (A) (A) (A) (A) (A) (A) (A)
 Beta  Orbitals:
       Occupied  (A) (A) (A) (A) (A) (A) (A) (A) (A) (A) (A) (A)
                 (A) (A) (A) (A) (A) (A) (A) (A) (A) (A) (A) (A)
                 (A) (A) (A) (A) (A) (A) (A) (A)
       Virtual   (A) (A) (A) (A) (A) (A) (A) (A) (A) (A) (A) (A)
                 (A) (A) (A) (A) (A) (A) (A) (A) (A) (A) (A) (A)
                 (A) (A) (A) (A) (A) (A) (A) (A) (A) (A) (A) (A)
                 (A) (A) (A) (A) (A) (A) (A) (A) (A) (A) (A) (A)
                 (A) (A) (A) (A) (A) (A) (A) (A) (A) (A) (A) (A)
                 (A) (A) (A) (A) (A) (A) (A) (A) (A) (A) (A) (A)
                 (A) (A) (A) (A) (A) (A) (A) (A) (A) (A) (A) (A)
                 (A) (A) (A) (A) (A) (A) (A) (A) (A) (A) (A) (A)
                 (A) (A) (A) (A) (A) (A) (A) (A) (A) (A) (A) (A)
                 (A) (A) (A) (A) (A) (A) (A) (A) (A) (A) (A) (A)
                 (A) (A) (A) (A) (A) (A) (A) (A) (A) (A) (A) (A)
                 (A) (A) (A) (A) (A) (A) (A) (A) (A) (A) (A) (A)
                 (A) (A) (A) (A) (A) (A) (A) (A) (A) (A) (A) (A)
                 (A) (A) (A) (A) (A) (A) (A) (A) (A) (A) (A) (A)
                 (A) (A) (A) (A) (A) (A) (A) (A) (A) (A) (A) (A)
                 (A) (A) (A) (A) (A) (A) (A) (A) (A) (A) (A) (A)
                 (A) (A) (A) (A) (A) (A) (A) (A) (A) (A) (A) (A)
                 (A) (A) (A) (A) (A) (A) (A) (A) (A) (A) (A) (A)
                 (A) (A) (A) (A) (A) (A) (A) (A) (A) (A) (A) (A)
                 (A) (A) (A) (A) (A) (A) (A) (A) (A) (A) (A) (A)
                 (A) (A) (A) (A) (A) (A) (A) (A) (A) (A) (A) (A)
                 (A) (A) (A) (A) (A) (A) (A) (A) (A) (A) (A) (A)
                 (A) (A) (A) (A) (A) (A) (A) (A) (A) (A) (A) (A)
                 (A) (A) (A) (A) (A) (A) (A) (A) (A) (A) (A) (A)
                 (A) (A) (A) (A) (A) (A) (A) (A) (A) (A) (A) (A)
                 (A) (A) (A) (A) (A) (A) (A) (A) (A) (A) (A) (A)
                 (A) (A) (A) (A) (A) (A) (A) (A) (A) (A) (A) (A)
                 (A) (A) (A) (A) (A) (A) (A) (A) (A) (A) (A) (A)
                 (A) (A) (A) (A) (A) (A) (A) (A) (A) (A) (A) (A)
                 (A) (A) (A) (A) (A) (A) (A) (A) (A) (A) (A) (A)
                 (A) (A) (A) (A) (A) (A) (A) (A) (A) (A) (A) (A)
                 (A) (A) (A) (A) (A) (A) (A) (A) (A) (A) (A) (A)
                 (A) (A) (A) (A) (A) (A) (A) (A) (A)
 The electronic state of the initial guess is 2-A.
 Initial guess <Sx>= 0.0000 <Sy>= 0.0000 <Sz>= 0.5000 <S**2>= 0.7500 S= 0.5000
 Requested convergence on RMS density matrix=1.00D-08 within 128 cycles.
 Requested convergence on MAX density matrix=1.00D-06.
 Requested convergence on             energy=1.00D-06.
 No special actions if energy rises.
 SCF Done:  E(UM062X) =  -314.949321551     A.U. after   13 cycles
             Convg  =    0.4967D-08             -V/T =  2.0060
 <Sx>= 0.0000 <Sy>= 0.0000 <Sz>= 0.5000 <S**2>= 0.7544 S= 0.5022
 <L.S>= 0.000000000000E+00
 Annihilation of the first spin contaminant:
 S**2 before annihilation     0.7544,   after     0.7500

 **********************************************************************

            Population analysis using the SCF density.

 **********************************************************************

 Orbital symmetries:
 Alpha Orbitals:
       Occupied  (A) (A) (A) (A) (A) (A) (A) (A) (A) (A) (A) (A)
                 (A) (A) (A) (A) (A) (A) (A) (A) (A) (A) (A) (A)
                 (A) (A) (A) (A) (A) (A) (A) (A) (A)
       Virtual   (A) (A) (A) (A) (A) (A) (A) (A) (A) (A) (A) (A)
                 (A) (A) (A) (A) (A) (A) (A) (A) (A) (A) (A) (A)
                 (A) (A) (A) (A) (A) (A) (A) (A) (A) (A) (A) (A)
                 (A) (A) (A) (A) (A) (A) (A) (A) (A) (A) (A) (A)
                 (A) (A) (A) (A) (A) (A) (A) (A) (A) (A) (A) (A)
                 (A) (A) (A) (A) (A) (A) (A) (A) (A) (A) (A) (A)
                 (A) (A) (A) (A) (A) (A) (A) (A) (A) (A) (A) (A)
                 (A) (A) (A) (A) (A) (A) (A) (A) (A) (A) (A) (A)
                 (A) (A) (A) (A) (A) (A) (A) (A) (A) (A) (A) (A)
                 (A) (A) (A) (A) (A) (A) (A) (A) (A) (A) (A) (A)
                 (A) (A) (A) (A) (A) (A) (A) (A) (A) (A) (A) (A)
                 (A) (A) (A) (A) (A) (A) (A) (A) (A) (A) (A) (A)
                 (A) (A) (A) (A) (A) (A) (A) (A) (A) (A) (A) (A)
                 (A) (A) (A) (A) (A) (A) (A) (A) (A) (A) (A) (A)
                 (A) (A) (A) (A) (A) (A) (A) (A) (A) (A) (A) (A)
                 (A) (A) (A) (A) (A) (A) (A) (A) (A) (A) (A) (A)
                 (A) (A) (A) (A) (A) (A) (A) (A) (A) (A) (A) (A)
                 (A) (A) (A) (A) (A) (A) (A) (A) (A) (A) (A) (A)
                 (A) (A) (A) (A) (A) (A) (A) (A) (A) (A) (A) (A)
                 (A) (A) (A) (A) (A) (A) (A) (A) (A) (A) (A) (A)
                 (A) (A) (A) (A) (A) (A) (A) (A) (A) (A) (A) (A)
                 (A) (A) (A) (A) (A) (A) (A) (A) (A) (A) (A) (A)
                 (A) (A) (A) (A) (A) (A) (A) (A) (A) (A) (A) (A)
                 (A) (A) (A) (A) (A) (A) (A) (A) (A) (A) (A) (A)
                 (A) (A) (A) (A) (A) (A) (A) (A) (A) (A) (A) (A)
                 (A) (A) (A) (A) (A) (A) (A) (A) (A) (A) (A) (A)
                 (A) (A) (A) (A) (A) (A) (A) (A) (A) (A) (A) (A)
                 (A) (A) (A) (A) (A) (A) (A) (A) (A) (A) (A) (A)
                 (A) (A) (A) (A) (A) (A) (A) (A) (A) (A) (A) (A)
                 (A) (A) (A) (A) (A) (A) (A) (A) (A) (A) (A) (A)
                 (A) (A) (A) (A) (A) (A) (A) (A) (A) (A) (A) (A)
                 (A) (A) (A) (A) (A) (A) (A) (A) (A) (A) (A) (A)
                 (A) (A) (A) (A) (A) (A) (A) (A)
 Beta  Orbitals:
       Occupied  (A) (A) (A) (A) (A) (A) (A) (A) (A) (A) (A) (A)
                 (A) (A) (A) (A) (A) (A) (A) (A) (A) (A) (A) (A)
                 (A) (A) (A) (A) (A) (A) (A) (A)
       Virtual   (A) (A) (A) (A) (A) (A) (A) (A) (A) (A) (A) (A)
                 (A) (A) (A) (A) (A) (A) (A) (A) (A) (A) (A) (A)
                 (A) (A) (A) (A) (A) (A) (A) (A) (A) (A) (A) (A)
                 (A) (A) (A) (A) (A) (A) (A) (A) (A) (A) (A) (A)
                 (A) (A) (A) (A) (A) (A) (A) (A) (A) (A) (A) (A)
                 (A) (A) (A) (A) (A) (A) (A) (A) (A) (A) (A) (A)
                 (A) (A) (A) (A) (A) (A) (A) (A) (A) (A) (A) (A)
                 (A) (A) (A) (A) (A) (A) (A) (A) (A) (A) (A) (A)
                 (A) (A) (A) (A) (A) (A) (A) (A) (A) (A) (A) (A)
                 (A) (A) (A) (A) (A) (A) (A) (A) (A) (A) (A) (A)
                 (A) (A) (A) (A) (A) (A) (A) (A) (A) (A) (A) (A)
                 (A) (A) (A) (A) (A) (A) (A) (A) (A) (A) (A) (A)
                 (A) (A) (A) (A) (A) (A) (A) (A) (A) (A) (A) (A)
                 (A) (A) (A) (A) (A) (A) (A) (A) (A) (A) (A) (A)
                 (A) (A) (A) (A) (A) (A) (A) (A) (A) (A) (A) (A)
                 (A) (A) (A) (A) (A) (A) (A) (A) (A) (A) (A) (A)
                 (A) (A) (A) (A) (A) (A) (A) (A) (A) (A) (A) (A)
                 (A) (A) (A) (A) (A) (A) (A) (A) (A) (A) (A) (A)
                 (A) (A) (A) (A) (A) (A) (A) (A) (A) (A) (A) (A)
                 (A) (A) (A) (A) (A) (A) (A) (A) (A) (A) (A) (A)
                 (A) (A) (A) (A) (A) (A) (A) (A) (A) (A) (A) (A)
                 (A) (A) (A) (A) (A) (A) (A) (A) (A) (A) (A) (A)
                 (A) (A) (A) (A) (A) (A) (A) (A) (A) (A) (A) (A)
                 (A) (A) (A) (A) (A) (A) (A) (A) (A) (A) (A) (A)
                 (A) (A) (A) (A) (A) (A) (A) (A) (A) (A) (A) (A)
                 (A) (A) (A) (A) (A) (A) (A) (A) (A) (A) (A) (A)
                 (A) (A) (A) (A) (A) (A) (A) (A) (A) (A) (A) (A)
                 (A) (A) (A) (A) (A) (A) (A) (A) (A) (A) (A) (A)
                 (A) (A) (A) (A) (A) (A) (A) (A) (A) (A) (A) (A)
                 (A) (A) (A) (A) (A) (A) (A) (A) (A) (A) (A) (A)
                 (A) (A) (A) (A) (A) (A) (A) (A) (A) (A) (A) (A)
                 (A) (A) (A) (A) (A) (A) (A) (A) (A) (A) (A) (A)
                 (A) (A) (A) (A) (A) (A) (A) (A) (A)
 The electronic state is 2-A.
 Alpha  occ. eigenvalues --  -10.55054 -10.53658 -10.53058 -10.52961 -10.52949
 Alpha  occ. eigenvalues --  -10.52891 -10.52856 -10.52408  -0.91210  -0.88669
 Alpha  occ. eigenvalues --   -0.84343  -0.78590  -0.72079  -0.66452  -0.65398
 Alpha  occ. eigenvalues --   -0.64610  -0.55884  -0.53457  -0.50645  -0.49678
 Alpha  occ. eigenvalues --   -0.48068  -0.47716  -0.45446  -0.43851  -0.41556
 Alpha  occ. eigenvalues --   -0.41101  -0.40245  -0.39182  -0.38521  -0.38335
 Alpha  occ. eigenvalues --   -0.38260  -0.34730  -0.29227
 Alpha virt. eigenvalues --    0.01905   0.02434   0.02896   0.03389   0.03748
 Alpha virt. eigenvalues --    0.04459   0.05213   0.05653   0.06435   0.06512
 Alpha virt. eigenvalues --    0.06773   0.07591   0.08246   0.08566   0.08817
 Alpha virt. eigenvalues --    0.09715   0.10434   0.11249   0.12234   0.12636
 Alpha virt. eigenvalues --    0.13351   0.13667   0.15006   0.15429   0.16674
 Alpha virt. eigenvalues --    0.17426   0.17983   0.19009   0.20420   0.20750
 Alpha virt. eigenvalues --    0.21114   0.21409   0.21742   0.21809   0.22206
 Alpha virt. eigenvalues --    0.22815   0.23831   0.23980   0.24345   0.24740
 Alpha virt. eigenvalues --    0.25535   0.26103   0.26560   0.26755   0.27643
 Alpha virt. eigenvalues --    0.27749   0.28433   0.30190   0.30581   0.31369
 Alpha virt. eigenvalues --    0.32162   0.33118   0.33927   0.34992   0.36666
 Alpha virt. eigenvalues --    0.37449   0.40457   0.41739   0.41858   0.43605
 Alpha virt. eigenvalues --    0.44711   0.46248   0.47563   0.47698   0.49858
 Alpha virt. eigenvalues --    0.50109   0.51056   0.51969   0.52363   0.53893
 Alpha virt. eigenvalues --    0.54489   0.54773   0.55323   0.56209   0.57270
 Alpha virt. eigenvalues --    0.57868   0.58962   0.59139   0.59465   0.59821
 Alpha virt. eigenvalues --    0.61301   0.62641   0.63657   0.64297   0.64704
 Alpha virt. eigenvalues --    0.64853   0.65181   0.65817   0.66427   0.66893
 Alpha virt. eigenvalues --    0.67724   0.68467   0.68607   0.70251   0.70652
 Alpha virt. eigenvalues --    0.71579   0.72254   0.72402   0.73781   0.74744
 Alpha virt. eigenvalues --    0.75067   0.75535   0.77288   0.82517   0.83107
 Alpha virt. eigenvalues --    0.83587   0.85946   0.87614   0.88151   0.88306
 Alpha virt. eigenvalues --    0.88499   0.89178   0.90434   0.90613   0.91600
 Alpha virt. eigenvalues --    0.94138   0.95816   0.98258   1.00590   1.01771
 Alpha virt. eigenvalues --    1.03278   1.05076   1.05913   1.08140   1.10298
 Alpha virt. eigenvalues --    1.10624   1.11140   1.13508   1.13780   1.14288
 Alpha virt. eigenvalues --    1.14513   1.15168   1.16600   1.17561   1.18019
 Alpha virt. eigenvalues --    1.18285   1.19014   1.20109   1.20777   1.22045
 Alpha virt. eigenvalues --    1.22777   1.23245   1.24783   1.25409   1.26437
 Alpha virt. eigenvalues --    1.27451   1.28064   1.28322   1.30293   1.31525
 Alpha virt. eigenvalues --    1.31973   1.32338   1.33477   1.33978   1.36303
 Alpha virt. eigenvalues --    1.38067   1.40612   1.40937   1.42281   1.42468
 Alpha virt. eigenvalues --    1.43957   1.44420   1.44829   1.45668   1.45881
 Alpha virt. eigenvalues --    1.46558   1.49089   1.50534   1.51337   1.52783
 Alpha virt. eigenvalues --    1.53304   1.53478   1.55437   1.56793   1.57141
 Alpha virt. eigenvalues --    1.58018   1.58723   1.59492   1.61059   1.61666
 Alpha virt. eigenvalues --    1.62095   1.62388   1.62985   1.63339   1.64790
 Alpha virt. eigenvalues --    1.66349   1.68192   1.69428   1.73576   1.75814
 Alpha virt. eigenvalues --    1.75953   1.76061   1.77066   1.77469   1.78943
 Alpha virt. eigenvalues --    1.82305   2.37897   2.40355   2.45960   2.48545
 Alpha virt. eigenvalues --    2.50189   2.54836   2.57567   2.58391   2.60491
 Alpha virt. eigenvalues --    2.63419   2.65269   2.66299   2.67662   2.68261
 Alpha virt. eigenvalues --    2.72805   2.73506   2.74094   2.77391   2.78456
 Alpha virt. eigenvalues --    2.79035   2.80713   2.81117   2.82158   2.82645
 Alpha virt. eigenvalues --    2.83039   2.85729   2.86174   2.86332   2.87329
 Alpha virt. eigenvalues --    2.87844   2.90026   2.90951   2.92352   2.96296
 Alpha virt. eigenvalues --    2.97403   2.98808   2.99041   3.00364   3.02208
 Alpha virt. eigenvalues --    3.04352   3.05384   3.06319   3.08469   3.08626
 Alpha virt. eigenvalues --    3.12608   3.13055   3.15194   3.16037   3.17687
 Alpha virt. eigenvalues --    3.17993   3.18865   3.20504   3.23674   3.25311
 Alpha virt. eigenvalues --    3.26343   3.26547   3.28830   3.29846   3.32926
 Alpha virt. eigenvalues --    3.34143   3.34370   3.35326   3.36035   3.36714
 Alpha virt. eigenvalues --    3.37094   3.37418   3.38508   3.39957   3.41441
 Alpha virt. eigenvalues --    3.41920   3.43322   3.44043   3.45847   3.48084
 Alpha virt. eigenvalues --    3.50402   3.53584   3.56053   3.58203   3.58676
 Alpha virt. eigenvalues --    3.59991   3.60639   3.63146   3.64196   3.65341
 Alpha virt. eigenvalues --    3.65613   3.67046   3.68394   3.70046   3.70202
 Alpha virt. eigenvalues --    3.70501   3.72163   3.73339   3.77407   3.80677
 Alpha virt. eigenvalues --    3.81187   3.81918   3.82297   3.83651   3.86131
 Alpha virt. eigenvalues --    3.87592   3.87693   3.88713   3.89043   3.90298
 Alpha virt. eigenvalues --    3.92961   3.96145   3.96535   3.97396   3.98394
 Alpha virt. eigenvalues --    3.98641   3.99713   4.00770   4.01640   4.02797
 Alpha virt. eigenvalues --    4.03784   4.06083   4.09399   4.10849   4.12006
 Alpha virt. eigenvalues --    4.12916   4.14932   4.15444   4.15751   4.17064
 Alpha virt. eigenvalues --    4.17737   4.18888   4.19987   4.21289   4.21932
 Alpha virt. eigenvalues --    4.22073   4.23850   4.24880   4.27942   4.30379
 Alpha virt. eigenvalues --    4.32102   4.33107   4.35514   4.35750   4.36685
 Alpha virt. eigenvalues --    4.38510   4.39528   4.43226   4.43829   4.45836
 Alpha virt. eigenvalues --    4.47639   4.47747   4.49368   4.49614   4.50460
 Alpha virt. eigenvalues --    4.51168   4.51718   4.53035   4.54087   4.55353
 Alpha virt. eigenvalues --    4.57006   4.57371   4.59840   4.62057   4.63776
 Alpha virt. eigenvalues --    4.64564   4.65382   4.68700   4.73977   4.76049
 Alpha virt. eigenvalues --    4.76367   4.82849   4.86652   4.95387   5.06040
 Alpha virt. eigenvalues --    5.11252   5.17961   5.20529   5.36584   5.38679
 Alpha virt. eigenvalues --    5.40239   5.40582   5.45520   5.47959   5.51143
 Alpha virt. eigenvalues --    5.51171   5.53288   5.54466   5.56916   5.57889
 Alpha virt. eigenvalues --    5.59225   5.59948   5.62625   5.62670  24.10122
 Alpha virt. eigenvalues --   24.17811  24.26517  24.32255  24.36428  24.40079
 Alpha virt. eigenvalues --   24.42728  24.44523
  Beta  occ. eigenvalues --  -10.54175 -10.53687 -10.53040 -10.52961 -10.52949
  Beta  occ. eigenvalues --  -10.52891 -10.52856 -10.52408  -0.91064  -0.88285
  Beta  occ. eigenvalues --   -0.83726  -0.77782  -0.71193  -0.65781  -0.65326
  Beta  occ. eigenvalues --   -0.63698  -0.55755  -0.53108  -0.50214  -0.49221
  Beta  occ. eigenvalues --   -0.47735  -0.47172  -0.44964  -0.43429  -0.41209
  Beta  occ. eigenvalues --   -0.40636  -0.39985  -0.39012  -0.38446  -0.38308
  Beta  occ. eigenvalues --   -0.38251  -0.34500
  Beta virt. eigenvalues --   -0.04608   0.01845   0.02351   0.02854   0.03406
  Beta virt. eigenvalues --    0.03747   0.04471   0.05323   0.05641   0.06323
  Beta virt. eigenvalues --    0.06557   0.06901   0.07741   0.08195   0.08233
  Beta virt. eigenvalues --    0.08970   0.09877   0.10741   0.11400   0.11772
  Beta virt. eigenvalues --    0.12669   0.13189   0.13606   0.14780   0.15359
  Beta virt. eigenvalues --    0.16125   0.17074   0.17951   0.18926   0.20414
  Beta virt. eigenvalues --    0.20900   0.21075   0.21459   0.21773   0.21900
  Beta virt. eigenvalues --    0.22227   0.22822   0.23855   0.24027   0.24253
  Beta virt. eigenvalues --    0.24908   0.25575   0.26285   0.26646   0.26805
  Beta virt. eigenvalues --    0.27706   0.27875   0.28462   0.30128   0.30680
  Beta virt. eigenvalues --    0.30990   0.32371   0.33116   0.34052   0.34863
  Beta virt. eigenvalues --    0.36688   0.37648   0.40556   0.41787   0.41889
  Beta virt. eigenvalues --    0.43642   0.44934   0.46210   0.47590   0.48103
  Beta virt. eigenvalues --    0.49936   0.50016   0.51434   0.52283   0.52677
  Beta virt. eigenvalues --    0.54065   0.54611   0.55108   0.55814   0.56079
  Beta virt. eigenvalues --    0.57354   0.58048   0.59114   0.59230   0.59649
  Beta virt. eigenvalues --    0.59688   0.60818   0.62389   0.63933   0.64227
  Beta virt. eigenvalues --    0.64800   0.64980   0.65446   0.65847   0.66454
  Beta virt. eigenvalues --    0.67112   0.67627   0.67829   0.68739   0.70014
  Beta virt. eigenvalues --    0.70759   0.71549   0.72287   0.72427   0.73859
  Beta virt. eigenvalues --    0.74623   0.74983   0.75516   0.75822   0.82523
  Beta virt. eigenvalues --    0.83024   0.83547   0.85815   0.87555   0.88144
  Beta virt. eigenvalues --    0.88337   0.88489   0.89180   0.90223   0.90499
  Beta virt. eigenvalues --    0.91520   0.94260   0.95546   0.97943   1.00311
  Beta virt. eigenvalues --    1.01723   1.03391   1.05140   1.05797   1.07987
  Beta virt. eigenvalues --    1.10325   1.10724   1.11151   1.13590   1.13796
  Beta virt. eigenvalues --    1.14283   1.14486   1.15153   1.16558   1.17476
  Beta virt. eigenvalues --    1.18048   1.18297   1.18988   1.20227   1.21017
  Beta virt. eigenvalues --    1.22062   1.22814   1.23319   1.24744   1.25429
  Beta virt. eigenvalues --    1.26450   1.27505   1.28150   1.28399   1.30518
  Beta virt. eigenvalues --    1.31527   1.32014   1.32294   1.33415   1.33962
  Beta virt. eigenvalues --    1.36539   1.38276   1.40673   1.40959   1.42305
  Beta virt. eigenvalues --    1.42493   1.44159   1.44385   1.44814   1.45613
  Beta virt. eigenvalues --    1.45926   1.46460   1.49264   1.50552   1.51350
  Beta virt. eigenvalues --    1.52966   1.53238   1.53551   1.55666   1.56836
  Beta virt. eigenvalues --    1.57099   1.58033   1.58757   1.59953   1.61058
  Beta virt. eigenvalues --    1.61648   1.62106   1.62384   1.62975   1.63347
  Beta virt. eigenvalues --    1.64832   1.66339   1.68223   1.69406   1.73614
  Beta virt. eigenvalues --    1.75843   1.75983   1.76078   1.77126   1.77370
  Beta virt. eigenvalues --    1.78961   1.82325   2.38027   2.40547   2.46522
  Beta virt. eigenvalues --    2.49010   2.50446   2.54967   2.57959   2.58564
  Beta virt. eigenvalues --    2.60804   2.63744   2.65615   2.66616   2.67878
  Beta virt. eigenvalues --    2.68329   2.73365   2.74076   2.74501   2.78146
  Beta virt. eigenvalues --    2.79074   2.79199   2.80979   2.81854   2.82582
  Beta virt. eigenvalues --    2.82889   2.84263   2.85955   2.86393   2.86983
  Beta virt. eigenvalues --    2.87856   2.89154   2.90928   2.91477   2.93403
  Beta virt. eigenvalues --    2.96654   2.97915   2.98882   3.00033   3.01889
  Beta virt. eigenvalues --    3.02830   3.05287   3.05853   3.07194   3.09093
  Beta virt. eigenvalues --    3.09476   3.13520   3.13864   3.15547   3.16805
  Beta virt. eigenvalues --    3.18367   3.19100   3.19981   3.21343   3.24853
  Beta virt. eigenvalues --    3.26185   3.26929   3.27523   3.29891   3.30570
  Beta virt. eigenvalues --    3.33283   3.34482   3.35141   3.35814   3.36110
  Beta virt. eigenvalues --    3.36862   3.37389   3.37569   3.39418   3.40538
  Beta virt. eigenvalues --    3.42227   3.42467   3.43678   3.44344   3.48370
  Beta virt. eigenvalues --    3.49510   3.53430   3.54250   3.56535   3.58373
  Beta virt. eigenvalues --    3.60102   3.60742   3.61189   3.63911   3.65020
  Beta virt. eigenvalues --    3.65422   3.66119   3.67145   3.69229   3.70245
  Beta virt. eigenvalues --    3.70441   3.70678   3.73063   3.74048   3.78528
  Beta virt. eigenvalues --    3.80717   3.81357   3.81868   3.82472   3.84151
  Beta virt. eigenvalues --    3.86377   3.87685   3.87892   3.89133   3.89624
  Beta virt. eigenvalues --    3.90791   3.93521   3.96409   3.96751   3.97522
  Beta virt. eigenvalues --    3.98461   3.99064   3.99985   4.00935   4.01750
  Beta virt. eigenvalues --    4.03233   4.04737   4.06913   4.10154   4.11660
  Beta virt. eigenvalues --    4.12215   4.13645   4.15153   4.15787   4.15961
  Beta virt. eigenvalues --    4.17170   4.17946   4.19285   4.20390   4.21612
  Beta virt. eigenvalues --    4.22012   4.22205   4.23985   4.25142   4.29028
  Beta virt. eigenvalues --    4.30985   4.32482   4.33625   4.35776   4.36337
  Beta virt. eigenvalues --    4.37070   4.38992   4.39998   4.43446   4.43947
  Beta virt. eigenvalues --    4.46847   4.47813   4.48847   4.49543   4.49610
  Beta virt. eigenvalues --    4.50542   4.51188   4.52074   4.53078   4.54726
  Beta virt. eigenvalues --    4.55994   4.57130   4.57510   4.60435   4.62338
  Beta virt. eigenvalues --    4.63828   4.64635   4.65725   4.69116   4.74321
  Beta virt. eigenvalues --    4.76186   4.76587   4.83105   4.86854   4.95958
  Beta virt. eigenvalues --    5.06426   5.11471   5.18658   5.21487   5.38248
  Beta virt. eigenvalues --    5.38823   5.40722   5.41895   5.46143   5.50420
  Beta virt. eigenvalues --    5.51159   5.52481   5.53358   5.54563   5.56889
  Beta virt. eigenvalues --    5.57890   5.59233   5.59963   5.62642   5.62678
  Beta virt. eigenvalues --   24.10777  24.18386  24.26724  24.32325  24.36469
  Beta virt. eigenvalues --   24.40105  24.42748  24.44529
          Condensed to atoms (all electrons):
              1          2          3          4          5          6
     1  C    6.051833  -0.105774  -0.185076   0.035762  -0.255307  -0.119410
     2  C   -0.105774   5.931265  -0.092669  -0.198139   0.030154   0.182449
     3  C   -0.185076  -0.092669   5.935708  -0.111939   0.185563   0.012541
     4  C    0.035762  -0.198139  -0.111939   6.070276  -0.116518  -0.245540
     5  C   -0.255307   0.030154   0.185563  -0.116518   5.679409   0.011818
     6  C   -0.119410   0.182449   0.012541  -0.245540   0.011818   5.631227
     7  C    0.158610  -0.113109  -0.087434  -0.005055   0.034145  -0.002587
     8  C   -0.004772  -0.077553  -0.118784   0.117373  -0.002524   0.132285
     9  H   -0.023565   0.001091  -0.017478   0.000285   0.433548  -0.000124
    10  H   -0.023044   0.001028  -0.017603   0.000308   0.432895  -0.000127
    11  H    0.000047  -0.050433  -0.012536   0.465997   0.000214  -0.059220
    12  H    0.002601  -0.041462  -0.001218   0.461454   0.000648  -0.063899
    13  H    0.465994  -0.008947  -0.046809   0.000183  -0.060954   0.000199
    14  H    0.464660  -0.007372  -0.047400   0.001069  -0.061092   0.000463
    15  H   -0.005684   0.460358  -0.047771  -0.053451   0.001761  -0.007962
    16  H   -0.006449   0.462582  -0.055876  -0.052868   0.001846  -0.004394
    17  H   -0.051216  -0.053117   0.463879  -0.009239  -0.004475   0.001073
    18  H   -0.053807  -0.054188   0.464470  -0.006710  -0.005446   0.001933
    19  H   -0.000888  -0.027974  -0.000423  -0.002540  -0.000239   0.414849
    20  H    0.000597  -0.005110   0.000480  -0.036591  -0.000027   0.446242
    21  H   -0.027042  -0.000380  -0.006931  -0.000477   0.000362  -0.000010
    22  H   -0.026702  -0.000233  -0.007000  -0.000447   0.000121  -0.000007
    23  H    0.052087   0.003688   0.011003   0.000382  -0.071628   0.000014
    24  H   -0.000631  -0.005837  -0.000662  -0.044822   0.000003   0.025893
    25  H    0.000455   0.015739   0.004189   0.046310   0.000017  -0.063502
              7          8          9         10         11         12
     1  C    0.158610  -0.004772  -0.023565  -0.023044   0.000047   0.002601
     2  C   -0.113109  -0.077553   0.001091   0.001028  -0.050433  -0.041462
     3  C   -0.087434  -0.118784  -0.017478  -0.017603  -0.012536  -0.001218
     4  C   -0.005055   0.117373   0.000285   0.000308   0.465997   0.461454
     5  C    0.034145  -0.002524   0.433548   0.432895   0.000214   0.000648
     6  C   -0.002587   0.132285  -0.000124  -0.000127  -0.059220  -0.063899
     7  C    5.464088  -0.000504  -0.042202  -0.041771  -0.000096  -0.000067
     8  C   -0.000504   5.710892  -0.000008  -0.000005   0.005998  -0.011219
     9  H   -0.042202  -0.000008   0.536034  -0.032196   0.000004  -0.000023
    10  H   -0.041771  -0.000005  -0.032196   0.535616  -0.000022   0.000004
    11  H   -0.000096   0.005998   0.000004  -0.000022   0.511175  -0.029981
    12  H   -0.000067  -0.011219  -0.000023   0.000004  -0.029981   0.519321
    13  H   -0.001492  -0.000120  -0.006431   0.005215  -0.000057   0.000054
    14  H   -0.002097  -0.000059   0.005210  -0.006421   0.000056  -0.000056
    15  H   -0.000116   0.001187  -0.000057   0.000048  -0.005435   0.004955
    16  H   -0.000220   0.002320   0.000046  -0.000058   0.004923  -0.005592
    17  H    0.001392  -0.000430  -0.000210   0.000877   0.000791  -0.000040
    18  H    0.001241   0.000182   0.000899  -0.000212   0.000003   0.000821
    19  H   -0.000017  -0.043614   0.000000   0.000000   0.005295  -0.007513
    20  H   -0.000005  -0.056536   0.000000   0.000000  -0.006541   0.005336
    21  H    0.404926   0.000000   0.006162  -0.008057   0.000000   0.000000
    22  H    0.404706   0.000000  -0.008064   0.006156   0.000000   0.000000
    23  H    0.385941   0.000001  -0.004559  -0.004565   0.000000   0.000000
    24  H    0.000000   0.378117   0.000000   0.000000  -0.000652   0.002529
    25  H    0.000001   0.366130   0.000000   0.000000   0.000161   0.000095
             13         14         15         16         17         18
     1  C    0.465994   0.464660  -0.005684  -0.006449  -0.051216  -0.053807
     2  C   -0.008947  -0.007372   0.460358   0.462582  -0.053117  -0.054188
     3  C   -0.046809  -0.047400  -0.047771  -0.055876   0.463879   0.464470
     4  C    0.000183   0.001069  -0.053451  -0.052868  -0.009239  -0.006710
     5  C   -0.060954  -0.061092   0.001761   0.001846  -0.004475  -0.005446
     6  C    0.000199   0.000463  -0.007962  -0.004394   0.001073   0.001933
     7  C   -0.001492  -0.002097  -0.000116  -0.000220   0.001392   0.001241
     8  C   -0.000120  -0.000059   0.001187   0.002320  -0.000430   0.000182
     9  H   -0.006431   0.005210  -0.000057   0.000046  -0.000210   0.000899
    10  H    0.005215  -0.006421   0.000048  -0.000058   0.000877  -0.000212
    11  H   -0.000057   0.000056  -0.005435   0.004923   0.000791   0.000003
    12  H    0.000054  -0.000056   0.004955  -0.005592  -0.000040   0.000821
    13  H    0.520210  -0.031189  -0.000023   0.000715   0.004948  -0.005593
    14  H   -0.031189   0.519641   0.000747  -0.000011  -0.005550   0.004967
    15  H   -0.000023   0.000747   0.517167  -0.030288  -0.005484   0.004908
    16  H    0.000715  -0.000011  -0.030288   0.520605   0.004967  -0.005407
    17  H    0.004948  -0.005550  -0.005484   0.004967   0.516466  -0.029762
    18  H   -0.005593   0.004967   0.004908  -0.005407  -0.029762   0.517374
    19  H   -0.000023   0.000005  -0.000239   0.000839  -0.000066   0.000057
    20  H    0.000004  -0.000023   0.000838  -0.000267   0.000059  -0.000057
    21  H   -0.000577   0.001768  -0.000022   0.000003   0.000038  -0.000039
    22  H    0.001759  -0.000576   0.000003  -0.000021  -0.000038   0.000037
    23  H    0.000060   0.000060   0.000001   0.000001  -0.000005  -0.000005
    24  H    0.000000   0.000000  -0.000036   0.000023   0.000003  -0.000023
    25  H    0.000000   0.000000  -0.000003  -0.000013   0.000001   0.000001
             19         20         21         22         23         24
     1  C   -0.000888   0.000597  -0.027042  -0.026702   0.052087  -0.000631
     2  C   -0.027974  -0.005110  -0.000380  -0.000233   0.003688  -0.005837
     3  C   -0.000423   0.000480  -0.006931  -0.007000   0.011003  -0.000662
     4  C   -0.002540  -0.036591  -0.000477  -0.000447   0.000382  -0.044822
     5  C   -0.000239  -0.000027   0.000362   0.000121  -0.071628   0.000003
     6  C    0.414849   0.446242  -0.000010  -0.000007   0.000014   0.025893
     7  C   -0.000017  -0.000005   0.404926   0.404706   0.385941   0.000000
     8  C   -0.043614  -0.056536   0.000000   0.000000   0.000001   0.378117
     9  H    0.000000   0.000000   0.006162  -0.008064  -0.004559   0.000000
    10  H    0.000000   0.000000  -0.008057   0.006156  -0.004565   0.000000
    11  H    0.005295  -0.006541   0.000000   0.000000   0.000000  -0.000652
    12  H   -0.007513   0.005336   0.000000   0.000000   0.000000   0.002529
    13  H   -0.000023   0.000004  -0.000577   0.001759   0.000060   0.000000
    14  H    0.000005  -0.000023   0.001768  -0.000576   0.000060   0.000000
    15  H   -0.000239   0.000838  -0.000022   0.000003   0.000001  -0.000036
    16  H    0.000839  -0.000267   0.000003  -0.000021   0.000001   0.000023
    17  H   -0.000066   0.000059   0.000038  -0.000038  -0.000005   0.000003
    18  H    0.000057  -0.000057  -0.000039   0.000037  -0.000005  -0.000023
    19  H    0.553356  -0.035972   0.000000   0.000000   0.000000  -0.007956
    20  H   -0.035972   0.540175   0.000000   0.000000   0.000000   0.006259
    21  H    0.000000   0.000000   0.557061  -0.034546  -0.024302   0.000000
    22  H    0.000000   0.000000  -0.034546   0.557236  -0.024328   0.000000
    23  H    0.000000   0.000000  -0.024302  -0.024328   0.538529   0.000000
    24  H   -0.007956   0.006259   0.000000   0.000000   0.000000   0.543126
    25  H   -0.001969  -0.006282   0.000000   0.000000   0.000000  -0.032433
             25
     1  C    0.000455
     2  C    0.015739
     3  C    0.004189
     4  C    0.046310
     5  C    0.000017
     6  C   -0.063502
     7  C    0.000001
     8  C    0.366130
     9  H    0.000000
    10  H    0.000000
    11  H    0.000161
    12  H    0.000095
    13  H    0.000000
    14  H    0.000000
    15  H   -0.000003
    16  H   -0.000013
    17  H    0.000001
    18  H    0.000001
    19  H   -0.001969
    20  H   -0.006282
    21  H    0.000000
    22  H    0.000000
    23  H    0.000000
    24  H   -0.032433
    25  H    0.522435
 Mulliken atomic charges:
              1
     1  C   -0.343280
     2  C   -0.246057
     3  C   -0.220223
     4  C   -0.315062
     5  C   -0.234292
     6  C   -0.294203
     7  C   -0.558279
     8  C   -0.398356
     9  H    0.151639
    10  H    0.151935
    11  H    0.170311
    12  H    0.163254
    13  H    0.162873
    14  H    0.163200
    15  H    0.164599
    16  H    0.162594
    17  H    0.165141
    18  H    0.164356
    19  H    0.155031
    20  H    0.147421
    21  H    0.132062
    22  H    0.131942
    23  H    0.137625
    24  H    0.137100
    25  H    0.148668
 Sum of Mulliken atomic charges =   0.00000
 Mulliken charges with hydrogens summed into heavy atoms:
              1
     1  C   -0.017207
     2  C    0.081136
     3  C    0.109274
     4  C    0.018503
     5  C    0.069282
     6  C    0.008248
     7  C   -0.156649
     8  C   -0.112588
 Sum of Mulliken charges with hydrogens summed into heavy atoms =   0.00000
          Atomic-Atomic Spin Densities.
              1          2          3          4          5          6
     1  C    0.068043  -0.034281  -0.004161  -0.021265   0.003732  -0.020886
     2  C   -0.034281   0.055083   0.012272  -0.008330  -0.002683   0.008993
     3  C   -0.004161   0.012272   0.077134  -0.054965   0.004771  -0.010329
     4  C   -0.021265  -0.008330  -0.054965   0.121708  -0.006917  -0.016774
     5  C    0.003732  -0.002683   0.004771  -0.006917   0.004477  -0.001310
     6  C   -0.020886   0.008993  -0.010329  -0.016774  -0.001310   0.040715
     7  C    0.010413  -0.005060  -0.007674  -0.002844  -0.001752  -0.000575
     8  C   -0.001282  -0.034811  -0.021885   0.019211  -0.000523  -0.066989
     9  H    0.000155  -0.000136  -0.000166  -0.000075   0.000087  -0.000013
    10  H    0.000621  -0.000282  -0.000423  -0.000180  -0.000045  -0.000007
    11  H   -0.001974   0.002000  -0.012647   0.014028  -0.000323   0.005790
    12  H    0.001295  -0.002349   0.006554  -0.003983   0.000166  -0.001247
    13  H   -0.000102   0.000276   0.000088  -0.000297   0.000025   0.000055
    14  H   -0.001219   0.000846   0.000222   0.000272   0.000055   0.000105
    15  H    0.001334  -0.003555   0.001719  -0.000334  -0.000099   0.000398
    16  H   -0.003421   0.004586  -0.006965   0.008052  -0.000441   0.000452
    17  H   -0.000673   0.001195  -0.001283   0.000990   0.000043  -0.000294
    18  H   -0.000427   0.000115  -0.000473   0.000864  -0.000198   0.000204
    19  H   -0.002163  -0.015418  -0.004054   0.001849  -0.000130   0.029189
    20  H    0.000773   0.008846  -0.000211   0.003020   0.000041   0.000489
    21  H   -0.000019   0.000006  -0.000016   0.000003   0.000036   0.000000
    22  H    0.000056  -0.000004  -0.000026  -0.000001  -0.000043   0.000001
    23  H   -0.000115  -0.000018   0.000028   0.000000   0.000065   0.000000
    24  H    0.000040  -0.003011   0.000499   0.007570   0.000005  -0.000322
    25  H    0.000105   0.003722   0.000956   0.005093   0.000005   0.006527
              7          8          9         10         11         12
     1  C    0.010413  -0.001282   0.000155   0.000621  -0.001974   0.001295
     2  C   -0.005060  -0.034811  -0.000136  -0.000282   0.002000  -0.002349
     3  C   -0.007674  -0.021885  -0.000166  -0.000423  -0.012647   0.006554
     4  C   -0.002844   0.019211  -0.000075  -0.000180   0.014028  -0.003983
     5  C   -0.001752  -0.000523   0.000087  -0.000045  -0.000323   0.000166
     6  C   -0.000575  -0.066989  -0.000013  -0.000007   0.005790  -0.001247
     7  C    0.007392  -0.000016   0.000137   0.000301  -0.000019   0.000028
     8  C   -0.000016   1.201427  -0.000001   0.000000  -0.002696  -0.002139
     9  H    0.000137  -0.000001   0.000012   0.000001  -0.000001   0.000001
    10  H    0.000301   0.000000   0.000001   0.000062  -0.000001   0.000000
    11  H   -0.000019  -0.002696  -0.000001  -0.000001  -0.014339  -0.000442
    12  H    0.000028  -0.002139   0.000001   0.000000  -0.000442   0.000740
    13  H   -0.000021   0.000001   0.000005   0.000000   0.000003   0.000001
    14  H   -0.000310   0.000001  -0.000002  -0.000017   0.000012  -0.000003
    15  H    0.000055   0.000486   0.000000   0.000003  -0.000215   0.000076
    16  H   -0.000079  -0.000718   0.000001  -0.000002  -0.000295  -0.000008
    17  H   -0.000019  -0.000152   0.000009  -0.000030   0.000072  -0.000013
    18  H   -0.000076   0.000015  -0.000009  -0.000003   0.000059  -0.000105
    19  H   -0.000016  -0.021926   0.000000   0.000000   0.000294  -0.001073
    20  H    0.000004  -0.015376   0.000000   0.000000  -0.000381   0.000171
    21  H   -0.000013   0.000000   0.000001  -0.000003   0.000000   0.000000
    22  H    0.000013   0.000000  -0.000002   0.000003   0.000000   0.000000
    23  H    0.000037   0.000000   0.000000  -0.000004   0.000000   0.000000
    24  H    0.000000  -0.013424   0.000000   0.000000   0.000054   0.000017
    25  H    0.000000  -0.022286   0.000000   0.000000   0.000009   0.000028
             13         14         15         16         17         18
     1  C   -0.000102  -0.001219   0.001334  -0.003421  -0.000673  -0.000427
     2  C    0.000276   0.000846  -0.003555   0.004586   0.001195   0.000115
     3  C    0.000088   0.000222   0.001719  -0.006965  -0.001283  -0.000473
     4  C   -0.000297   0.000272  -0.000334   0.008052   0.000990   0.000864
     5  C    0.000025   0.000055  -0.000099  -0.000441   0.000043  -0.000198
     6  C    0.000055   0.000105   0.000398   0.000452  -0.000294   0.000204
     7  C   -0.000021  -0.000310   0.000055  -0.000079  -0.000019  -0.000076
     8  C    0.000001   0.000001   0.000486  -0.000718  -0.000152   0.000015
     9  H    0.000005  -0.000002   0.000000   0.000001   0.000009  -0.000009
    10  H    0.000000  -0.000017   0.000003  -0.000002  -0.000030  -0.000003
    11  H    0.000003   0.000012  -0.000215  -0.000295   0.000072   0.000059
    12  H    0.000001  -0.000003   0.000076  -0.000008  -0.000013  -0.000105
    13  H    0.000013  -0.000016  -0.000007   0.000044   0.000006  -0.000017
    14  H   -0.000016   0.000056  -0.000042   0.000047   0.000017   0.000008
    15  H   -0.000007  -0.000042   0.000473  -0.000430  -0.000120  -0.000003
    16  H    0.000044   0.000047  -0.000430  -0.002275   0.000047  -0.000001
    17  H    0.000006   0.000017  -0.000120   0.000047   0.000688  -0.000077
    18  H   -0.000017   0.000008  -0.000003  -0.000001  -0.000077   0.000149
    19  H   -0.000001   0.000002   0.000145  -0.000522  -0.000022   0.000028
    20  H    0.000000   0.000000  -0.000217   0.000170   0.000024  -0.000005
    21  H    0.000000   0.000001   0.000000   0.000000   0.000001   0.000000
    22  H   -0.000002  -0.000002   0.000000  -0.000001  -0.000001   0.000000
    23  H    0.000000   0.000001   0.000000   0.000000   0.000000   0.000000
    24  H    0.000000   0.000000  -0.000001   0.000041   0.000003  -0.000001
    25  H    0.000000   0.000000  -0.000004   0.000006   0.000000   0.000000
             19         20         21         22         23         24
     1  C   -0.002163   0.000773  -0.000019   0.000056  -0.000115   0.000040
     2  C   -0.015418   0.008846   0.000006  -0.000004  -0.000018  -0.003011
     3  C   -0.004054  -0.000211  -0.000016  -0.000026   0.000028   0.000499
     4  C    0.001849   0.003020   0.000003  -0.000001   0.000000   0.007570
     5  C   -0.000130   0.000041   0.000036  -0.000043   0.000065   0.000005
     6  C    0.029189   0.000489   0.000000   0.000001   0.000000  -0.000322
     7  C   -0.000016   0.000004  -0.000013   0.000013   0.000037   0.000000
     8  C   -0.021926  -0.015376   0.000000   0.000000   0.000000  -0.013424
     9  H    0.000000   0.000000   0.000001  -0.000002   0.000000   0.000000
    10  H    0.000000   0.000000  -0.000003   0.000003  -0.000004   0.000000
    11  H    0.000294  -0.000381   0.000000   0.000000   0.000000   0.000054
    12  H   -0.001073   0.000171   0.000000   0.000000   0.000000   0.000017
    13  H   -0.000001   0.000000   0.000000  -0.000002   0.000000   0.000000
    14  H    0.000002   0.000000   0.000001  -0.000002   0.000001   0.000000
    15  H    0.000145  -0.000217   0.000000   0.000000   0.000000  -0.000001
    16  H   -0.000522   0.000170   0.000000  -0.000001   0.000000   0.000041
    17  H   -0.000022   0.000024   0.000001  -0.000001   0.000000   0.000003
    18  H    0.000028  -0.000005   0.000000   0.000000   0.000000  -0.000001
    19  H    0.069694  -0.009308   0.000000   0.000000   0.000000  -0.003568
    20  H   -0.009308   0.019154   0.000000   0.000000   0.000000   0.000626
    21  H    0.000000   0.000000   0.000005  -0.000004   0.000005   0.000000
    22  H    0.000000   0.000000  -0.000004   0.000016  -0.000004   0.000000
    23  H    0.000000   0.000000   0.000005  -0.000004   0.000006   0.000000
    24  H   -0.003568   0.000626   0.000000   0.000000   0.000000  -0.018219
    25  H   -0.002694   0.001226   0.000000   0.000000   0.000000   0.004496
             25
     1  C    0.000105
     2  C    0.003722
     3  C    0.000956
     4  C    0.005093
     5  C    0.000005
     6  C    0.006527
     7  C    0.000000
     8  C   -0.022286
     9  H    0.000000
    10  H    0.000000
    11  H    0.000009
    12  H    0.000028
    13  H    0.000000
    14  H    0.000000
    15  H   -0.000004
    16  H    0.000006
    17  H    0.000000
    18  H    0.000000
    19  H   -0.002694
    20  H    0.001226
    21  H    0.000000
    22  H    0.000000
    23  H    0.000000
    24  H    0.004496
    25  H   -0.024820
 Mulliken atomic spin densities:
              1
     1  C   -0.005420
     2  C   -0.011998
     3  C   -0.021037
     4  C    0.066693
     5  C   -0.000957
     6  C   -0.025831
     7  C   -0.000093
     8  C    1.016916
     9  H    0.000004
    10  H   -0.000005
    11  H   -0.011013
    12  H   -0.002287
    13  H    0.000053
    14  H    0.000032
    15  H   -0.000336
    16  H   -0.001713
    17  H    0.000412
    18  H    0.000048
    19  H    0.040308
    20  H    0.009046
    21  H    0.000002
    22  H    0.000000
    23  H    0.000003
    24  H   -0.025195
    25  H   -0.027631
 Sum of Mulliken atomic spin densities =   1.00000
 Electronic spatial extent (au):  <R**2>=           2311.5660
 Charge=              0.0000 electrons
 Dipole moment (field-independent basis, Debye):
    X=              0.2315    Y=             -0.3907    Z=              0.4653  Tot=              0.6502
 Quadrupole moment (field-independent basis, Debye-Ang):
   XX=            -58.9624   YY=            -56.3405   ZZ=            -53.9465
   XY=              2.6864   XZ=             -2.3080   YZ=              0.6988
 Traceless Quadrupole moment (field-independent basis, Debye-Ang):
   XX=             -2.5459   YY=              0.0760   ZZ=              2.4700
   XY=              2.6864   XZ=             -2.3080   YZ=              0.6988
 Octapole moment (field-independent basis, Debye-Ang**2):
  XXX=              8.8079  YYY=             -1.0326  ZZZ=              1.1463  XYY=              2.1594
  XXY=             -8.2342  XXZ=             10.2679  XZZ=              2.9025  YZZ=             -0.8129
  YYZ=              0.7305  XYZ=             -2.6452
 Hexadecapole moment (field-independent basis, Debye-Ang**3):
 XXXX=          -3137.8769 YYYY=           -202.7490 ZZZZ=           -117.1104 XXXY=             81.0068
 XXXZ=            -51.2194 YYYX=              7.2095 YYYZ=              2.7309 ZZZX=             -5.2324
 ZZZY=              0.4308 XXYY=           -543.9994 XXZZ=           -523.2126 YYZZ=            -46.7306
 XXYZ=             13.8152 YYXZ=             -4.0028 ZZXY=              0.8130
 N-N= 3.647643787429D+02 E-N=-2.180128475621D+03  KE= 4.689320827772D+02
                          Isotropic Fermi Contact Couplings
        Atom                 a.u.       MegaHertz       Gauss      10(-4) cm-1
     1  C(13)              0.00014       0.15976       0.05701       0.05329
     2  C(13)             -0.00100      -1.12058      -0.39985      -0.37379
     3  C(13)             -0.00031      -0.35132      -0.12536      -0.11719
     4  C(13)              0.01397      15.70211       5.60290       5.23766
     5  C(13)             -0.00002      -0.02108      -0.00752      -0.00703
     6  C(13)             -0.01557     -17.49972      -6.24434      -5.83728
     7  C(13)              0.00000      -0.00173      -0.00062      -0.00058
     8  C(13)              0.39764     447.02189     159.50852     149.11045
     9  H(1)               0.00000       0.00094       0.00033       0.00031
    10  H(1)               0.00000      -0.00024      -0.00009      -0.00008
    11  H(1)              -0.00031      -1.39352      -0.49724      -0.46483
    12  H(1)              -0.00027      -1.19830      -0.42758      -0.39971
    13  H(1)               0.00000      -0.01744      -0.00622      -0.00582
    14  H(1)               0.00000      -0.01516      -0.00541      -0.00506
    15  H(1)               0.00003       0.14258       0.05087       0.04756
    16  H(1)               0.00030       1.35777       0.48449       0.45290
    17  H(1)               0.00007       0.30673       0.10945       0.10231
    18  H(1)               0.00000       0.01394       0.00497       0.00465
    19  H(1)               0.02307     103.10095      36.78898      34.39078
    20  H(1)               0.00367      16.40753       5.85462       5.47296
    21  H(1)               0.00000       0.00037       0.00013       0.00012
    22  H(1)               0.00000       0.00168       0.00060       0.00056
    23  H(1)               0.00000       0.00534       0.00190       0.00178
    24  H(1)              -0.00476     -21.26948      -7.58948      -7.09473
    25  H(1)              -0.00552     -24.65374      -8.79707      -8.22360
 --------------------------------------------------------
       Center         ----  Spin Dipole Couplings  ----
                      3XX-RR        3YY-RR        3ZZ-RR
 --------------------------------------------------------
     1   Atom        0.001291     -0.000628     -0.000663
     2   Atom        0.003841     -0.002120     -0.001721
     3   Atom        0.002117     -0.001124     -0.000993
     4   Atom        0.021542     -0.011089     -0.010453
     5   Atom        0.000694     -0.000344     -0.000350
     6   Atom       -0.002822      0.003681     -0.000859
     7   Atom        0.000429     -0.000215     -0.000215
     8   Atom       -0.491423     -0.039502      0.530926
     9   Atom        0.000628     -0.000315     -0.000314
    10   Atom        0.000658     -0.000328     -0.000330
    11   Atom        0.012018     -0.006167     -0.005851
    12   Atom        0.007040     -0.004243     -0.002797
    13   Atom        0.000978     -0.000486     -0.000492
    14   Atom        0.000985     -0.000471     -0.000514
    15   Atom        0.002890     -0.001191     -0.001699
    16   Atom        0.003299     -0.001724     -0.001575
    17   Atom        0.002082     -0.001035     -0.001047
    18   Atom        0.001873     -0.000931     -0.000942
    19   Atom        0.000699      0.000514     -0.001212
    20   Atom       -0.000631      0.008030     -0.007398
    21   Atom        0.000395     -0.000193     -0.000202
    22   Atom        0.000387     -0.000194     -0.000193
    23   Atom        0.000327     -0.000164     -0.000163
    24   Atom       -0.058625      0.011860      0.046764
    25   Atom        0.023787     -0.001558     -0.022229
 --------------------------------------------------------
                        XY            XZ            YZ
 --------------------------------------------------------
     1   Atom       -0.000263     -0.000005     -0.000002
     2   Atom       -0.002259      0.001809     -0.001846
     3   Atom       -0.000237      0.000153     -0.000083
     4   Atom        0.004126      0.008135      0.000429
     5   Atom        0.000039      0.000018     -0.000013
     6   Atom       -0.019951      0.014692     -0.020124
     7   Atom       -0.000041      0.000018     -0.000004
     8   Atom        0.026778     -0.034749     -0.677459
     9   Atom        0.000121      0.000140      0.000012
    10   Atom        0.000101     -0.000092     -0.000017
    11   Atom        0.003537     -0.004816     -0.002522
    12   Atom        0.003876      0.006348      0.001721
    13   Atom       -0.000294      0.000277     -0.000078
    14   Atom       -0.000344     -0.000172      0.000030
    15   Atom       -0.002034     -0.001001      0.000333
    16   Atom       -0.001326      0.001060     -0.000829
    17   Atom        0.000429     -0.000455     -0.000089
    18   Atom        0.000526      0.000661      0.000055
    19   Atom       -0.009090      0.003758     -0.008709
    20   Atom       -0.013335     -0.004898      0.005781
    21   Atom       -0.000091     -0.000043      0.000004
    22   Atom       -0.000079      0.000080     -0.000013
    23   Atom        0.000003      0.000012     -0.000002
    24   Atom       -0.003855     -0.008245      0.039626
    25   Atom        0.060902      0.008753     -0.015625
 --------------------------------------------------------


 ---------------------------------------------------------------------------------
              Anisotropic Spin Dipole Couplings in Principal Axis System
 ---------------------------------------------------------------------------------

       Atom             a.u.   MegaHertz   Gauss  10(-4) cm-1        Axes

              Baa    -0.0007    -0.089    -0.032    -0.030  0.0947  0.6908  0.7168
     1 C(13)  Bbb    -0.0007    -0.089    -0.032    -0.030  0.0937  0.7107 -0.6973
              Bcc     0.0013     0.178     0.064     0.059  0.9911 -0.1332 -0.0026
 
              Baa    -0.0038    -0.512    -0.183    -0.171  0.0856  0.7834  0.6156
     2 C(13)  Bbb    -0.0015    -0.208    -0.074    -0.069 -0.4592 -0.5174  0.7221
              Bcc     0.0054     0.720     0.257     0.240  0.8842 -0.3445  0.3154
 
              Baa    -0.0012    -0.157    -0.056    -0.052  0.0482  0.9210  0.3867
     3 C(13)  Bbb    -0.0010    -0.130    -0.047    -0.043 -0.0751 -0.3827  0.9208
              Bcc     0.0021     0.287     0.103     0.096  0.9960 -0.0734  0.0507
 
              Baa    -0.0127    -1.700    -0.607    -0.567 -0.2576  0.4389  0.8608
     4 C(13)  Bbb    -0.0113    -1.517    -0.541    -0.506  0.0005  0.8910 -0.4541
              Bcc     0.0240     3.217     1.148     1.073  0.9662  0.1165  0.2298
 
              Baa    -0.0004    -0.049    -0.017    -0.016 -0.0366  0.6436  0.7645
     5 C(13)  Bbb    -0.0003    -0.045    -0.016    -0.015 -0.0182  0.7645 -0.6444
              Bcc     0.0007     0.093     0.033     0.031  0.9992  0.0376  0.0163
 
              Baa    -0.0205    -2.753    -0.982    -0.918  0.5510  0.7532  0.3592
     6 C(13)  Bbb    -0.0165    -2.210    -0.789    -0.737 -0.6466  0.1132  0.7544
              Bcc     0.0370     4.963     1.771     1.655 -0.5275  0.6480 -0.5494
 
              Baa    -0.0002    -0.029    -0.011    -0.010  0.0348  0.8101  0.5853
     7 C(13)  Bbb    -0.0002    -0.029    -0.010    -0.010 -0.0603 -0.5829  0.8103
[...]
 2580,-0.00294184,-0.00128196,0.00162234,-0.00089889,0.05182913,-0.0013
 9064,0.00094036,-0.00900631,0.00031290,0.00125989,-0.01211361,-0.01417
 761,0.01410305,-0.30224387,-0.00084444,-0.00022759,0.00024027,0.000677
 07,-0.00014076,0.00029989,0.00016936,-0.00003244,0.00049549,-0.0001138
 9,-0.00005038,0.00054137,0.00008003,0.00005429,0.00004467,-0.00006449,
 0.00007331,-0.00005321,-0.00066380,-0.00032756,0.00048668,0.00078646,-
 0.00022233,0.00047082,0.00004086,0.00006743,-0.00004837,-0.00119979,0.
 00108220,0.00111057,-0.00012202,0.00033145,0.00053574,-0.00001433,0.00
 027542,0.00060966,0.00162604,0.00161624,0.00076803,0.01559809,-0.01897
 060,0.32989926,-0.00395078,0.02866464,0.01185726,-0.00094123,-0.025462
 27,-0.01028134,-0.04659068,0.01102387,0.00459715,0.00169975,-0.0012490
 6,-0.00048038,0.00169861,0.00136957,0.00030996,-0.00011465,0.00000169,
 0.00010541,-0.00012212,-0.00009339,-0.00011860,0.00002070,0.00010709,0
 .00002791,-0.00041744,-0.00071727,-0.00022591,0.00001862,-0.00009864,0
 .00004299,0.00000854,0.00007077,-0.00006247,-0.00041785,0.00057545,0.0
 0030824,0.00124421,-0.00076029,-0.00013020,-0.00506709,0.00218958,-0.0
 0167934,-0.00399828,-0.00267691,0.00200902,0.00105668,0.00093453,-0.00
 001809,-0.00062468,-0.00179627,-0.00065727,0.05632548,0.00191295,-0.01
 407502,-0.00496029,-0.00048360,-0.01812237,-0.00632774,0.01109478,-0.2
 6440975,-0.08716408,0.00105011,0.00035902,-0.00011830,-0.00090927,0.00
 045682,0.00002971,-0.00014796,0.00045118,0.00022174,0.00008160,0.00045
 958,0.00020296,-0.00004664,0.00001373,0.00004268,0.00058306,0.00066220
 ,-0.00017367,0.00009799,-0.00002338,0.00006847,-0.00007824,-0.00001939
 ,0.00007481,-0.00071481,0.00063328,-0.00008385,-0.00023145,0.00027554,
 0.00033347,0.00218867,-0.00005054,0.00128031,-0.00266940,-0.00079259,0
 .00180832,0.00041279,0.00047843,0.00027737,-0.00017261,0.00228444,0.00
 032462,-0.01199201,0.29127553,-0.00098051,0.00900182,0.00323411,0.0000
 9477,0.01194180,0.00427799,0.00467675,-0.08751460,-0.08485862,-0.00043
 056,-0.00007557,0.00003606,0.00024709,-0.00013845,-0.00004026,-0.00012
 215,0.00022379,-0.00000428,0.00011362,0.00023108,0.00000376,-0.0000403
 2,-0.00009486,0.00000472,0.00031156,-0.00007634,0.00014904,-0.00003905
 ,-0.00013120,-0.00005056,0.00005432,-0.00014064,-0.00005096,-0.0002213
 7,-0.00017528,0.00015103,0.00074500,0.00023052,0.00052579,-0.00167170,
 0.00126928,0.00071612,0.00202202,0.00182955,0.00031549,-0.00083323,0.0
 0002346,0.00062755,0.00160222,-0.03058580,-0.01209303,-0.00554728,0.09
 420455,0.08723546,0.00002752,0.00005712,-0.00013129,0.00176089,0.00009
 689,0.00130400,-0.00003797,-0.00014987,0.00013547,-0.00058925,-0.00271
 560,0.02731641,0.00002715,-0.00002182,0.00000661,-0.04236987,0.0002599
 0,-0.02482989,0.00000705,0.00000934,-0.00000572,-0.00877596,0.00587597
 ,-0.02607202,-0.00000092,0.00000068,0.00000180,0.00000834,0.00000160,-
 0.00000661,-0.00417896,-0.00298328,0.00167776,0.00106701,0.00048931,-0
 .00084144,-0.00005501,0.00001576,-0.00002295,-0.00000391,-0.00000130,0
 .00000194,0.00001605,0.00013587,-0.00006194,-0.00040077,-0.00004013,-0
 .00063065,0.00001961,0.00006097,-0.00025289,0.00002928,0.00001040,0.00
 000779,0.05378663,0.00001381,0.00001979,-0.00009048,0.00093706,0.00028
 304,-0.00019914,0.00008111,-0.00014443,-0.00001864,-0.00099138,-0.0020
 2133,0.01971268,0.00001756,-0.00000254,0.00001110,-0.00010047,-0.04386
 364,0.01702139,0.00000189,0.00000163,-0.00000137,0.00504659,-0.0024510
 4,0.01320632,-0.00000230,-0.00000451,0.00000203,0.00000119,-0.00000359
 ,-0.00000164,-0.00292620,-0.00134774,0.00152052,0.00097000,0.00039806,
 0.00007685,-0.00002624,0.00001805,-0.00000081,0.00000428,-0.00000341,-
 0.00000683,-0.00007276,-0.00007315,-0.00013985,-0.00012792,0.00036042,
 -0.00033123,0.00006925,0.00000525,-0.00010511,-0.00002444,-0.00005525,
 0.00002566,-0.00099792,0.04842394,0.00004082,0.00002347,-0.00000253,-0
 .00104550,-0.00043597,0.00028797,0.00019913,0.00003853,0.00048761,0.00
 039444,0.00136820,-0.01348237,0.00000927,-0.00000985,0.00000966,-0.011
 06095,0.01185616,-0.28185466,0.00000349,0.00000314,-0.00000780,-0.0091
 1918,0.00469736,-0.00543741,-0.00000097,-0.00000009,-0.00000292,-0.000
 00638,-0.00000145,0.00000757,0.00176668,0.00182462,0.00051582,-0.00019
 722,0.00025280,0.00070071,0.00003794,0.00000191,0.00002330,0.00000320,
 -0.00000337,-0.00000626,0.00006237,0.00007124,-0.00005817,0.00078291,-
 0.00020863,0.00045690,-0.00026291,-0.00010791,0.00012143,-0.00000660,0
 .00000190,-0.00003526,0.01998569,-0.01914764,0.31306116,0.00001083,0.0
 0008838,0.00004222,0.00167376,-0.00134246,-0.00041387,-0.00018421,-0.0
 0002655,0.00004348,-0.00050667,-0.02468345,-0.01028736,0.00001335,0.00
 000376,0.00000360,-0.04817749,0.01245072,0.00854273,0.00000137,-0.0000
 0005,-0.00000090,-0.00243801,0.02924985,0.00575114,0.00000865,0.000005
 98,0.00000105,-0.00000048,-0.00000144,-0.00000059,0.00105076,0.0009909
 5,-0.00007132,-0.00408885,-0.00268426,0.00202680,-0.00000482,-0.000003
 34,-0.00000307,-0.00005533,0.00003112,-0.00000105,-0.00040169,0.000572
 89,0.00032715,0.00000463,0.00007464,-0.00010465,0.00003385,-0.00000371
 ,-0.00000730,0.00004818,0.00025815,0.00004067,0.00079263,-0.00252575,-
 0.00055750,0.05519310,-0.00003548,-0.00000142,0.00003924,0.00105607,0.
 00041052,-0.00014913,-0.00014888,0.00041714,0.00021539,-0.00024721,-0.
 01727016,-0.00608078,-0.00000636,0.00001658,-0.00001231,0.00948651,-0.
 26518199,-0.08508741,-0.00000502,-0.00001123,0.00000276,0.00383142,-0.
 01339771,-0.00111699,0.00000539,0.00000485,0.00000304,0.00000009,-0.00
 000375,0.00000100,0.00049589,0.00043936,0.00037559,-0.00267356,-0.0006
 9756,0.00185709,-0.00000115,-0.00000154,-0.00000400,-0.00004063,0.0000
 1935,0.00000338,-0.00068581,0.00060979,-0.00008467,-0.00008779,-0.0000
 2763,0.00007720,-0.00000044,-0.00004594,0.00000680,0.00025468,0.000152
 61,-0.00002846,-0.00040658,0.00087640,-0.00051737,-0.01314632,0.292759
 21,-0.00003411,-0.00007911,-0.00001684,-0.00047788,-0.00004874,0.00004
 539,-0.00011927,0.00020315,-0.00000604,-0.00075639,0.01202193,0.004352
 14,-0.00001824,0.00001017,0.00000288,0.00717138,-0.08524241,-0.0758391
 3,-0.00000173,-0.00000274,-0.00000083,-0.00207508,0.01109448,0.0022381
 0,0.00000115,0.00000335,-0.00000287,0.00000252,0.00000265,-0.00000390,
 -0.00082626,0.00011481,0.00044473,0.00205063,0.00185894,0.00017029,-0.
 00000370,-0.00000698,-0.00000666,0.00001043,-0.00000152,0.00001964,-0.
 00020365,-0.00018577,0.00017165,0.00003754,-0.00014275,-0.00009196,0.0
 0001960,0.00002901,-0.00004001,0.00003833,-0.00002885,-0.00005733,0.00
 140174,-0.03103033,-0.01394398,-0.00505448,0.09063615,0.08265134,0.001
 92400,0.00138430,0.00046289,0.00004731,-0.00012380,-0.00003551,-0.0001
 6470,-0.00000930,-0.00014393,0.00001896,0.00001138,-0.00001383,-0.0033
 0645,0.02860147,0.01220042,0.00000500,-0.00000574,0.00000666,-0.047720
 13,0.01461592,0.00746595,0.00000081,0.00000406,-0.00000334,-0.00516551
 ,0.00225377,-0.00172024,0.00129827,-0.00074516,-0.00001823,-0.00000041
 ,0.00000229,0.00000217,0.00001027,-0.00000561,-0.00000342,-0.00000723,
 -0.00011287,0.00003546,-0.00035366,-0.00072471,-0.00023282,-0.00005771
 ,-0.00004298,0.00000894,-0.00000492,0.00000173,0.00000289,0.00002543,0
 .00002410,0.00000670,0.00012381,-0.00026968,-0.00005130,-0.00000081,0.
 00000058,0.00000062,-0.00000213,-0.00000174,-0.00000087,0.05224503,-0.
 00091831,0.00070739,0.00011107,0.00004104,-0.00001317,0.00004086,0.000
 04943,0.00042108,0.00016160,0.00000412,0.00002298,-0.00002238,0.001517
 52,-0.01378460,-0.00483740,0.00001004,-0.00001770,0.00000656,0.0153319
 5,-0.27207538,-0.09195590,0.00000372,0.00000804,-0.00000158,0.00251318
 ,0.00034956,0.00141817,-0.00020058,0.00025091,0.00039698,0.00000067,-0
 .00000334,0.00000248,-0.00000407,0.00000185,0.00000319,0.00009247,-0.0
 0003858,0.00004705,0.00064073,0.00057454,-0.00022494,0.00002864,0.0000
 1798,-0.00000126,-0.00000055,-0.00000152,-0.00000441,0.00001020,-0.000
 04115,0.00001157,-0.00025448,0.00006361,-0.00000312,-0.00000102,-0.000
 00123,-0.00000014,0.00000139,0.00000522,0.00000051,-0.01997923,0.29605
 567,0.00030331,-0.00011160,-0.00012319,0.00003668,-0.00006244,-0.00001
 991,0.00010829,0.00021329,0.00001869,0.00001430,0.00001147,0.00000190,
 -0.00084689,0.00978901,0.00368556,0.00000189,-0.00000251,-0.00000204,0
 .00765053,-0.09205989,-0.08545904,0.00000166,0.00000018,-0.00000025,-0
 .00206633,0.00105639,0.00053540,0.00077816,0.00025134,0.00043655,-0.00
 000300,0.00000162,-0.00000287,-0.00000307,0.00000389,-0.00000240,-0.00
 002509,-0.00014035,-0.00005543,0.00031441,-0.00013747,0.00012493,-0.00
 000266,0.00000197,0.00001939,0.00000412,-0.00000548,-0.00000566,-0.000
 02298,0.00001919,-0.00003578,-0.00004708,-0.00001040,-0.00004742,0.000
 00058,-0.00000172,-0.00000184,0.00000082,0.00000157,0.00000326,-0.0064
 0715,0.10047786,0.08813679,0.00198579,0.00015058,-0.00146076,0.0000493
 1,-0.00002592,0.00012778,-0.00014013,0.00014408,0.00005958,0.00001992,
 0.00001942,-0.00000667,-0.00355621,0.00139731,-0.03101225,0.00000595,-
 0.00000966,0.00000250,-0.04820452,0.00034191,-0.01732302,0.00000074,0.
 00000529,0.00000058,0.00130416,-0.00032363,0.00068919,-0.00518096,0.00
 254521,-0.00126390,0.00001006,0.00000069,0.00000642,-0.00000011,-0.000
 00136,-0.00000314,-0.00037374,-0.00010487,0.00079130,-0.00000764,-0.00
 008490,0.00007220,-0.00000532,-0.00000187,-0.00000255,-0.00005754,-0.0
 0002580,0.00003571,0.00012341,-0.00006857,0.00026463,0.00002621,0.0000
 0267,-0.00002544,-0.00000237,-0.00000033,0.00000248,-0.00000059,0.0000
 0013,-0.00000100,-0.00104212,-0.00044002,0.00192958,0.05269444,-0.0007
 0288,0.00005170,-0.00042951,-0.00001788,-0.00000770,-0.00006037,-0.000
 08962,-0.00006131,-0.00000755,-0.00001158,0.00000823,0.00000551,0.0015
 5678,-0.00146152,0.01565876,0.00000202,-0.00000595,0.00000279,0.000521
 25,-0.04849621,0.01417020,0.00000029,0.00000337,-0.00000303,-0.0007907
 4,0.00016476,0.00019538,0.00296172,-0.00048302,0.00065814,0.00000077,-
 0.00000432,0.00000054,0.00000326,-0.00000481,0.00000096,0.00000536,0.0
 0035980,-0.00025006,0.00005945,-0.00002196,-0.00014025,-0.00000426,-0.
 00000150,-0.00000568,0.00001477,0.00001892,0.00000201,-0.00006676,-0.0
 0002139,-0.00005094,0.00002587,-0.00004858,0.00001618,-0.00000039,0.00
 000232,0.00000072,-0.00000069,-0.00000055,-0.00000195,-0.00208244,0.00
 293213,-0.03084129,-0.00365998,0.04844790,0.00071378,-0.00021426,0.000
 55736,-0.00005193,0.00004177,-0.00002394,-0.00007530,-0.00005829,0.000
 49525,-0.00000981,-0.00002765,0.00001564,-0.00107252,0.00100871,-0.008
 51462,-0.00000984,0.00001259,-0.00001284,-0.01799449,0.01420259,-0.310
 21836,-0.00000483,-0.00000605,0.00001084,-0.00015820,0.00034457,0.0005
 3173,-0.00135292,0.00103157,0.00136293,0.00000547,0.00000022,0.0000040
 7,0.00000031,0.00000213,-0.00000154,-0.00071214,-0.00033751,0.00036797
 ,-0.00007003,0.00005939,-0.00008044,-0.00000161,-0.00000429,-0.0000059
 2,-0.00002441,-0.00000035,0.00001948,0.00025072,-0.00004442,0.00003516
 ,-0.00000046,0.00000762,-0.00002886,-0.00000016,-0.00000003,0.00000569
 ,-0.00000039,-0.00000077,-0.00000164,-0.00050551,0.00098284,-0.0113222
 4,0.02179075,-0.01706280,0.33685988,-0.00398400,0.00462479,-0.00290072
 ,-0.00048237,0.00053775,-0.00034192,-0.00078829,-0.00158331,0.00100766
 ,-0.00011521,-0.00024680,0.00016158,-0.02048315,-0.01676413,0.01065207
 ,-0.00007631,0.00010215,-0.00005972,-0.20435417,-0.11210706,0.07111996
 ,-0.00002272,-0.00005192,0.00002637,0.00090000,0.00027771,0.00053572,0
 .00095847,-0.00039009,-0.00047480,0.00000329,-0.00000133,-0.00001303,0
 .00000091,0.00001296,0.00000747,0.00025009,0.00016607,0.00004729,0.000
 22917,0.00002092,-0.00016604,0.00001749,-0.00002101,-0.00001868,0.0000
 1961,0.00000881,0.00002765,-0.00000673,-0.00002237,-0.00010098,-0.0000
 1306,0.00008219,0.00006228,0.00000554,0.00000025,0.00000310,0.00000003
 ,-0.00000625,0.00000056,0.00212311,0.00154662,-0.00171865,0.00234716,0
 .00227173,-0.00071159,0.22350514,0.00205586,-0.00122918,0.00094629,0.0
 0023591,-0.00017301,0.00010442,0.00069076,0.00077683,-0.00010847,0.000
 05351,0.00006300,-0.00003867,0.01242667,0.00878645,-0.00648140,0.00002
 456,-0.00002014,0.00000664,-0.11301796,-0.12798941,0.05027328,0.000007
 29,0.00000693,-0.00000274,-0.00066194,0.00058239,-0.00045095,-0.000820
 63,0.00033853,-0.00013963,-0.00000235,0.00000154,0.00000034,-0.0000004
 5,-0.00000231,-0.00000270,-0.00001792,-0.00017225,0.00000813,0.0002818
 1,0.00037587,0.00016229,-0.00000313,0.00000123,0.00001581,-0.00000727,
 -0.00000832,-0.00000777,-0.00001841,0.00001033,0.00000726,-0.00010407,
 0.00002064,-0.00005234,-0.00000084,-0.00000086,-0.00000173,0.00000009,
 0.00000093,0.00000214,-0.02279423,-0.01543379,0.01154408,0.00014163,-0
 .00136880,0.00006226,0.12152940,0.13543444,-0.00127830,0.00093025,-0.0
 0031413,-0.00014764,0.00010381,-0.00007194,-0.00042674,-0.00009872,0.0
 0067664,-0.00003324,-0.00003679,0.00002803,-0.00777512,-0.00639230,0.0
 0265699,-0.00001539,0.00000872,-0.00000954,0.07169973,0.05027471,-0.08
 029472,-0.00000438,-0.00000396,0.00000050,0.00056110,-0.00002690,0.000
 04857,0.00036697,-0.00057342,0.00028858,-0.00000031,-0.00000089,-0.000
 00357,0.00000208,-0.00000165,0.00000036,-0.00030667,-0.00009250,0.0004
 6024,0.00014218,0.00026336,-0.00008625,0.00000586,-0.00000317,-0.00000
 437,0.00000067,0.00001148,0.00000542,0.00010813,-0.00005814,-0.0000009
 4,-0.00003135,0.00001220,-0.00001155,0.00000076,0.00000138,0.00000095,
 -0.00000032,-0.00000108,-0.00000065,-0.01105801,-0.00660939,0.00411551
 ,0.02532699,0.01814010,-0.01004953,-0.07713598,-0.05584768,0.08256508,
 0.00001779,-0.00000175,-0.00000841,-0.00014888,-0.00015051,0.00001225,
 0.00001863,-0.00008291,0.00001569,0.00234337,0.00158880,0.00006795,0.0
 0000247,-0.00000010,0.00000178,0.00129416,0.02390663,-0.00202414,-0.00
 000017,0.00000062,-0.00000070,-0.05635316,0.01953017,-0.00923440,-0.00
 000221,-0.00000243,-0.00000137,-0.00000134,0.00000039,0.00000183,-0.00
 009525,-0.00006712,0.00036917,-0.00027327,-0.00057300,-0.00040112,0.00
 000304,0.00000236,0.00000371,0.00000974,-0.00000466,-0.00000282,0.0001
 3259,-0.00021547,-0.00005952,0.00009409,0.00001747,0.00008486,-0.00002
 472,-0.00000628,0.00001485,-0.00005296,-0.00003938,0.00000201,-0.00079
 558,0.00067491,-0.00051213,-0.00389195,0.00220934,-0.00159168,0.000001
 09,-0.00000123,-0.00000091,0.00000073,0.00000052,0.00000112,0.00000026
 ,-0.00000040,0.00000031,0.05224491,0.00000855,0.00002268,-0.00002248,0
 .00004684,0.00040128,-0.00008669,0.00007834,-0.00004936,0.00004922,-0.
 00133812,0.00084249,0.00024905,0.00000684,-0.00001445,0.00000997,-0.00
 139849,-0.00658026,-0.00063748,0.00000553,0.00000630,-0.00000515,0.019
 90663,-0.33855817,0.05154289,0.00000053,0.00000310,0.00000136,0.000000
 59,-0.00000049,-0.00000308,0.00043467,-0.00001167,-0.00021144,0.000778
 18,0.00036338,-0.00017269,-0.00000200,-0.00000115,-0.00000031,-0.00000
 089,-0.00000029,0.00000273,-0.00020474,0.00002009,-0.00001301,-0.00008
 072,0.00001040,-0.00002302,0.00000568,-0.00000236,-0.00001174,0.000012
 17,0.00000554,0.00000138,0.00024401,-0.00054776,-0.00014483,0.00152947
 ,-0.00000516,0.00131384,-0.00000135,-0.00000021,0.00000129,-0.00000132
 ,-0.00000118,0.00000009,0.00000642,0.00000048,-0.00000019,-0.02388773,
 0.35328773,0.00000703,0.00000925,-0.00000845,-0.00004563,0.00004295,-0
 .00017928,0.00002773,-0.00002636,0.00002544,0.00025493,-0.00058796,0.0
 0042334,0.00000075,0.00000232,0.00000606,0.00078418,0.00881124,0.00264
 634,0.00000070,-0.00000063,0.00000029,-0.00998016,0.04630463,-0.016458
 02,-0.00000065,-0.00000253,0.00000093,0.00000180,-0.00000030,-0.000004
 94,0.00006756,-0.00012881,-0.00017104,-0.00024733,-0.00031099,0.000073
 16,-0.00000656,0.00000429,-0.00000644,0.00000180,-0.00000182,-0.000000
 74,0.00006581,-0.00004872,-0.00000626,-0.00002047,0.00003392,-0.000038
 83,0.00000953,-0.00000394,-0.00001809,-0.00001292,-0.00001009,0.000006
 97,-0.00003479,-0.00076471,-0.00072258,-0.00058350,-0.00097330,-0.0003
 6527,0.00000049,-0.00000077,-0.00000013,-0.00000100,0.00000127,-0.0000
 0279,-0.00000150,-0.00000023,0.00000078,0.00996727,-0.05338765,0.01262
 192,-0.00010172,-0.00022465,0.00014260,-0.00069920,-0.00141617,0.00089
 862,-0.00038569,0.00048671,-0.00026772,-0.00296156,0.00368786,-0.00270
 190,-0.00005167,0.00009309,-0.00005976,-0.01293269,-0.01527907,0.00408
 824,-0.00002827,-0.00004419,0.00002755,-0.26018482,-0.13505958,0.00357
 308,0.00000061,-0.00000567,-0.00000186,0.00000113,-0.00000102,0.000006
 93,0.00010112,0.00005585,0.00011302,0.00013831,-0.00010762,-0.00011963
 ,0.00000371,0.00000012,-0.00001179,0.00000124,0.00001272,0.00000561,0.
 00000639,0.00007267,0.00004248,0.00005801,-0.00002050,-0.00004297,0.00
 000411,0.00000029,0.00003247,0.00001075,-0.00002031,-0.00001717,-0.000
 33633,-0.00002278,-0.00052281,0.00092109,0.00015371,0.00043046,0.00000
 268,0.00000775,-0.00000053,0.00000338,0.00000342,-0.00000602,-0.000034
 28,0.00000212,-0.00000132,0.00547663,0.00385094,-0.00025506,0.27098705
 ,0.00004963,0.00007173,-0.00004011,0.00074777,0.00074499,-0.00022093,0
 .00022088,-0.00018701,0.00007271,0.00166275,-0.00116094,0.00111128,0.0
 0002390,-0.00002673,0.00001333,0.01188940,0.00974728,-0.00123251,0.000
 00924,0.00001060,-0.00000585,-0.13485350,-0.14271362,0.01432510,0.0000
 0005,0.00000193,0.00000218,-0.00000022,-0.00000067,-0.00000227,0.00004
 296,-0.00010038,-0.00013196,0.00028160,0.00038220,0.00016188,-0.000002
 25,0.00000048,0.00000156,-0.00000106,-0.00000286,-0.00000274,-0.000109
 01,0.00002119,-0.00004091,-0.00006637,0.00002383,-0.00003294,0.0000023
 9,-0.00000418,-0.00001443,-0.00000078,0.00000472,0.00001757,0.00006093
 ,0.00013158,0.00043894,-0.00083938,0.00093270,-0.00051997,-0.00000076,
 -0.00000029,0.,-0.00000068,-0.00000032,0.00000007,0.00000650,-0.000001
 52,0.00000079,-0.02289827,-0.00919097,0.00103893,0.14377427,0.14131627
 ,-0.00002258,-0.00007252,0.00004337,-0.00016528,-0.00043053,0.00049927
 ,-0.00015679,0.00016516,-0.00010492,0.00008285,0.00184505,-0.00028048,
 -0.00001619,0.00002874,-0.00001668,-0.00676447,-0.00712750,0.00286142,
 -0.00000791,-0.00001165,0.00000876,0.00785822,0.01790201,-0.01233049,0
 .00000006,-0.00000324,-0.00000068,0.00000159,0.00000096,-0.00000143,-0
 .00007239,-0.00002651,0.00013883,-0.00004842,0.00002722,-0.00012615,-0
 .00000446,0.00000103,-0.00001005,0.00000122,0.00000038,0.00000245,0.00
 001150,0.00001147,0.00001098,-0.00001098,-0.00001607,-0.00003053,0.000
 01980,0.00000982,-0.00000582,0.00000302,-0.00001347,-0.00000596,0.0010
 4981,0.00026158,-0.00012298,0.00030664,0.00083706,0.00027770,0.0000009
 7,0.00000056,0.00000020,0.00000005,0.00000087,-0.00000327,-0.00000811,
 0.00000136,-0.00000045,0.00329440,0.00154793,0.00217764,-0.00535254,-0
 .01493971,0.00701928\\0.00000014,0.00000216,0.00000194,0.00000028,0.00
 000360,0.00000666,-0.00000030,-0.00000411,-0.00000666,-0.00000017,-0.0
 0000275,-0.00000189,-0.00000044,-0.00000549,-0.00001137,0.00000043,0.0
 0000505,0.00001148,0.,0.00000096,-0.00000256,0.,-0.00000092,0.00000311
 ,-0.00000044,0.00000059,-0.00002724,-0.00000125,-0.00002248,-0.0000126
 4,-0.00000096,-0.00001975,-0.00000307,-0.00000015,0.00000328,-0.000017
 79,0.00000093,0.00001918,0.00000325,0.00000013,-0.00000391,0.00001783,
 0.00000028,-0.00000241,0.00002257,0.00000108,0.00002063,0.00000789,-0.
 00000110,-0.00002113,-0.00000793,-0.00000030,0.00000195,-0.00002256,0.
 00000123,0.00002214,0.00001278,0.00000043,-0.00000076,0.00002747,-0.00
 000002,-0.00000531,0.00001314,0.00000079,0.00001791,-0.00000153,-0.000
 00042,-0.00000458,-0.00001224,-0.00000038,-0.00000339,-0.00001352,0.00
 000020,-0.00000046,0.00001288\\\@


 I FIND THAT THE THREE TRULY GREAT TIMES FOR THINKING THOUGHTS
 ARE WHEN I AM STANDING IN THE SHOWER, SITTING ON THE JOHN, OR WALKING.

                                    -- COLIN FLETCHER
 Job cpu time:  0 days 14 hours 28 minutes 12.9 seconds.
 File lengths (MBytes):  RWF=   2832 Int=      0 D2E=      0 Chk=     32 Scr=     32
 Normal termination of Gaussian 09 at Sat Mar 18 19:13:16 2017.
