 Entering Gaussian System, Link 0=/shared/apps/gaussian/G09_LINUX_LINDA/g09/g09
 Input=/gss_gpfs_scratch/harms.n/QMscratch/AVPSXLUZPNIULF-UHFFFAOYSA-u7.gjf
 Output=/gss_gpfs_scratch/harms.n/QMscratch/AVPSXLUZPNIULF-UHFFFAOYSA-u7.log
 Initial command:
 /shared/apps/gaussian/G09_LINUX_LINDA/g09/l1.exe /gss_gpfs_scratch/harms.n/bioTST/Gau-13785.inp -scrdir=/gss_gpfs_scratch/harms.n/bioTST/
 Entering Link 1 = /shared/apps/gaussian/G09_LINUX_LINDA/g09/l1.exe PID=     13786.
  
 Copyright (c) 1988,1990,1992,1993,1995,1998,2003,2009,2010,
            Gaussian, Inc.  All Rights Reserved.
  
 This is part of the Gaussian(R) 09 program.  It is based on
 the Gaussian(R) 03 system (copyright 2003, Gaussian, Inc.),
 the Gaussian(R) 98 system (copyright 1998, Gaussian, Inc.),
 the Gaussian(R) 94 system (copyright 1995, Gaussian, Inc.),
 the Gaussian 92(TM) system (copyright 1992, Gaussian, Inc.),
 the Gaussian 90(TM) system (copyright 1990, Gaussian, Inc.),
 the Gaussian 88(TM) system (copyright 1988, Gaussian, Inc.),
 the Gaussian 86(TM) system (copyright 1986, Carnegie Mellon
 University), and the Gaussian 82(TM) system (copyright 1983,
 Carnegie Mellon University). Gaussian is a federally registered
 trademark of Gaussian, Inc.
  
 This software contains proprietary and confidential information,
 including trade secrets, belonging to Gaussian, Inc.
  
 This software is provided under written license and may be
 used, copied, transmitted, or stored only in accord with that
 written license.
  
 The following legend is applicable only to US Government
 contracts under FAR:
  
                    RESTRICTED RIGHTS LEGEND
  
 Use, reproduction and disclosure by the US Government is
 subject to restrictions as set forth in subparagraphs (a)
 and (c) of the Commercial Computer Software - Restricted
 Rights clause in FAR 52.227-19.
  
 Gaussian, Inc.
 340 Quinnipiac St., Bldg. 40, Wallingford CT 06492
  
  
 ---------------------------------------------------------------
 Warning -- This program may not be used in any manner that
 competes with the business of Gaussian, Inc. or will provide
 assistance to any competitor of Gaussian, Inc.  The licensee
 of this program is prohibited from giving any competitor of
 Gaussian, Inc. access to this program.  By using this program,
 the user acknowledges that Gaussian, Inc. is engaged in the
 business of creating and licensing software in the field of
 computational chemistry and represents and warrants to the
 licensee that it is not a competitor of Gaussian, Inc. and that
 it will not use this program in any manner prohibited above.
 ---------------------------------------------------------------
  

 Cite this work as:
 Gaussian 09, Revision B.01,
 M. J. Frisch, G. W. Trucks, H. B. Schlegel, G. E. Scuseria, 
 M. A. Robb, J. R. Cheeseman, G. Scalmani, V. Barone, B. Mennucci, 
 G. A. Petersson, H. Nakatsuji, M. Caricato, X. Li, H. P. Hratchian, 
 A. F. Izmaylov, J. Bloino, G. Zheng, J. L. Sonnenberg, M. Hada, 
 M. Ehara, K. Toyota, R. Fukuda, J. Hasegawa, M. Ishida, T. Nakajima, 
 Y. Honda, O. Kitao, H. Nakai, T. Vreven, J. A. Montgomery, Jr., 
 J. E. Peralta, F. Ogliaro, M. Bearpark, J. J. Heyd, E. Brothers, 
 K. N. Kudin, V. N. Staroverov, T. Keith, R. Kobayashi, J. Normand, 
 K. Raghavachari, A. Rendell, J. C. Burant, S. S. Iyengar, J. Tomasi, 
 M. Cossi, N. Rega, J. M. Millam, M. Klene, J. E. Knox, J. B. Cross, 
 V. Bakken, C. Adamo, J. Jaramillo, R. Gomperts, R. E. Stratmann, 
 O. Yazyev, A. J. Austin, R. Cammi, C. Pomelli, J. W. Ochterski, 
 R. L. Martin, K. Morokuma, V. G. Zakrzewski, G. A. Voth, 
 P. Salvador, J. J. Dannenberg, S. Dapprich, A. D. Daniels, 
 O. Farkas, J. B. Foresman, J. V. Ortiz, J. Cioslowski, 
 and D. J. Fox, Gaussian, Inc., Wallingford CT, 2010.
 
 ******************************************
 Gaussian 09:  EM64L-G09RevB.01 12-Aug-2010
                30-Jul-2017 
 ******************************************
 %nprocshared=20
 Will use up to   20 processors via shared memory.
 %mem=5GB
 --------------------------------------------------------------
 # m062x/6-311+g(2df,2p) opt=(verytight,gdiis) freq IOP(2/16=3)
 --------------------------------------------------------------

 Warning!  Use of Opt=GDIIS is deprecated since it is seldom a good choice.

 1/7=1,14=-1,18=20,19=11,26=3,38=1/1,3;
 2/9=110,12=2,16=3,17=6,18=5,40=1/2;
 3/5=4,6=6,7=214,11=2,16=1,25=1,30=1,71=1,74=-55/1,2,3;
 4//1;
 5/5=2,38=5/2;
 6/7=2,8=2,9=2,10=2,28=1/1;
 7//1,2,3,16;
 1/7=1,14=-1,18=20,19=11/3(2);
 2/9=110,16=3/2;
 99//99;
 2/9=110,16=3/2;
 3/5=4,6=6,7=214,11=2,16=1,25=1,30=1,71=1,74=-55/1,2,3;
 4/5=5,16=3/1;
 5/5=2,38=5/2;
 7//1,2,3,16;
 1/7=1,14=-1,18=20,19=11/3(-5);
 2/9=110,16=3/2;
 6/7=2,8=2,9=2,10=2,19=2,28=1/1;
 99/9=1/99;
 ----------------------------------------------------
 InChI=1S/C8H15/c1-4-5-6-7-8(2)3/h6,8H,4-5H2,1-3H3/u7
 ----------------------------------------------------
 Symbolic Z-matrix:
 Charge =  0 Multiplicity = 2
 C                    -2.1871    0.294    -0.2606 
 C                     2.5753    0.3945    0.2932 
 C                     1.5968   -0.5594   -0.3974 
 C                    -2.7374    0.751     1.0917 
 C                    -3.1408   -0.7005   -0.9251 
 C                     3.927    -0.2746    0.5249 
 C                     0.2781    0.1212   -0.6247 
 C                    -0.8411   -0.3516   -0.0648 
 H                    -2.0993    1.1864   -0.9203 
 H                     2.1578    0.7125    1.2738 
 H                     2.7255    1.2993   -0.3359 
 H                     1.4648   -1.4723    0.2262 
 H                     2.007    -0.8691   -1.3827 
 H                     3.8093   -1.1676    1.1751 
 H                     4.3764   -0.582    -0.4434 
 H                     4.6146    0.44      1.0246 
 H                    -2.8576   -0.1128    1.7811 
 H                    -3.7247    1.2423    0.9566 
 H                    -2.0453    1.4865    1.5553 
 H                    -3.272    -1.6048   -0.2919 
 H                    -4.1336   -0.2288   -1.0869 
 H                    -2.7394   -1.0102   -1.914 
 H                     0.2456    1.0061   -1.2547 
 

 GradGradGradGradGradGradGradGradGradGradGradGradGradGradGradGradGradGrad
 Berny optimization.
 Initialization pass.
                           ----------------------------
                           !    Initial Parameters    !
                           ! (Angstroms and Degrees)  !
 --------------------------                            --------------------------
 ! Name  Definition              Value          Derivative Info.                !
 --------------------------------------------------------------------------------
 ! R1    R(1,4)                  1.5298         estimate D2E/DX2                !
 ! R2    R(1,5)                  1.5297         estimate D2E/DX2                !
 ! R3    R(1,8)                  1.5056         estimate D2E/DX2                !
 ! R4    R(1,9)                  1.1132         estimate D2E/DX2                !
 ! R5    R(2,3)                  1.5311         estimate D2E/DX2                !
 ! R6    R(2,6)                  1.5259         estimate D2E/DX2                !
 ! R7    R(2,10)                 1.1122         estimate D2E/DX2                !
 ! R8    R(2,11)                 1.1122         estimate D2E/DX2                !
 ! R9    R(3,7)                  1.5013         estimate D2E/DX2                !
 ! R10   R(3,12)                 1.1134         estimate D2E/DX2                !
 ! R11   R(3,13)                 1.1113         estimate D2E/DX2                !
 ! R12   R(4,17)                 1.1117         estimate D2E/DX2                !
 ! R13   R(4,18)                 1.111          estimate D2E/DX2                !
 ! R14   R(4,19)                 1.1113         estimate D2E/DX2                !
 ! R15   R(5,20)                 1.1117         estimate D2E/DX2                !
 ! R16   R(5,21)                 1.111          estimate D2E/DX2                !
 ! R17   R(5,22)                 1.1113         estimate D2E/DX2                !
 ! R18   R(6,14)                 1.1109         estimate D2E/DX2                !
 ! R19   R(6,15)                 1.1109         estimate D2E/DX2                !
 ! R20   R(6,16)                 1.1105         estimate D2E/DX2                !
 ! R21   R(7,8)                  1.3378         estimate D2E/DX2                !
 ! R22   R(7,23)                 1.0867         estimate D2E/DX2                !
 ! A1    A(4,1,5)              110.7273         estimate D2E/DX2                !
 ! A2    A(4,1,8)              109.5553         estimate D2E/DX2                !
 ! A3    A(4,1,9)              108.2239         estimate D2E/DX2                !
 ! A4    A(5,1,8)              109.577          estimate D2E/DX2                !
 ! A5    A(5,1,9)              108.234          estimate D2E/DX2                !
 ! A6    A(8,1,9)              110.5052         estimate D2E/DX2                !
 ! A7    A(3,2,6)              111.1869         estimate D2E/DX2                !
 ! A8    A(3,2,10)             109.6276         estimate D2E/DX2                !
 ! A9    A(3,2,11)             109.7558         estimate D2E/DX2                !
 ! A10   A(6,2,10)             108.9059         estimate D2E/DX2                !
 ! A11   A(6,2,11)             108.8431         estimate D2E/DX2                !
 ! A12   A(10,2,11)            108.4693         estimate D2E/DX2                !
 ! A13   A(2,3,7)              110.3164         estimate D2E/DX2                !
 ! A14   A(2,3,12)             109.5092         estimate D2E/DX2                !
 ! A15   A(2,3,13)             109.7326         estimate D2E/DX2                !
 ! A16   A(7,3,12)             110.6321         estimate D2E/DX2                !
 ! A17   A(7,3,13)             108.4409         estimate D2E/DX2                !
 ! A18   A(12,3,13)            108.1703         estimate D2E/DX2                !
 ! A19   A(1,4,17)             110.7903         estimate D2E/DX2                !
 ! A20   A(1,4,18)             110.1367         estimate D2E/DX2                !
 ! A21   A(1,4,19)             110.0266         estimate D2E/DX2                !
 ! A22   A(17,4,18)            108.8397         estimate D2E/DX2                !
 ! A23   A(17,4,19)            108.8387         estimate D2E/DX2                !
 ! A24   A(18,4,19)            108.1497         estimate D2E/DX2                !
 ! A25   A(1,5,20)             110.792          estimate D2E/DX2                !
 ! A26   A(1,5,21)             110.1421         estimate D2E/DX2                !
 ! A27   A(1,5,22)             110.0314         estimate D2E/DX2                !
 ! A28   A(20,5,21)            108.8351         estimate D2E/DX2                !
 ! A29   A(20,5,22)            108.8311         estimate D2E/DX2                !
 ! A30   A(21,5,22)            108.1496         estimate D2E/DX2                !
 ! A31   A(2,6,14)             110.3346         estimate D2E/DX2                !
 ! A32   A(2,6,15)             110.3244         estimate D2E/DX2                !
 ! A33   A(2,6,16)             109.5514         estimate D2E/DX2                !
 ! A34   A(14,6,15)            109.3049         estimate D2E/DX2                !
 ! A35   A(14,6,16)            108.634          estimate D2E/DX2                !
 ! A36   A(15,6,16)            108.6515         estimate D2E/DX2                !
 ! A37   A(3,7,8)              120.7489         estimate D2E/DX2                !
 ! A38   A(3,7,23)             118.8937         estimate D2E/DX2                !
 ! A39   A(8,7,23)             120.3573         estimate D2E/DX2                !
 ! A40   A(1,8,7)              122.8165         estimate D2E/DX2                !
 ! D1    D(5,1,4,17)            60.6331         estimate D2E/DX2                !
 ! D2    D(5,1,4,18)           -59.8388         estimate D2E/DX2                !
 ! D3    D(5,1,4,19)          -178.9684         estimate D2E/DX2                !
 ! D4    D(8,1,4,17)           -60.338          estimate D2E/DX2                !
 ! D5    D(8,1,4,18)           179.1901         estimate D2E/DX2                !
 ! D6    D(8,1,4,19)            60.0605         estimate D2E/DX2                !
 ! D7    D(9,1,4,17)           179.1103         estimate D2E/DX2                !
 ! D8    D(9,1,4,18)            58.6384         estimate D2E/DX2                !
 ! D9    D(9,1,4,19)           -60.4912         estimate D2E/DX2                !
 ! D10   D(4,1,5,20)           -60.6499         estimate D2E/DX2                !
 ! D11   D(4,1,5,21)            59.8211         estimate D2E/DX2                !
 ! D12   D(4,1,5,22)           178.9568         estimate D2E/DX2                !
 ! D13   D(8,1,5,20)            60.3084         estimate D2E/DX2                !
 ! D14   D(8,1,5,21)          -179.2207         estimate D2E/DX2                !
 ! D15   D(8,1,5,22)           -60.0849         estimate D2E/DX2                !
 ! D16   D(9,1,5,20)          -179.121          estimate D2E/DX2                !
 ! D17   D(9,1,5,21)           -58.6501         estimate D2E/DX2                !
 ! D18   D(9,1,5,22)            60.4857         estimate D2E/DX2                !
 ! D19   D(4,1,8,7)           -118.999          estimate D2E/DX2                !
 ! D20   D(5,1,8,7)            119.336          estimate D2E/DX2                !
 ! D21   D(9,1,8,7)              0.1555         estimate D2E/DX2                !
 ! D22   D(6,2,3,7)           -179.5868         estimate D2E/DX2                !
 ! D23   D(6,2,3,12)            58.4212         estimate D2E/DX2                !
 ! D24   D(6,2,3,13)           -60.1702         estimate D2E/DX2                !
 ! D25   D(10,2,3,7)            59.9374         estimate D2E/DX2                !
 ! D26   D(10,2,3,12)          -62.0546         estimate D2E/DX2                !
 ! D27   D(10,2,3,13)          179.354          estimate D2E/DX2                !
 ! D28   D(11,2,3,7)           -59.105          estimate D2E/DX2                !
 ! D29   D(11,2,3,12)          178.903          estimate D2E/DX2                !
 ! D30   D(11,2,3,13)           60.3116         estimate D2E/DX2                !
 ! D31   D(3,2,6,14)           -60.5303         estimate D2E/DX2                !
 ! D32   D(3,2,6,15)            60.3498         estimate D2E/DX2                !
 ! D33   D(3,2,6,16)           179.9174         estimate D2E/DX2                !
 ! D34   D(10,2,6,14)           60.3705         estimate D2E/DX2                !
 ! D35   D(10,2,6,15)         -178.7494         estimate D2E/DX2                !
 ! D36   D(10,2,6,16)          -59.1818         estimate D2E/DX2                !
 ! D37   D(11,2,6,14)          178.4506         estimate D2E/DX2                !
 ! D38   D(11,2,6,15)          -60.6693         estimate D2E/DX2                !
 ! D39   D(11,2,6,16)           58.8983         estimate D2E/DX2                !
 ! D40   D(2,3,7,8)           -118.823          estimate D2E/DX2                !
 ! D41   D(2,3,7,23)            61.2853         estimate D2E/DX2                !
 ! D42   D(12,3,7,8)             2.5037         estimate D2E/DX2                !
 ! D43   D(12,3,7,23)         -177.3881         estimate D2E/DX2                !
 ! D44   D(13,3,7,8)           120.9802         estimate D2E/DX2                !
 ! D45   D(13,3,7,23)          -58.9115         estimate D2E/DX2                !
 ! D46   D(3,7,8,1)            179.9628         estimate D2E/DX2                !
 ! D47   D(23,7,8,1)            -0.1471         estimate D2E/DX2                !
 --------------------------------------------------------------------------------
 Trust Radius=3.00D-01 FncErr=1.00D-07 GrdErr=1.00D-06
 Number of steps in this run=    119 maximum allowed number of steps=    138.
 GradGradGradGradGradGradGradGradGradGradGradGradGradGradGradGradGradGrad

                          Input orientation:                          
 ---------------------------------------------------------------------
 Center     Atomic      Atomic             Coordinates (Angstroms)
 Number     Number       Type             X           Y           Z
 ---------------------------------------------------------------------
      1          6           0       -2.187100    0.294000   -0.260600
      2          6           0        2.575300    0.394500    0.293200
      3          6           0        1.596800   -0.559400   -0.397400
      4          6           0       -2.737400    0.751000    1.091700
      5          6           0       -3.140800   -0.700500   -0.925100
      6          6           0        3.927000   -0.274600    0.524900
      7          6           0        0.278100    0.121200   -0.624700
      8          6           0       -0.841100   -0.351600   -0.064800
      9          1           0       -2.099300    1.186400   -0.920300
     10          1           0        2.157800    0.712500    1.273800
     11          1           0        2.725500    1.299300   -0.335900
     12          1           0        1.464800   -1.472300    0.226200
     13          1           0        2.007000   -0.869100   -1.382700
     14          1           0        3.809300   -1.167600    1.175100
     15          1           0        4.376400   -0.582000   -0.443400
     16          1           0        4.614600    0.440000    1.024600
     17          1           0       -2.857600   -0.112800    1.781100
     18          1           0       -3.724700    1.242300    0.956600
     19          1           0       -2.045300    1.486500    1.555300
     20          1           0       -3.272000   -1.604800   -0.291900
     21          1           0       -4.133600   -0.228800   -1.086900
     22          1           0       -2.739400   -1.010200   -1.914000
     23          1           0        0.245600    1.006100   -1.254700
 ---------------------------------------------------------------------
                    Distance matrix (angstroms):
                    1          2          3          4          5
     1  C    0.000000
     2  C    4.795545   0.000000
     3  C    3.881354   1.531116   0.000000
     4  C    1.529835   5.384188   4.766535   0.000000
     5  C    1.529750   5.946182   4.768986   2.517353   0.000000
     6  C    6.190520   1.525933   2.522217   6.766635   7.227564
     7  C    2.497927   2.488847   1.501283   3.526460   3.529066
     8  C    1.505607   3.515198   2.469243   2.479753   2.480014
     9  H    1.113234   4.894034   4.120970   2.155200   2.155258
    10  H    4.626844   1.112208   2.173789   4.898737   5.908205
    11  H    5.014971   1.112200   2.175434   5.672914   6.225740
    12  H    4.085727   2.173164   1.113412   4.832250   4.809648
    13  H    4.494706   2.174463   1.111303   5.590770   5.170848
    14  H    6.336744   2.177306   2.781694   6.822555   7.275501
    15  H    6.624223   2.177175   2.780072   7.398620   7.533550
    16  H    6.923596   2.166970   3.482528   7.358881   8.077642
    17  H    2.187143   5.655758   4.978654   1.111697   2.783723
    18  H    2.178316   6.391312   5.779083   1.111031   2.766985
    19  H    2.177075   4.912770   4.611251   1.111255   3.483601
    20  H    2.187105   6.207291   4.980884   2.783871   1.111717
    21  H    2.178291   6.877683   5.781193   2.766890   1.111005
    22  H    2.177086   5.923761   4.615834   3.483685   1.111287
    23  H    2.722747   2.863137   2.238637   3.803808   3.806419
                    6          7          8          9         10
     6  C    0.000000
     7  C    3.846129   0.000000
     8  C    4.805045   1.337773   0.000000
     9  H    6.367057   2.621843   2.163421   0.000000
    10  H    2.159927   2.736277   3.452182   4.812645   0.000000
    11  H    2.159106   2.731500   3.939493   4.861375   1.804924
    12  H    2.754294   2.161372   2.580276   4.591945   2.520132
    13  H    2.771059   2.131749   3.180619   4.615257   3.095350
    14  H    1.110884   4.167692   4.881540   6.696534   2.504390
    15  H    1.110883   4.162142   5.236290   6.729737   3.089772
    16  H    1.110472   4.650490   5.619438   7.029666   2.484396
    17  H    6.901812   3.959197   2.744202   3.092006   5.108102
    18  H    7.812545   4.447447   3.449482   2.483506   5.914821
    19  H    6.311225   3.466213   2.730098   2.494308   4.283033
    20  H    7.366288   3.961444   2.744332   3.092072   6.107702
    21  H    8.220296   4.449632   3.449685   2.483732   6.785327
    22  H    7.136542   3.470975   2.730721   2.494438   6.091989
    23  H    4.284842   1.086740   2.107161   2.375476   3.183712
                   11         12         13         14         15
    11  H    0.000000
    12  H    3.096302   0.000000
    13  H    2.512766   1.801774   0.000000
    14  H    3.089230   2.547535   3.143204   0.000000
    15  H    2.505258   3.117437   2.564911   1.812201   0.000000
    16  H    2.481543   3.770355   3.782646   1.804310   1.804507
    17  H    6.135692   4.790521   5.852004   6.776975   7.582830
    18  H    6.578669   5.901987   6.540850   7.913060   8.421157
    19  H    5.135388   4.779310   5.531892   6.439343   7.036457
    20  H    6.663763   4.766892   5.440491   7.244863   7.717972
    21  H    7.067273   5.883248   6.180975   8.311898   8.541601
    22  H    6.139163   4.740178   4.778127   7.242430   7.278779
    23  H    2.660839   3.134004   2.575905   4.829996   4.499309
                   16         17         18         19         20
    16  H    0.000000
    17  H    7.530714   0.000000
    18  H    8.378081   1.807750   0.000000
    19  H    6.762475   1.807921   1.799572   0.000000
    20  H    8.253050   2.587493   3.141603   3.804350   0.000000
    21  H    9.024230   3.141187   2.550927   3.779480   1.807693
    22  H    8.051072   3.804348   3.779539   4.330280   1.807877
    23  H    4.960226   4.483065   4.550705   3.657199   4.485230
                   21         22         23
    21  H    0.000000
    22  H    1.799576   0.000000
    23  H    4.553079   3.662017   0.000000
 Stoichiometry    C8H15(2)
 Framework group  C1[X(C8H15)]
 Deg. of freedom    63
 Full point group                 C1      NOp   1
 Largest Abelian subgroup         C1      NOp   1
 Largest concise Abelian subgroup C1      NOp   1
                         Standard orientation:                         
 ---------------------------------------------------------------------
 Center     Atomic      Atomic             Coordinates (Angstroms)
 Number     Number       Type             X           Y           Z
 ---------------------------------------------------------------------
      1          6           0        2.162440    0.063950    0.277905
      2          6           0       -2.619410    0.425608    0.296934
      3          6           0       -1.628716   -0.660624   -0.130784
      4          6           0        2.647026    1.445724   -0.165120
      5          6           0        3.125837   -1.025473   -0.196603
      6          6           0       -3.999160    0.182718   -0.307853
      7          6           0       -0.281849   -0.408482    0.482588
      8          6           0        0.791030   -0.194255   -0.287265
      9          1           0        2.135614    0.044679    1.390649
     10          1           0       -2.249949    1.420358   -0.036201
     11          1           0       -2.709923    0.436495    1.405391
     12          1           0       -1.556269   -0.681255   -1.241646
     13          1           0       -1.990408   -1.654136    0.211426
     14          1           0       -3.941969    0.194843   -1.417197
     15          1           0       -4.400877   -0.796851    0.028493
     16          1           0       -4.694982    0.983510    0.020340
     17          1           0        2.705257    1.506775   -1.273611
     18          1           0        3.652948    1.652374    0.258916
     19          1           0        1.949307    2.229211    0.201246
     20          1           0        3.197168   -1.033323   -1.306001
     21          1           0        4.138247   -0.851758    0.226696
     22          1           0        2.773133   -2.021639    0.147218
     23          1           0       -0.190490   -0.404278    1.565473
 ---------------------------------------------------------------------
 Rotational constants (GHZ):      5.4503496      0.6881650      0.6444803
 Standard basis: 6-311+G(2df,2p) (5D, 7F)
 There are   407 symmetry adapted basis functions of A   symmetry.
 Integral buffers will be    131072 words long.
 Raffenetti 2 integral format.
 Two-electron integral symmetry is turned on.
   407 basis functions,   581 primitive gaussians,   447 cartesian basis functions
    32 alpha electrons       31 beta electrons
       nuclear repulsion energy       352.8836066772 Hartrees.
 NAtoms=   23 NActive=   23 NUniq=   23 SFac= 1.00D+00 NAtFMM=   50 NAOKFM=F Big=F
 One-electron integrals computed using PRISM.
 NBasis=   407 RedAO= T  NBF=   407
 NBsUse=   407 1.00D-06 NBFU=   407
 Harris functional with IExCor= 1009 diagonalized for initial guess.
 ExpMin= 4.38D-02 ExpMax= 4.56D+03 ExpMxC= 6.82D+02 IAcc=2 IRadAn=         0 AccDes= 0.00D+00
 HarFok:  IExCor= 1009 AccDes= 0.00D+00 IRadAn=         0 IDoV= 1
 ScaDFX=  1.000000  1.000000  1.000000  1.000000
 FoFCou: FMM=F IPFlag=           0 FMFlag=      100000 FMFlg1=           0
         NFxFlg=           0 DoJE=T BraDBF=F KetDBF=T FulRan=T
         Omega=  0.000000  0.000000  1.000000  0.000000  0.000000 ICntrl=     500 IOpCl=  0
         NMat0=    1 NMatS0=    1 NMatT0=    0 NMatD0=    1 NMtDS0=    0 NMtDT0=    0
         I1Cent=           4 NGrid=           0.
 Petite list used in FoFCou.
 Initial guess orbital symmetries:
 Alpha Orbitals:
       Occupied  (A) (A) (A) (A) (A) (A) (A) (A) (A) (A) (A) (A)
                 (A) (A) (A) (A) (A) (A) (A) (A) (A) (A) (A) (A)
                 (A) (A) (A) (A) (A) (A) (A) (A)
       Virtual   (A) (A) (A) (A) (A) (A) (A) (A) (A) (A) (A) (A)
                 (A) (A) (A) (A) (A) (A) (A) (A) (A) (A) (A) (A)
                 (A) (A) (A) (A) (A) (A) (A) (A) (A) (A) (A) (A)
                 (A) (A) (A) (A) (A) (A) (A) (A) (A) (A) (A) (A)
                 (A) (A) (A) (A) (A) (A) (A) (A) (A) (A) (A) (A)
                 (A) (A) (A) (A) (A) (A) (A) (A) (A) (A) (A) (A)
                 (A) (A) (A) (A) (A) (A) (A) (A) (A) (A) (A) (A)
                 (A) (A) (A) (A) (A) (A) (A) (A) (A) (A) (A) (A)
                 (A) (A) (A) (A) (A) (A) (A) (A) (A) (A) (A) (A)
                 (A) (A) (A) (A) (A) (A) (A) (A) (A) (A) (A) (A)
                 (A) (A) (A) (A) (A) (A) (A) (A) (A) (A) (A) (A)
                 (A) (A) (A) (A) (A) (A) (A) (A) (A) (A) (A) (A)
                 (A) (A) (A) (A) (A) (A) (A) (A) (A) (A) (A) (A)
                 (A) (A) (A) (A) (A) (A) (A) (A) (A) (A) (A) (A)
                 (A) (A) (A) (A) (A) (A) (A) (A) (A) (A) (A) (A)
                 (A) (A) (A) (A) (A) (A) (A) (A) (A) (A) (A) (A)
                 (A) (A) (A) (A) (A) (A) (A) (A) (A) (A) (A) (A)
                 (A) (A) (A) (A) (A) (A) (A) (A) (A) (A) (A) (A)
                 (A) (A) (A) (A) (A) (A) (A) (A) (A) (A) (A) (A)
                 (A) (A) (A) (A) (A) (A) (A) (A) (A) (A) (A) (A)
                 (A) (A) (A) (A) (A) (A) (A) (A) (A) (A) (A) (A)
                 (A) (A) (A) (A) (A) (A) (A) (A) (A) (A) (A) (A)
                 (A) (A) (A) (A) (A) (A) (A) (A) (A) (A) (A) (A)
                 (A) (A) (A) (A) (A) (A) (A) (A) (A) (A) (A) (A)
                 (A) (A) (A) (A) (A) (A) (A) (A) (A) (A) (A) (A)
                 (A) (A) (A) (A) (A) (A) (A) (A) (A) (A) (A) (A)
                 (A) (A) (A) (A) (A) (A) (A) (A) (A) (A) (A) (A)
                 (A) (A) (A) (A) (A) (A) (A) (A) (A) (A) (A) (A)
                 (A) (A) (A) (A) (A) (A) (A) (A) (A) (A) (A) (A)
                 (A) (A) (A) (A) (A) (A) (A) (A) (A) (A) (A) (A)
                 (A) (A) (A) (A) (A) (A) (A) (A) (A) (A) (A) (A)
                 (A) (A) (A)
 Beta  Orbitals:
       Occupied  (A) (A) (A) (A) (A) (A) (A) (A) (A) (A) (A) (A)
                 (A) (A) (A) (A) (A) (A) (A) (A) (A) (A) (A) (A)
                 (A) (A) (A) (A) (A) (A) (A)
       Virtual   (A) (A) (A) (A) (A) (A) (A) (A) (A) (A) (A) (A)
                 (A) (A) (A) (A) (A) (A) (A) (A) (A) (A) (A) (A)
                 (A) (A) (A) (A) (A) (A) (A) (A) (A) (A) (A) (A)
                 (A) (A) (A) (A) (A) (A) (A) (A) (A) (A) (A) (A)
                 (A) (A) (A) (A) (A) (A) (A) (A) (A) (A) (A) (A)
                 (A) (A) (A) (A) (A) (A) (A) (A) (A) (A) (A) (A)
                 (A) (A) (A) (A) (A) (A) (A) (A) (A) (A) (A) (A)
                 (A) (A) (A) (A) (A) (A) (A) (A) (A) (A) (A) (A)
                 (A) (A) (A) (A) (A) (A) (A) (A) (A) (A) (A) (A)
                 (A) (A) (A) (A) (A) (A) (A) (A) (A) (A) (A) (A)
                 (A) (A) (A) (A) (A) (A) (A) (A) (A) (A) (A) (A)
                 (A) (A) (A) (A) (A) (A) (A) (A) (A) (A) (A) (A)
                 (A) (A) (A) (A) (A) (A) (A) (A) (A) (A) (A) (A)
                 (A) (A) (A) (A) (A) (A) (A) (A) (A) (A) (A) (A)
                 (A) (A) (A) (A) (A) (A) (A) (A) (A) (A) (A) (A)
                 (A) (A) (A) (A) (A) (A) (A) (A) (A) (A) (A) (A)
                 (A) (A) (A) (A) (A) (A) (A) (A) (A) (A) (A) (A)
                 (A) (A) (A) (A) (A) (A) (A) (A) (A) (A) (A) (A)
                 (A) (A) (A) (A) (A) (A) (A) (A) (A) (A) (A) (A)
                 (A) (A) (A) (A) (A) (A) (A) (A) (A) (A) (A) (A)
                 (A) (A) (A) (A) (A) (A) (A) (A) (A) (A) (A) (A)
                 (A) (A) (A) (A) (A) (A) (A) (A) (A) (A) (A) (A)
                 (A) (A) (A) (A) (A) (A) (A) (A) (A) (A) (A) (A)
                 (A) (A) (A) (A) (A) (A) (A) (A) (A) (A) (A) (A)
                 (A) (A) (A) (A) (A) (A) (A) (A) (A) (A) (A) (A)
                 (A) (A) (A) (A) (A) (A) (A) (A) (A) (A) (A) (A)
                 (A) (A) (A) (A) (A) (A) (A) (A) (A) (A) (A) (A)
                 (A) (A) (A) (A) (A) (A) (A) (A) (A) (A) (A) (A)
                 (A) (A) (A) (A) (A) (A) (A) (A) (A) (A) (A) (A)
                 (A) (A) (A) (A) (A) (A) (A) (A) (A) (A) (A) (A)
                 (A) (A) (A) (A) (A) (A) (A) (A) (A) (A) (A) (A)
                 (A) (A) (A) (A)
 The electronic state of the initial guess is 2-A.
 Initial guess <Sx>= 0.0000 <Sy>= 0.0000 <Sz>= 0.5000 <S**2>= 0.7500 S= 0.5000
 Requested convergence on RMS density matrix=1.00D-08 within 128 cycles.
 Requested convergence on MAX density matrix=1.00D-06.
 Requested convergence on             energy=1.00D-06.
 No special actions if energy rises.
 SCF Done:  E(UM062X) =  -313.720843292     A.U. after   15 cycles
             Convg  =    0.8839D-08             -V/T =  2.0057
 <Sx>= 0.0000 <Sy>= 0.0000 <Sz>= 0.5000 <S**2>= 0.7665 S= 0.5082
 <L.S>= 0.000000000000E+00
 Annihilation of the first spin contaminant:
 S**2 before annihilation     0.7665,   after     0.7501

 **********************************************************************

            Population analysis using the SCF density.

 **********************************************************************

 Orbital symmetries:
 Alpha Orbitals:
       Occupied  (A) (A) (A) (A) (A) (A) (A) (A) (A) (A) (A) (A)
                 (A) (A) (A) (A) (A) (A) (A) (A) (A) (A) (A) (A)
                 (A) (A) (A) (A) (A) (A) (A) (A)
       Virtual   (A) (A) (A) (A) (A) (A) (A) (A) (A) (A) (A) (A)
                 (A) (A) (A) (A) (A) (A) (A) (A) (A) (A) (A) (A)
                 (A) (A) (A) (A) (A) (A) (A) (A) (A) (A) (A) (A)
                 (A) (A) (A) (A) (A) (A) (A) (A) (A) (A) (A) (A)
                 (A) (A) (A) (A) (A) (A) (A) (A) (A) (A) (A) (A)
                 (A) (A) (A) (A) (A) (A) (A) (A) (A) (A) (A) (A)
                 (A) (A) (A) (A) (A) (A) (A) (A) (A) (A) (A) (A)
                 (A) (A) (A) (A) (A) (A) (A) (A) (A) (A) (A) (A)
                 (A) (A) (A) (A) (A) (A) (A) (A) (A) (A) (A) (A)
                 (A) (A) (A) (A) (A) (A) (A) (A) (A) (A) (A) (A)
                 (A) (A) (A) (A) (A) (A) (A) (A) (A) (A) (A) (A)
                 (A) (A) (A) (A) (A) (A) (A) (A) (A) (A) (A) (A)
                 (A) (A) (A) (A) (A) (A) (A) (A) (A) (A) (A) (A)
                 (A) (A) (A) (A) (A) (A) (A) (A) (A) (A) (A) (A)
                 (A) (A) (A) (A) (A) (A) (A) (A) (A) (A) (A) (A)
                 (A) (A) (A) (A) (A) (A) (A) (A) (A) (A) (A) (A)
                 (A) (A) (A) (A) (A) (A) (A) (A) (A) (A) (A) (A)
                 (A) (A) (A) (A) (A) (A) (A) (A) (A) (A) (A) (A)
                 (A) (A) (A) (A) (A) (A) (A) (A) (A) (A) (A) (A)
                 (A) (A) (A) (A) (A) (A) (A) (A) (A) (A) (A) (A)
                 (A) (A) (A) (A) (A) (A) (A) (A) (A) (A) (A) (A)
                 (A) (A) (A) (A) (A) (A) (A) (A) (A) (A) (A) (A)
                 (A) (A) (A) (A) (A) (A) (A) (A) (A) (A) (A) (A)
                 (A) (A) (A) (A) (A) (A) (A) (A) (A) (A) (A) (A)
                 (A) (A) (A) (A) (A) (A) (A) (A) (A) (A) (A) (A)
                 (A) (A) (A) (A) (A) (A) (A) (A) (A) (A) (A) (A)
                 (A) (A) (A) (A) (A) (A) (A) (A) (A) (A) (A) (A)
                 (A) (A) (A) (A) (A) (A) (A) (A) (A) (A) (A) (A)
                 (A) (A) (A) (A) (A) (A) (A) (A) (A) (A) (A) (A)
                 (A) (A) (A) (A) (A) (A) (A) (A) (A) (A) (A) (A)
                 (A) (A) (A) (A) (A) (A) (A) (A) (A) (A) (A) (A)
                 (A) (A) (A)
 Beta  Orbitals:
       Occupied  (A) (A) (A) (A) (A) (A) (A) (A) (A) (A) (A) (A)
                 (A) (A) (A) (A) (A) (A) (A) (A) (A) (A) (A) (A)
                 (A) (A) (A) (A) (A) (A) (A)
       Virtual   (A) (A) (A) (A) (A) (A) (A) (A) (A) (A) (A) (A)
                 (A) (A) (A) (A) (A) (A) (A) (A) (A) (A) (A) (A)
                 (A) (A) (A) (A) (A) (A) (A) (A) (A) (A) (A) (A)
                 (A) (A) (A) (A) (A) (A) (A) (A) (A) (A) (A) (A)
                 (A) (A) (A) (A) (A) (A) (A) (A) (A) (A) (A) (A)
                 (A) (A) (A) (A) (A) (A) (A) (A) (A) (A) (A) (A)
                 (A) (A) (A) (A) (A) (A) (A) (A) (A) (A) (A) (A)
                 (A) (A) (A) (A) (A) (A) (A) (A) (A) (A) (A) (A)
                 (A) (A) (A) (A) (A) (A) (A) (A) (A) (A) (A) (A)
                 (A) (A) (A) (A) (A) (A) (A) (A) (A) (A) (A) (A)
                 (A) (A) (A) (A) (A) (A) (A) (A) (A) (A) (A) (A)
                 (A) (A) (A) (A) (A) (A) (A) (A) (A) (A) (A) (A)
                 (A) (A) (A) (A) (A) (A) (A) (A) (A) (A) (A) (A)
                 (A) (A) (A) (A) (A) (A) (A) (A) (A) (A) (A) (A)
                 (A) (A) (A) (A) (A) (A) (A) (A) (A) (A) (A) (A)
                 (A) (A) (A) (A) (A) (A) (A) (A) (A) (A) (A) (A)
                 (A) (A) (A) (A) (A) (A) (A) (A) (A) (A) (A) (A)
                 (A) (A) (A) (A) (A) (A) (A) (A) (A) (A) (A) (A)
                 (A) (A) (A) (A) (A) (A) (A) (A) (A) (A) (A) (A)
                 (A) (A) (A) (A) (A) (A) (A) (A) (A) (A) (A) (A)
                 (A) (A) (A) (A) (A) (A) (A) (A) (A) (A) (A) (A)
                 (A) (A) (A) (A) (A) (A) (A) (A) (A) (A) (A) (A)
                 (A) (A) (A) (A) (A) (A) (A) (A) (A) (A) (A) (A)
                 (A) (A) (A) (A) (A) (A) (A) (A) (A) (A) (A) (A)
                 (A) (A) (A) (A) (A) (A) (A) (A) (A) (A) (A) (A)
                 (A) (A) (A) (A) (A) (A) (A) (A) (A) (A) (A) (A)
                 (A) (A) (A) (A) (A) (A) (A) (A) (A) (A) (A) (A)
                 (A) (A) (A) (A) (A) (A) (A) (A) (A) (A) (A) (A)
                 (A) (A) (A) (A) (A) (A) (A) (A) (A) (A) (A) (A)
                 (A) (A) (A) (A) (A) (A) (A) (A) (A) (A) (A) (A)
                 (A) (A) (A) (A) (A) (A) (A) (A) (A) (A) (A) (A)
                 (A) (A) (A) (A)
 The electronic state is 2-A.
 Alpha  occ. eigenvalues --  -10.55956 -10.55175 -10.53525 -10.53406 -10.53248
 Alpha  occ. eigenvalues --  -10.52855 -10.52842 -10.52561  -0.92559  -0.89297
 Alpha  occ. eigenvalues --   -0.83671  -0.77041  -0.75907  -0.67747  -0.64858
 Alpha  occ. eigenvalues --   -0.60591  -0.55035  -0.52227  -0.51184  -0.49047
 Alpha  occ. eigenvalues --   -0.47878  -0.46572  -0.44633  -0.43938  -0.42110
 Alpha  occ. eigenvalues --   -0.40972  -0.40240  -0.39717  -0.38912  -0.37467
 Alpha  occ. eigenvalues --   -0.30686  -0.30460
 Alpha virt. eigenvalues --    0.01651   0.02298   0.03217   0.03332   0.03779
 Alpha virt. eigenvalues --    0.04104   0.04750   0.05003   0.06510   0.06724
 Alpha virt. eigenvalues --    0.07363   0.07765   0.07974   0.08186   0.08747
 Alpha virt. eigenvalues --    0.09672   0.10143   0.11096   0.11703   0.12417
 Alpha virt. eigenvalues --    0.12682   0.14033   0.14676   0.15602   0.16244
 Alpha virt. eigenvalues --    0.16942   0.17194   0.18601   0.19152   0.19871
 Alpha virt. eigenvalues --    0.20338   0.20420   0.21426   0.22616   0.23016
 Alpha virt. eigenvalues --    0.23226   0.23742   0.24365   0.25298   0.25562
 Alpha virt. eigenvalues --    0.25725   0.26443   0.26680   0.28012   0.28321
 Alpha virt. eigenvalues --    0.28633   0.29698   0.30155   0.30930   0.31430
 Alpha virt. eigenvalues --    0.32484   0.33495   0.35075   0.38327   0.41893
 Alpha virt. eigenvalues --    0.42509   0.43231   0.43966   0.45059   0.46242
 Alpha virt. eigenvalues --    0.47785   0.48081   0.49020   0.49778   0.50552
 Alpha virt. eigenvalues --    0.51504   0.52227   0.53031   0.54052   0.54917
 Alpha virt. eigenvalues --    0.55779   0.56064   0.56684   0.57855   0.58909
 Alpha virt. eigenvalues --    0.59816   0.60303   0.61146   0.61777   0.61789
 Alpha virt. eigenvalues --    0.62832   0.63580   0.64104   0.65815   0.66238
 Alpha virt. eigenvalues --    0.66965   0.67743   0.68025   0.68594   0.69017
 Alpha virt. eigenvalues --    0.70527   0.71149   0.71293   0.72662   0.74226
 Alpha virt. eigenvalues --    0.74405   0.75506   0.77924   0.79033   0.80781
 Alpha virt. eigenvalues --    0.81145   0.82038   0.82643   0.84245   0.85501
 Alpha virt. eigenvalues --    0.88022   0.88573   0.90214   0.91367   0.92018
 Alpha virt. eigenvalues --    0.94442   0.96448   0.96969   0.98374   0.99449
 Alpha virt. eigenvalues --    1.02316   1.03275   1.04624   1.05238   1.07692
 Alpha virt. eigenvalues --    1.08217   1.08985   1.10432   1.11459   1.13441
 Alpha virt. eigenvalues --    1.14751   1.15125   1.15810   1.17552   1.17573
 Alpha virt. eigenvalues --    1.18640   1.19128   1.20301   1.21085   1.23303
 Alpha virt. eigenvalues --    1.23900   1.24828   1.26028   1.27018   1.28011
 Alpha virt. eigenvalues --    1.29828   1.29943   1.31132   1.31404   1.31691
 Alpha virt. eigenvalues --    1.32383   1.35227   1.36029   1.36230   1.37630
 Alpha virt. eigenvalues --    1.39100   1.39792   1.41531   1.42608   1.43239
 Alpha virt. eigenvalues --    1.44011   1.45355   1.45905   1.46149   1.47179
 Alpha virt. eigenvalues --    1.48680   1.49768   1.51414   1.52570   1.52844
 Alpha virt. eigenvalues --    1.55002   1.55519   1.56266   1.57737   1.58041
 Alpha virt. eigenvalues --    1.59469   1.60762   1.61236   1.61503   1.62268
 Alpha virt. eigenvalues --    1.63294   1.64252   1.65097   1.66717   1.67563
 Alpha virt. eigenvalues --    1.69182   1.72507   1.73442   1.75408   1.80380
 Alpha virt. eigenvalues --    1.85310   1.89384   2.40744   2.41368   2.46970
 Alpha virt. eigenvalues --    2.49325   2.51576   2.54101   2.55800   2.58285
 Alpha virt. eigenvalues --    2.59878   2.60008   2.60776   2.63032   2.65082
 Alpha virt. eigenvalues --    2.65965   2.70189   2.70413   2.73409   2.74174
 Alpha virt. eigenvalues --    2.77419   2.78984   2.80502   2.81134   2.83469
 Alpha virt. eigenvalues --    2.85320   2.85667   2.86857   2.87657   2.88820
 Alpha virt. eigenvalues --    2.90341   2.92095   2.93811   2.94861   2.96201
 Alpha virt. eigenvalues --    2.97832   2.98108   2.98420   2.98774   2.99468
 Alpha virt. eigenvalues --    3.01352   3.02177   3.05346   3.06976   3.09563
 Alpha virt. eigenvalues --    3.10506   3.12838   3.13933   3.15011   3.18319
 Alpha virt. eigenvalues --    3.18663   3.19689   3.21729   3.22926   3.24043
 Alpha virt. eigenvalues --    3.25872   3.27157   3.29434   3.30393   3.30811
 Alpha virt. eigenvalues --    3.32123   3.33052   3.33376   3.35055   3.35569
 Alpha virt. eigenvalues --    3.36863   3.37744   3.39003   3.40044   3.40794
 Alpha virt. eigenvalues --    3.41979   3.43005   3.44936   3.46576   3.48616
 Alpha virt. eigenvalues --    3.48829   3.51394   3.54792   3.55794   3.56350
 Alpha virt. eigenvalues --    3.58765   3.58965   3.61326   3.63098   3.63824
 Alpha virt. eigenvalues --    3.64900   3.65646   3.66413   3.67338   3.72071
 Alpha virt. eigenvalues --    3.72931   3.73658   3.74344   3.77001   3.78244
 Alpha virt. eigenvalues --    3.78879   3.80734   3.82766   3.85426   3.85691
 Alpha virt. eigenvalues --    3.86393   3.89476   3.89688   3.91331   3.93227
 Alpha virt. eigenvalues --    3.95037   3.95602   3.96928   3.97327   3.97719
 Alpha virt. eigenvalues --    3.99269   4.00573   4.01338   4.05013   4.05699
 Alpha virt. eigenvalues --    4.07355   4.08861   4.10699   4.11553   4.15541
 Alpha virt. eigenvalues --    4.16478   4.17733   4.18678   4.19315   4.20327
 Alpha virt. eigenvalues --    4.21137   4.21611   4.22314   4.23248   4.24078
 Alpha virt. eigenvalues --    4.26475   4.28051   4.31292   4.33670   4.34245
 Alpha virt. eigenvalues --    4.34579   4.38534   4.40184   4.40588   4.42270
 Alpha virt. eigenvalues --    4.43629   4.44614   4.46528   4.47055   4.50062
 Alpha virt. eigenvalues --    4.50128   4.52014   4.54525   4.55708   4.56790
 Alpha virt. eigenvalues --    4.57799   4.59252   4.61200   4.63634   4.65262
 Alpha virt. eigenvalues --    4.67327   4.71092   4.72008   4.74431   4.77707
 Alpha virt. eigenvalues --    4.80950   4.81849   4.87025   5.02638   5.09867
 Alpha virt. eigenvalues --    5.21678   5.26422   5.33673   5.35101   5.37783
 Alpha virt. eigenvalues --    5.44955   5.47710   5.50917   5.53750   5.55041
 Alpha virt. eigenvalues --    5.56508   5.57090   5.57355   5.58420   5.59325
 Alpha virt. eigenvalues --    5.61477   5.80577  24.00622  24.23168  24.26325
 Alpha virt. eigenvalues --   24.31556  24.34771  24.43373  24.44779  24.82453
  Beta  occ. eigenvalues --  -10.55134 -10.54966 -10.53487 -10.53445 -10.53257
  Beta  occ. eigenvalues --  -10.52844 -10.52832 -10.52562  -0.91512  -0.89151
  Beta  occ. eigenvalues --   -0.83120  -0.76983  -0.75159  -0.67515  -0.64700
  Beta  occ. eigenvalues --   -0.58256  -0.54494  -0.51997  -0.50582  -0.48933
  Beta  occ. eigenvalues --   -0.47550  -0.46478  -0.44601  -0.43496  -0.41830
  Beta  occ. eigenvalues --   -0.40262  -0.40056  -0.39665  -0.38864  -0.36922
  Beta  occ. eigenvalues --   -0.29231
  Beta virt. eigenvalues --   -0.06860   0.01686   0.02223   0.02883   0.03226
  Beta virt. eigenvalues --    0.04155   0.04282   0.04903   0.04970   0.06381
  Beta virt. eigenvalues --    0.06534   0.07133   0.07501   0.07973   0.08369
  Beta virt. eigenvalues --    0.08881   0.09442   0.10040   0.10602   0.11137
  Beta virt. eigenvalues --    0.11649   0.12086   0.13294   0.14486   0.15223
  Beta virt. eigenvalues --    0.15670   0.16292   0.16815   0.18508   0.19299
  Beta virt. eigenvalues --    0.19705   0.20240   0.20366   0.21170   0.22648
  Beta virt. eigenvalues --    0.22778   0.23068   0.23592   0.23981   0.25175
  Beta virt. eigenvalues --    0.25466   0.25810   0.26117   0.26639   0.27963
  Beta virt. eigenvalues --    0.28402   0.28502   0.29804   0.30081   0.30974
  Beta virt. eigenvalues --    0.31369   0.31954   0.33478   0.34959   0.37777
  Beta virt. eigenvalues --    0.41844   0.42489   0.43519   0.44239   0.44977
  Beta virt. eigenvalues --    0.45911   0.47725   0.48238   0.49108   0.49530
  Beta virt. eigenvalues --    0.50617   0.51495   0.52126   0.52830   0.53539
  Beta virt. eigenvalues --    0.54080   0.55829   0.56109   0.56591   0.57667
  Beta virt. eigenvalues --    0.58736   0.58864   0.60064   0.60811   0.61456
  Beta virt. eigenvalues --    0.61858   0.63139   0.63406   0.63584   0.65581
  Beta virt. eigenvalues --    0.66402   0.66836   0.67442   0.68325   0.68527
  Beta virt. eigenvalues --    0.68887   0.70467   0.70865   0.71286   0.72650
  Beta virt. eigenvalues --    0.74093   0.74386   0.75566   0.77818   0.79072
  Beta virt. eigenvalues --    0.80679   0.81274   0.82053   0.82538   0.83722
  Beta virt. eigenvalues --    0.85372   0.87985   0.88530   0.90527   0.91529
  Beta virt. eigenvalues --    0.91975   0.94503   0.96258   0.96717   0.98212
  Beta virt. eigenvalues --    0.99039   1.02328   1.03265   1.04449   1.04991
  Beta virt. eigenvalues --    1.07172   1.08396   1.08707   1.10084   1.11510
  Beta virt. eigenvalues --    1.13373   1.14643   1.15052   1.15674   1.17381
  Beta virt. eigenvalues --    1.17475   1.18502   1.19088   1.20313   1.21080
  Beta virt. eigenvalues --    1.23246   1.23914   1.24779   1.25720   1.26933
  Beta virt. eigenvalues --    1.28046   1.29732   1.29883   1.31192   1.31316
  Beta virt. eigenvalues --    1.31908   1.32361   1.35270   1.35969   1.36296
  Beta virt. eigenvalues --    1.37617   1.39127   1.39692   1.41225   1.42604
  Beta virt. eigenvalues --    1.43213   1.43924   1.45291   1.45738   1.45952
  Beta virt. eigenvalues --    1.47051   1.48491   1.49652   1.51144   1.52344
  Beta virt. eigenvalues --    1.52599   1.54807   1.55096   1.55932   1.57548
  Beta virt. eigenvalues --    1.57947   1.59101   1.60648   1.61048   1.61626
  Beta virt. eigenvalues --    1.62340   1.63134   1.64178   1.64955   1.66867
  Beta virt. eigenvalues --    1.67444   1.69074   1.72431   1.73141   1.75647
  Beta virt. eigenvalues --    1.79647   1.84608   1.88821   2.40719   2.41427
  Beta virt. eigenvalues --    2.46976   2.49742   2.51819   2.54244   2.55846
  Beta virt. eigenvalues --    2.58366   2.60056   2.60287   2.60950   2.63094
  Beta virt. eigenvalues --    2.65201   2.66359   2.70348   2.70775   2.73727
  Beta virt. eigenvalues --    2.74238   2.77886   2.79498   2.80868   2.81341
  Beta virt. eigenvalues --    2.84274   2.85682   2.85985   2.87652   2.87736
  Beta virt. eigenvalues --    2.88895   2.90568   2.92336   2.94082   2.94979
  Beta virt. eigenvalues --    2.96626   2.97776   2.98429   2.98591   2.99083
  Beta virt. eigenvalues --    2.99627   3.01750   3.02397   3.05729   3.07261
  Beta virt. eigenvalues --    3.09773   3.10553   3.12886   3.14228   3.15088
  Beta virt. eigenvalues --    3.18469   3.18569   3.20157   3.21742   3.23330
  Beta virt. eigenvalues --    3.24277   3.25861   3.27605   3.29798   3.30482
  Beta virt. eigenvalues --    3.30857   3.32487   3.33065   3.33592   3.35030
  Beta virt. eigenvalues --    3.35816   3.37115   3.37889   3.39097   3.40415
  Beta virt. eigenvalues --    3.40774   3.42638   3.44612   3.46733   3.48273
  Beta virt. eigenvalues --    3.49046   3.49655   3.51946   3.55096   3.56548
  Beta virt. eigenvalues --    3.57390   3.58775   3.60006   3.61476   3.63683
  Beta virt. eigenvalues --    3.64745   3.65657   3.66203   3.67043   3.69529
  Beta virt. eigenvalues --    3.72430   3.73131   3.73825   3.74383   3.77271
  Beta virt. eigenvalues --    3.78348   3.79325   3.80794   3.82855   3.85630
  Beta virt. eigenvalues --    3.86252   3.86842   3.89541   3.89706   3.91450
  Beta virt. eigenvalues --    3.93473   3.95061   3.95880   3.97065   3.97369
  Beta virt. eigenvalues --    3.98087   3.99293   4.00616   4.01556   4.05172
  Beta virt. eigenvalues --    4.05913   4.07563   4.08863   4.10653   4.11614
  Beta virt. eigenvalues --    4.15496   4.16574   4.17819   4.18651   4.19463
  Beta virt. eigenvalues --    4.20425   4.21142   4.21659   4.22319   4.23307
  Beta virt. eigenvalues --    4.23948   4.26152   4.28026   4.31593   4.33656
  Beta virt. eigenvalues --    4.34411   4.34751   4.38583   4.40267   4.40726
  Beta virt. eigenvalues --    4.42565   4.43818   4.44953   4.46746   4.47131
  Beta virt. eigenvalues --    4.50158   4.50248   4.52128   4.54614   4.55980
  Beta virt. eigenvalues --    4.56891   4.57895   4.59349   4.61524   4.64128
  Beta virt. eigenvalues --    4.65529   4.67476   4.71889   4.72380   4.74508
  Beta virt. eigenvalues --    4.77874   4.81844   4.82723   4.87308   5.04653
  Beta virt. eigenvalues --    5.10636   5.23198   5.26447   5.34449   5.35146
  Beta virt. eigenvalues --    5.37918   5.45103   5.47694   5.50911   5.53730
  Beta virt. eigenvalues --    5.54616   5.56498   5.57087   5.57403   5.58370
  Beta virt. eigenvalues --    5.59376   5.61664   5.82562  24.01249  24.23211
  Beta virt. eigenvalues --   24.26390  24.31563  24.34797  24.43430  24.44846
  Beta virt. eigenvalues --   24.83204
          Condensed to atoms (all electrons):
              1          2          3          4          5          6
     1  C    5.751905   0.035307  -0.269297   0.140703   0.218654  -0.005343
     2  C    0.035307   5.649567  -0.469106  -0.006883   0.004147  -0.073847
     3  C   -0.269297  -0.469106   6.253151   0.009497  -0.022375   0.258963
     4  C    0.140703  -0.006883   0.009497   5.392198  -0.199811  -0.002029
     5  C    0.218654   0.004147  -0.022375  -0.199811   5.338869   0.000117
     6  C   -0.005343  -0.073847   0.258963  -0.002029   0.000117   5.424593
     7  C    0.336791   0.351257  -0.701701   0.054554   0.043628  -0.200132
     8  C   -0.687957   0.066839   0.255719  -0.040861  -0.049753   0.022685
     9  H    0.455050  -0.000769   0.015190  -0.031504  -0.032622   0.000432
    10  H    0.001026   0.452495  -0.041214  -0.000250   0.000069  -0.044839
    11  H   -0.002264   0.436174  -0.020411  -0.000310  -0.000022  -0.024345
    12  H   -0.000901  -0.032164   0.464968  -0.000797  -0.000255  -0.000166
    13  H    0.001492  -0.054189   0.487754  -0.001156   0.001899  -0.012762
    14  H   -0.000235  -0.010806  -0.023937  -0.000054   0.000023   0.409548
    15  H    0.000105   0.000105  -0.025337   0.000013  -0.000030   0.394691
    16  H    0.000019  -0.053261   0.025680   0.000041   0.000002   0.403981
    17  H    0.032646   0.000339  -0.001708   0.403551  -0.010477   0.000096
    18  H   -0.103675  -0.000029   0.001602   0.405940   0.002164   0.000002
    19  H   -0.002701  -0.000815  -0.000690   0.398007   0.018598  -0.000171
    20  H    0.026868   0.000115  -0.003044  -0.005831   0.405636  -0.000010
    21  H   -0.114538  -0.000147   0.003539   0.000957   0.408264   0.000011
    22  H    0.002063   0.000060  -0.000052   0.017969   0.392604  -0.000004
    23  H   -0.044270  -0.019552   0.100154   0.001921  -0.001214   0.006591
              7          8          9         10         11         12
     1  C    0.336791  -0.687957   0.455050   0.001026  -0.002264  -0.000901
     2  C    0.351257   0.066839  -0.000769   0.452495   0.436174  -0.032164
     3  C   -0.701701   0.255719   0.015190  -0.041214  -0.020411   0.464968
     4  C    0.054554  -0.040861  -0.031504  -0.000250  -0.000310  -0.000797
     5  C    0.043628  -0.049753  -0.032622   0.000069  -0.000022  -0.000255
     6  C   -0.200132   0.022685   0.000432  -0.044839  -0.024345  -0.000166
     7  C    6.091029  -0.071499  -0.020201  -0.015211  -0.043643  -0.079470
     8  C   -0.071499   6.741350  -0.040901   0.003581   0.009589   0.019815
     9  H   -0.020201  -0.040901   0.511389   0.000010  -0.000020  -0.000014
    10  H   -0.015211   0.003581   0.000010   0.522015  -0.030095  -0.005114
    11  H   -0.043643   0.009589  -0.000020  -0.030095   0.534584   0.004671
    12  H   -0.079470   0.019815  -0.000014  -0.005114   0.004671   0.513125
    13  H   -0.044175  -0.020768  -0.000004   0.004886  -0.006215  -0.028555
    14  H   -0.001433  -0.001373   0.000000  -0.007318   0.005824   0.001909
    15  H   -0.002571   0.001982   0.000000   0.006049  -0.007454  -0.000302
    16  H    0.003852  -0.000475   0.000000  -0.005139  -0.004894  -0.000046
    17  H    0.010623  -0.060522   0.005083   0.000006  -0.000001  -0.000025
    18  H   -0.006113   0.075170  -0.004155   0.000000   0.000000   0.000004
    19  H    0.011578  -0.039513  -0.005904  -0.000024   0.000009   0.000001
    20  H    0.013013  -0.061345   0.005242   0.000000   0.000000  -0.000002
    21  H   -0.006442   0.082939  -0.004108   0.000000   0.000000   0.000000
    22  H    0.009399  -0.037822  -0.006293   0.000000   0.000000  -0.000009
    23  H    0.208832   0.106582   0.005657   0.000241   0.000757   0.002700
             13         14         15         16         17         18
     1  C    0.001492  -0.000235   0.000105   0.000019   0.032646  -0.103675
     2  C   -0.054189  -0.010806   0.000105  -0.053261   0.000339  -0.000029
     3  C    0.487754  -0.023937  -0.025337   0.025680  -0.001708   0.001602
     4  C   -0.001156  -0.000054   0.000013   0.000041   0.403551   0.405940
     5  C    0.001899   0.000023  -0.000030   0.000002  -0.010477   0.002164
     6  C   -0.012762   0.409548   0.394691   0.403981   0.000096   0.000002
     7  C   -0.044175  -0.001433  -0.002571   0.003852   0.010623  -0.006113
     8  C   -0.020768  -0.001373   0.001982  -0.000475  -0.060522   0.075170
     9  H   -0.000004   0.000000   0.000000   0.000000   0.005083  -0.004155
    10  H    0.004886  -0.007318   0.006049  -0.005139   0.000006   0.000000
    11  H   -0.006215   0.005824  -0.007454  -0.004894  -0.000001   0.000000
    12  H   -0.028555   0.001909  -0.000302  -0.000046  -0.000025   0.000004
    13  H    0.518154  -0.000364   0.002279  -0.000114   0.000001   0.000001
    14  H   -0.000364   0.551431  -0.033518  -0.024103   0.000000   0.000000
    15  H    0.002279  -0.033518   0.556041  -0.024577   0.000000   0.000000
    16  H   -0.000114  -0.024103  -0.024577   0.547011   0.000000   0.000000
    17  H    0.000001   0.000000   0.000000   0.000000   0.521110  -0.026671
    18  H    0.000001   0.000000   0.000000   0.000000  -0.026671   0.538053
    19  H    0.000000   0.000000   0.000000   0.000000  -0.026388  -0.021806
    20  H    0.000001   0.000000   0.000000   0.000000   0.001271  -0.000148
    21  H   -0.000004   0.000000   0.000000   0.000000  -0.000136   0.000897
    22  H   -0.000002   0.000000   0.000000   0.000000  -0.000173   0.000140
    23  H   -0.003579  -0.000029  -0.000014   0.000015   0.000026  -0.000023
             19         20         21         22         23
     1  C   -0.002701   0.026868  -0.114538   0.002063  -0.044270
     2  C   -0.000815   0.000115  -0.000147   0.000060  -0.019552
     3  C   -0.000690  -0.003044   0.003539  -0.000052   0.100154
     4  C    0.398007  -0.005831   0.000957   0.017969   0.001921
     5  C    0.018598   0.405636   0.408264   0.392604  -0.001214
     6  C   -0.000171  -0.000010   0.000011  -0.000004   0.006591
     7  C    0.011578   0.013013  -0.006442   0.009399   0.208832
     8  C   -0.039513  -0.061345   0.082939  -0.037822   0.106582
     9  H   -0.005904   0.005242  -0.004108  -0.006293   0.005657
    10  H   -0.000024   0.000000   0.000000   0.000000   0.000241
    11  H    0.000009   0.000000   0.000000   0.000000   0.000757
    12  H    0.000001  -0.000002   0.000000  -0.000009   0.002700
    13  H    0.000000   0.000001  -0.000004  -0.000002  -0.003579
    14  H    0.000000   0.000000   0.000000   0.000000  -0.000029
    15  H    0.000000   0.000000   0.000000   0.000000  -0.000014
    16  H    0.000000   0.000000   0.000000   0.000000   0.000015
    17  H   -0.026388   0.001271  -0.000136  -0.000173   0.000026
    18  H   -0.021806  -0.000148   0.000897   0.000140  -0.000023
    19  H    0.526551  -0.000179   0.000159  -0.000415  -0.000271
    20  H   -0.000179   0.521173  -0.026640  -0.026216   0.000011
    21  H    0.000159  -0.026640   0.537392  -0.021780  -0.000023
    22  H   -0.000415  -0.026216  -0.021780   0.526932  -0.000165
    23  H   -0.000271   0.000011  -0.000023  -0.000165   0.482387
 Mulliken atomic charges:
              1
     1  C    0.228553
     2  C   -0.274836
     3  C   -0.297346
     4  C   -0.535867
     5  C   -0.518115
     6  C   -0.558062
     7  C    0.058035
     8  C   -0.273462
     9  H    0.148440
    10  H    0.158828
    11  H    0.148066
    12  H    0.140628
    13  H    0.155418
    14  H    0.134435
    15  H    0.132536
    16  H    0.132007
    17  H    0.151350
    18  H    0.138647
    19  H    0.143975
    20  H    0.150085
    21  H    0.139659
    22  H    0.143764
    23  H    0.153264
 Sum of Mulliken atomic charges =   0.00000
 Mulliken charges with hydrogens summed into heavy atoms:
              1
     1  C    0.376993
     2  C    0.032058
     3  C   -0.001299
     4  C   -0.101896
     5  C   -0.084608
     6  C   -0.159084
     7  C    0.211299
     8  C   -0.273462
 Sum of Mulliken charges with hydrogens summed into heavy atoms =   0.00000
          Atomic-Atomic Spin Densities.
              1          2          3          4          5          6
     1  C    0.193935   0.006643  -0.072993   0.023400   0.006814  -0.003107
     2  C    0.006643   0.025613  -0.047600   0.000049   0.000414  -0.005366
     3  C   -0.072993  -0.047600   0.155880  -0.002031   0.001089   0.014387
     4  C    0.023400   0.000049  -0.002031  -0.007764   0.000446   0.000095
     5  C    0.006814   0.000414   0.001089   0.000446   0.003816   0.000118
     6  C   -0.003107  -0.005366   0.014387   0.000095   0.000118  -0.000786
     7  C    0.126665   0.024953  -0.083880   0.012339   0.004733  -0.012503
     8  C   -0.266187  -0.009477   0.098114  -0.009077   0.000544   0.006600
     9  H    0.009426  -0.000052  -0.002379   0.001834  -0.005683  -0.000017
    10  H    0.000747   0.001424  -0.009951  -0.000085  -0.000054   0.000697
    11  H   -0.001051   0.003952   0.006288   0.000020   0.000108  -0.002005
    12  H   -0.006186   0.002831   0.016535   0.000875   0.000724  -0.002418
    13  H    0.001693  -0.000756  -0.010786  -0.000052  -0.000492   0.001013
    14  H   -0.000020   0.001309   0.000211  -0.000004   0.000008  -0.000815
    15  H    0.000023   0.001003  -0.001904   0.000001  -0.000001  -0.000292
    16  H    0.000005  -0.002018   0.000433  -0.000004  -0.000002   0.001696
    17  H    0.010673  -0.000031  -0.001994   0.003921  -0.000340  -0.000041
    18  H   -0.011894   0.000003   0.000473   0.002218   0.002553   0.000004
    19  H    0.000318  -0.000008   0.000666  -0.003266   0.000034   0.000016
    20  H    0.012262   0.000072  -0.002085   0.001367   0.000650  -0.000014
    21  H   -0.011424  -0.000015   0.000535   0.001422   0.002846   0.000002
    22  H    0.000887   0.000007   0.000644  -0.000616  -0.002708   0.000007
    23  H   -0.008086  -0.003370   0.012377   0.000680  -0.001981   0.001049
              7          8          9         10         11         12
     1  C    0.126665  -0.266187   0.009426   0.000747  -0.001051  -0.006186
     2  C    0.024953  -0.009477  -0.000052   0.001424   0.003952   0.002831
     3  C   -0.083880   0.098114  -0.002379  -0.009951   0.006288   0.016535
     4  C    0.012339  -0.009077   0.001834  -0.000085   0.000020   0.000875
     5  C    0.004733   0.000544  -0.005683  -0.000054   0.000108   0.000724
     6  C   -0.012503   0.006600  -0.000017   0.000697  -0.002005  -0.002418
     7  C    0.005506  -0.239514  -0.002034   0.006730  -0.003442   0.001140
     8  C   -0.239514   1.442289  -0.008577  -0.000010  -0.001366  -0.008365
     9  H   -0.002034  -0.008577   0.027284   0.000006  -0.000005   0.000026
    10  H    0.006730  -0.000010   0.000006   0.001281  -0.000022   0.000433
    11  H   -0.003442  -0.001366  -0.000005  -0.000022  -0.003312  -0.000589
    12  H    0.001140  -0.008365   0.000026   0.000433  -0.000589  -0.021841
    13  H    0.006445   0.002201   0.000008   0.000148   0.000274   0.001280
    14  H   -0.000175  -0.000403   0.000000  -0.000028  -0.000047  -0.000210
    15  H    0.001118  -0.000092   0.000000  -0.000012   0.000065   0.000126
    16  H   -0.000311   0.000206   0.000000   0.000033   0.000044   0.000028
    17  H    0.001819  -0.014251   0.000224   0.000000   0.000000  -0.000005
    18  H   -0.001184   0.007127  -0.000022   0.000000   0.000000   0.000000
    19  H    0.002463  -0.000797  -0.000399   0.000007  -0.000002  -0.000008
    20  H    0.001596  -0.014119   0.000282   0.000000   0.000000   0.000001
    21  H   -0.000820   0.006744   0.000141   0.000000   0.000000   0.000000
    22  H    0.002841  -0.001602  -0.000377   0.000000   0.000000  -0.000010
    23  H   -0.012457   0.005213   0.004488   0.000199  -0.000296   0.000013
             13         14         15         16         17         18
     1  C    0.001693  -0.000020   0.000023   0.000005   0.010673  -0.011894
     2  C   -0.000756   0.001309   0.001003  -0.002018  -0.000031   0.000003
     3  C   -0.010786   0.000211  -0.001904   0.000433  -0.001994   0.000473
     4  C   -0.000052  -0.000004   0.000001  -0.000004   0.003921   0.002218
     5  C   -0.000492   0.000008  -0.000001  -0.000002  -0.000340   0.002553
     6  C    0.001013  -0.000815  -0.000292   0.001696  -0.000041   0.000004
     7  C    0.006445  -0.000175   0.001118  -0.000311   0.001819  -0.001184
     8  C    0.002201  -0.000403  -0.000092   0.000206  -0.014251   0.007127
     9  H    0.000008   0.000000   0.000000   0.000000   0.000224  -0.000022
    10  H    0.000148  -0.000028  -0.000012   0.000033   0.000000   0.000000
    11  H    0.000274  -0.000047   0.000065   0.000044   0.000000   0.000000
    12  H    0.001280  -0.000210   0.000126   0.000028  -0.000005   0.000000
    13  H   -0.004834   0.000003  -0.000073   0.000013   0.000000   0.000000
    14  H    0.000003   0.000313   0.000024  -0.000107   0.000000   0.000000
    15  H   -0.000073   0.000024   0.000193  -0.000059   0.000000   0.000000
    16  H    0.000013  -0.000107  -0.000059   0.000323   0.000000   0.000000
    17  H    0.000000   0.000000   0.000000   0.000000  -0.005677   0.000868
    18  H    0.000000   0.000000   0.000000   0.000000   0.000868  -0.000087
    19  H    0.000001   0.000000   0.000000   0.000000  -0.000058  -0.000036
    20  H    0.000003   0.000000   0.000000   0.000000   0.000613   0.000074
    21  H    0.000000   0.000000   0.000000   0.000000   0.000110  -0.000278
    22  H    0.000001   0.000000   0.000000   0.000000  -0.000039  -0.000025
    23  H    0.000035  -0.000013   0.000003   0.000009   0.000003   0.000002
             19         20         21         22         23
     1  C    0.000318   0.012262  -0.011424   0.000887  -0.008086
     2  C   -0.000008   0.000072  -0.000015   0.000007  -0.003370
     3  C    0.000666  -0.002085   0.000535   0.000644   0.012377
     4  C   -0.003266   0.001367   0.001422  -0.000616   0.000680
     5  C    0.000034   0.000650   0.002846  -0.002708  -0.001981
     6  C    0.000016  -0.000014   0.000002   0.000007   0.001049
     7  C    0.002463   0.001596  -0.000820   0.002841  -0.012457
     8  C   -0.000797  -0.014119   0.006744  -0.001602   0.005213
     9  H   -0.000399   0.000282   0.000141  -0.000377   0.004488
    10  H    0.000007   0.000000   0.000000   0.000000   0.000199
    11  H   -0.000002   0.000000   0.000000   0.000000  -0.000296
    12  H   -0.000008   0.000001   0.000000  -0.000010   0.000013
    13  H    0.000001   0.000003   0.000000   0.000001   0.000035
    14  H    0.000000   0.000000   0.000000   0.000000  -0.000013
    15  H    0.000000   0.000000   0.000000   0.000000   0.000003
    16  H    0.000000   0.000000   0.000000   0.000000   0.000009
    17  H   -0.000058   0.000613   0.000110  -0.000039   0.000003
    18  H   -0.000036   0.000074  -0.000278  -0.000025   0.000002
    19  H    0.001084  -0.000052  -0.000020   0.000004  -0.000079
    20  H   -0.000052  -0.005618   0.000942  -0.000010   0.000019
    21  H   -0.000020   0.000942  -0.000244  -0.000071   0.000006
    22  H    0.000004  -0.000010  -0.000071   0.000964  -0.000063
    23  H   -0.000079   0.000019   0.000006  -0.000063   0.046703
 Mulliken atomic spin densities:
              1
     1  C    0.012542
     2  C   -0.000422
     3  C    0.072030
     4  C    0.025767
     5  C    0.013634
     6  C   -0.001680
     7  C   -0.157973
     8  C    0.995201
     9  H    0.024176
    10  H    0.001542
    11  H   -0.001386
    12  H   -0.015620
    13  H   -0.003874
    14  H    0.000045
    15  H    0.000123
    16  H    0.000289
    17  H   -0.004207
    18  H   -0.000204
    19  H   -0.000132
    20  H   -0.004017
    21  H   -0.000125
    22  H   -0.000164
    23  H    0.044452
 Sum of Mulliken atomic spin densities =   1.00000
 Electronic spatial extent (au):  <R**2>=           1869.8762
 Charge=              0.0000 electrons
 Dipole moment (field-independent basis, Debye):
    X=              0.1011    Y=              0.0633    Z=              0.7347  Tot=              0.7443
 Quadrupole moment (field-independent basis, Debye-Ang):
   XX=            -52.5101   YY=            -54.9812   ZZ=            -52.4360
   XY=              0.4453   XZ=              0.3139   YZ=             -0.4879
 Traceless Quadrupole moment (field-independent basis, Debye-Ang):
   XX=              0.7990   YY=             -1.6721   ZZ=              0.8731
   XY=              0.4453   XZ=              0.3139   YZ=             -0.4879
 Octapole moment (field-independent basis, Debye-Ang**2):
  XXX=              7.4041  YYY=              0.5058  ZZZ=              2.0954  XYY=             -3.6500
  XXY=              1.3615  XXZ=              4.9181  XZZ=              0.0991  YZZ=             -0.1428
  YYZ=              1.4028  XYZ=              0.7675
 Hexadecapole moment (field-independent basis, Debye-Ang**3):
 XXXX=          -2256.2971 YYYY=           -300.7242 ZZZZ=           -136.2081 XXXY=              1.3469
 XXXZ=             -0.2042 YYYX=             -1.3980 YYYZ=             -1.6413 ZZZX=              0.3619
 ZZZY=             -1.3365 XXYY=           -422.9002 XXZZ=           -391.0118 YYZZ=            -76.5382
 XXYZ=             -0.5804 YYXZ=             -0.0208 ZZXY=              0.6018
 N-N= 3.528836066772D+02 E-N=-2.139249946566D+03  KE= 4.671891129275D+02
                          Isotropic Fermi Contact Couplings
        Atom                 a.u.       MegaHertz       Gauss      10(-4) cm-1
     1  C(13)              0.03424      38.49263      13.73513      12.83976
     2  C(13)             -0.00764      -8.58448      -3.06316      -2.86348
     3  C(13)              0.03388      38.08641      13.59018      12.70426
     4  C(13)              0.00884       9.93422       3.54478       3.31370
     5  C(13)              0.00953      10.70868       3.82112       3.57203
     6  C(13)             -0.00024      -0.26672      -0.09517      -0.08897
     7  C(13)              0.01421      15.97119       5.69892       5.32741
     8  C(13)              0.48883     549.54367     196.09084     183.30804
     9  H(1)               0.01601      71.55614      25.53301      23.86856
    10  H(1)               0.00013       0.60222       0.21489       0.20088
    11  H(1)               0.00023       1.01285       0.36141       0.33785
    12  H(1)              -0.00040      -1.78735      -0.63777      -0.59620
    13  H(1)              -0.00208      -9.29834      -3.31788      -3.10159
    14  H(1)               0.00006       0.27513       0.09817       0.09177
    15  H(1)               0.00002       0.08302       0.02962       0.02769
    16  H(1)               0.00014       0.63799       0.22765       0.21281
    17  H(1)              -0.00023      -1.04306      -0.37219      -0.34793
    18  H(1)              -0.00016      -0.73591      -0.26259      -0.24547
    19  H(1)              -0.00015      -0.66111      -0.23590      -0.22052
    20  H(1)              -0.00023      -1.03104      -0.36790      -0.34392
    21  H(1)              -0.00016      -0.69773      -0.24897      -0.23274
    22  H(1)              -0.00015      -0.65785      -0.23474      -0.21943
    23  H(1)               0.02097      93.73498      33.44697      31.26662
 --------------------------------------------------------
       Center         ----  Spin Dipole Couplings  ----
                      3XX-RR        3YY-RR        3ZZ-RR
 --------------------------------------------------------
     1   Atom        0.050378     -0.039824     -0.010554
     2   Atom        0.001429     -0.002270      0.000841
     3   Atom        0.042106     -0.023736     -0.018370
     4   Atom        0.004116      0.003409     -0.007525
     5   Atom        0.013997     -0.006198     -0.007799
     6   Atom        0.001338     -0.000622     -0.000716
     7   Atom        0.081751     -0.157480      0.075729
     8   Atom       -0.519173     -0.333089      0.852262
     9   Atom        0.000818     -0.011198      0.010380
    10   Atom        0.003814     -0.001596     -0.002218
    11   Atom        0.002213     -0.001695     -0.000518
    12   Atom        0.014139     -0.009983     -0.004155
    13   Atom        0.003551     -0.000304     -0.003247
    14   Atom        0.002438     -0.001185     -0.001252
    15   Atom        0.001822     -0.001022     -0.000801
    16   Atom        0.001336     -0.000697     -0.000639
    17   Atom        0.004065      0.001108     -0.005174
    18   Atom        0.003005     -0.000410     -0.002596
    19   Atom       -0.003778      0.008190     -0.004412
    20   Atom        0.010819     -0.005812     -0.005008
    21   Atom        0.005927     -0.003296     -0.002631
    22   Atom        0.001986      0.002630     -0.004616
    23   Atom        0.005710     -0.009225      0.003515
 --------------------------------------------------------
                        XY            XZ            YZ
 --------------------------------------------------------
     1   Atom        0.017593      0.061713      0.011815
     2   Atom        0.000775     -0.002149      0.000901
     3   Atom        0.010504     -0.008310     -0.001321
     4   Atom        0.014074      0.002985      0.002477
     5   Atom       -0.010191      0.003437     -0.001140
     6   Atom       -0.001046     -0.000875     -0.000109
     7   Atom        0.052304     -0.056872     -0.014032
     8   Atom       -0.037394      0.138353      0.024563
     9   Atom        0.002332      0.008539      0.001368
    10   Atom       -0.003460     -0.001898      0.001062
    11   Atom       -0.000946     -0.001700      0.000154
    12   Atom        0.005249      0.005374      0.001122
    13   Atom        0.004828     -0.003337     -0.001988
    14   Atom       -0.000328      0.000504     -0.000089
    15   Atom        0.000335     -0.000394      0.000004
    16   Atom       -0.000433     -0.000284      0.000010
    17   Atom        0.010335     -0.003172     -0.003514
    18   Atom        0.004832      0.001606      0.000695
    19   Atom        0.005827      0.002532      0.004119
    20   Atom       -0.006288     -0.004539      0.002109
    21   Atom       -0.002326      0.001668     -0.000052
    22   Atom       -0.008471      0.003695     -0.002706
    23   Atom        0.003281     -0.009915     -0.001949
 --------------------------------------------------------


 ---------------------------------------------------------------------------------
              Anisotropic Spin Dipole Couplings in Principal Axis System
 ---------------------------------------------------------------------------------

       Atom             a.u.   MegaHertz   Gauss  10(-4) cm-1        Axes

              Baa    -0.0490    -6.576    -2.347    -2.194 -0.5073 -0.1251  0.8526
     1 C(13)  Bbb    -0.0431    -5.787    -2.065    -1.930 -0.2004  0.9794  0.0245
              Bcc     0.0921    12.364     4.412     4.124  0.8381  0.1585  0.5219
 
              Baa    -0.0030    -0.401    -0.143    -0.134 -0.3404  0.8548 -0.3918
     2 C(13)  Bbb    -0.0003    -0.042    -0.015    -0.014  0.5628  0.5190  0.6433
              Bcc     0.0033     0.443     0.158     0.148  0.7532 -0.0015 -0.6578
 
              Baa    -0.0254    -3.405    -1.215    -1.136 -0.1533  0.9882  0.0045
     3 C(13)  Bbb    -0.0195    -2.615    -0.933    -0.872  0.1310  0.0158  0.9913
              Bcc     0.0449     6.020     2.148     2.008  0.9795  0.1525 -0.1319
 
              Baa    -0.0104    -1.390    -0.496    -0.464  0.7049 -0.6966 -0.1337
     4 C(13)  Bbb    -0.0081    -1.082    -0.386    -0.361 -0.0105 -0.1988  0.9800
              Bcc     0.0184     2.471     0.882     0.824  0.7092  0.6894  0.1474
 
              Baa    -0.0105    -1.406    -0.502    -0.469  0.3959  0.9104 -0.1203
     5 C(13)  Bbb    -0.0083    -1.108    -0.395    -0.370 -0.0770  0.1635  0.9835
              Bcc     0.0187     2.514     0.897     0.839  0.9150 -0.3802  0.1349
 
              Baa    -0.0014    -0.193    -0.069    -0.065  0.4394  0.6438  0.6265
     6 C(13)  Bbb    -0.0006    -0.076    -0.027    -0.025 -0.0397 -0.6828  0.7295
              Bcc     0.0020     0.269     0.096     0.090  0.8974 -0.3454 -0.2745
 
              Baa    -0.1684   -22.602    -8.065    -7.539 -0.2027  0.9792  0.0091
     7 C(13)  Bbb     0.0251     3.364     1.200     1.122  0.6423  0.1259  0.7560
              Bcc     0.1434    19.238     6.865     6.417  0.7391  0.1590 -0.6545
 
              Baa    -0.5406   -72.541   -25.884   -24.197  0.9770  0.1880 -0.1004
     8 C(13)  Bbb    -0.3259   -43.727   -15.603   -14.586 -0.1887  0.9820  0.0017
              Bcc     0.8664   116.268    41.487    38.783  0.0989  0.0173  0.9949
 
              Baa    -0.0116    -6.210    -2.216    -2.071 -0.1933  0.9810  0.0140
     9 H(1)   Bbb    -0.0040    -2.111    -0.753    -0.704  0.8389  0.1727 -0.5162
              Bcc     0.0156     8.320     2.969     2.775  0.5088  0.0880  0.8564
 
              Baa    -0.0033    -1.766    -0.630    -0.589  0.3798  0.8998 -0.2148
    10 H(1)   Bbb    -0.0028    -1.472    -0.525    -0.491  0.3198  0.0902  0.9432
              Bcc     0.0061     3.239     1.156     1.080  0.8680 -0.4269 -0.2535
 
              Baa    -0.0020    -1.055    -0.376    -0.352  0.3155  0.9093  0.2713
    11 H(1)   Bbb    -0.0012    -0.653    -0.233    -0.218  0.3271 -0.3726  0.8685
              Bcc     0.0032     1.708     0.609     0.570  0.8908 -0.1852 -0.4149
 
              Baa    -0.0111    -5.910    -2.109    -1.971 -0.2037  0.9790 -0.0006
    12 H(1)   Bbb    -0.0056    -2.989    -1.067    -0.997 -0.2496 -0.0513  0.9670
              Bcc     0.0167     8.899     3.175     2.968  0.9467  0.1971  0.2548
 
              Baa    -0.0046    -2.460    -0.878    -0.821  0.3736  0.0095  0.9276
    13 H(1)   Bbb    -0.0035    -1.884    -0.672    -0.629 -0.4907  0.8506  0.1889
              Bcc     0.0081     4.344     1.550     1.449  0.7872  0.5258 -0.3224
 
              Baa    -0.0013    -0.713    -0.254    -0.238 -0.0944  0.3463  0.9334
    14 H(1)   Bbb    -0.0012    -0.640    -0.228    -0.213  0.1304  0.9338 -0.3332
              Bcc     0.0025     1.353     0.483     0.451  0.9870 -0.0902  0.1333
 
              Baa    -0.0011    -0.572    -0.204    -0.191 -0.1417  0.9651 -0.2204
    15 H(1)   Bbb    -0.0008    -0.451    -0.161    -0.151  0.1127  0.2369  0.9650
              Bcc     0.0019     1.023     0.365     0.341  0.9835  0.1119 -0.1423
 
              Baa    -0.0008    -0.428    -0.153    -0.143  0.2300  0.9102  0.3446
    16 H(1)   Bbb    -0.0007    -0.352    -0.126    -0.117  0.0530 -0.3652  0.9294
              Bcc     0.0015     0.780     0.278     0.260  0.9718 -0.1955 -0.1322
 
              Baa    -0.0080    -4.288    -1.530    -1.430 -0.5719  0.7625  0.3024
    17 H(1)   Bbb    -0.0061    -3.272    -1.168    -1.091  0.3740 -0.0856  0.9235
              Bcc     0.0142     7.560     2.698     2.522  0.7301  0.6412 -0.2362
 
              Baa    -0.0039    -2.107    -0.752    -0.703 -0.5895  0.7424  0.3183
    18 H(1)   Bbb    -0.0028    -1.488    -0.531    -0.496  0.0450 -0.3632  0.9306
              Bcc     0.0067     3.595     1.283     1.199  0.8065  0.5629  0.1807
 
              Baa    -0.0068    -3.606    -1.287    -1.203  0.7864 -0.1408 -0.6015
    19 H(1)   Bbb    -0.0052    -2.771    -0.989    -0.924  0.4926 -0.4447  0.7481
              Bcc     0.0120     6.377     2.275     2.127  0.3728  0.8845  0.2804
 
              Baa    -0.0081    -4.313    -1.539    -1.439  0.2417  0.9290 -0.2802
    20 H(1)   Bbb    -0.0061    -3.272    -1.168    -1.092  0.3208  0.1960  0.9266
              Bcc     0.0142     7.585     2.707     2.530  0.9158 -0.3139 -0.2506
 
              Baa    -0.0040    -2.110    -0.753    -0.704  0.2662  0.9163 -0.2993
    21 H(1)   Bbb    -0.0028    -1.500    -0.535    -0.500 -0.0906  0.3329  0.9386
              Bcc     0.0068     3.610     1.288     1.204  0.9596 -0.2228  0.1716
 
              Baa    -0.0068    -3.618    -1.291    -1.207  0.6694  0.4279 -0.6073
    22 H(1)   Bbb    -0.0052    -2.791    -0.996    -0.931  0.3052  0.5870  0.7499
              Bcc     0.0120     6.409     2.287     2.138 -0.6774  0.6873 -0.2624
 
              Baa    -0.0099    -5.291    -1.888    -1.765 -0.2165  0.9761 -0.0182
    23 H(1)   Bbb    -0.0052    -2.800    -0.999    -0.934  0.6368  0.1553  0.7552
              Bcc     0.0152     8.091     2.887     2.699  0.7400  0.1519 -0.6553
 

 ---------------------------------------------------------------------------------

 Calling FoFJK, ICntrl=      2127 FMM=F ISym2X=0 I1Cent= 0 IOpClX= 1 NMat=1 NMatS=1 NMatT=0.
 ***** Axes restored to original set *****
 -------------------------------------------------------------------
 Center     Atomic                   Forces (Hartrees/Bohr)
 Number     Number              X              Y              Z
 -------------------------------------------------------------------
      1        6          -0.007173703   -0.014281535    0.012251671
      2        6           0.004638095    0.002531135    0.002051949
      3        6           0.004328877    0.000904425   -0.004020839
      4        6          -0.005278574    0.008539500    0.008444936
      5        6          -0.008594268   -0.004038679   -0.008975654
      6        6           0.008564352    0.001410182    0.003030358
      7        6          -0.012811756   -0.037858772    0.024305269
      8        6           0.010489636    0.048974612   -0.036810569
      9        1           0.006348589   -0.010424414    0.006202620
     10        1           0.002526364   -0.001591921   -0.013012308
     11        1          -0.004236141   -0.008412577    0.008252855
     12        1           0.000232539    0.010991629   -0.009102623
     13        1          -0.000647329    0.001238423    0.010826036
     14        1           0.003267071    0.009561934   -0.008379978
     15        1          -0.003835508    0.002016589    0.012370653
     16        1          -0.005128353   -0.010940800   -0.005722058
     17        1           0.001277487    0.010666044   -0.008036431
     18        1           0.010263287   -0.006175032    0.003138749
     19        1          -0.008893753   -0.009606808   -0.003756929
     20        1           0.001301856    0.010759405   -0.007881514
     21        1           0.010120514   -0.006882324    0.002133489
     22        1          -0.005746625    0.001891809    0.012252508
     23        1          -0.001012657    0.000727176    0.000437809
 -------------------------------------------------------------------
 Cartesian Forces:  Max     0.048974612 RMS     0.011648192

 GradGradGradGradGradGradGradGradGradGradGradGradGradGradGradGradGradGrad
 Berny optimization.
 Internal  Forces:  Max     0.048067955 RMS     0.007364493
 Search for a local minimum.
 Step number   1 out of a maximum of  119
 All quantities printed in internal units (Hartrees-Bohrs-Radians)
 Swaping is turned off.
 Second derivative matrix not updated -- first step.
 ITU=  0
     Eigenvalues ---    0.00354   0.00371   0.00372   0.00423   0.00692
     Eigenvalues ---    0.00749   0.01302   0.02912   0.03757   0.04404
     Eigenvalues ---    0.04541   0.04909   0.04933   0.05508   0.05594
     Eigenvalues ---    0.05595   0.05671   0.05708   0.05708   0.05790
     Eigenvalues ---    0.06870   0.08044   0.09030   0.11981   0.12585
[...]
 000195,0.00000042,-0.00000523,-0.00025205,0.00017202,-0.00041264,0.003
 19314,-0.00018382,-0.00014277,0.00050924,0.00058678,0.00037802,0.00014
 263,-0.00004521,0.00000191,0.03335251,0.25256543,0.00000152,0.00000853
 ,0.00002814,0.00022014,0.00347003,-0.00278235,0.00059833,0.00043069,-0
 .00004843,-0.00000339,0.00000915,0.00000034,0.00000355,0.00000505,-0.0
 0000381,0.02057964,0.11619172,-0.12108495,-0.00015529,-0.00027196,0.00
 006617,-0.00000847,-0.00002418,-0.00002135,0.00000475,-0.00000422,0.00
 000132,-0.00036555,-0.00046931,0.00042757,-0.00094424,0.00010875,0.001
 11506,-0.00054477,-0.00016134,-0.00000484,0.00006388,0.00010591,-0.000
 10775,-0.02142885,-0.12888244,0.12700260,0.00004128,0.00003189,0.00003
 344,-0.01398723,0.00707028,0.02650397,0.00143125,0.00022867,0.00178178
 ,0.00000275,0.00001713,0.00001127,0.00000980,0.00000172,-0.00000159,-0
 .09482310,0.02562829,0.09785726,0.00017772,-0.00001816,-0.00045481,0.0
 0015465,-0.00013511,-0.00011615,-0.00000302,0.00000162,0.00000041,-0.0
 0486939,0.00294184,-0.00185741,0.00142357,-0.00038544,-0.00032278,-0.0
 0005723,-0.00003993,-0.00003955,-0.00026688,-0.00045264,-0.00100092,-0
 .00278627,0.00101520,0.00372520,0.10383333,-0.00001589,0.00000901,-0.0
 0001470,0.00766994,-0.00489409,-0.01498107,-0.00095150,0.00027673,0.00
 021468,0.00000839,-0.00001455,0.00000730,0.00000667,-0.00001529,-0.000
 00092,0.02571374,-0.06303128,-0.05496102,-0.00015851,-0.00001221,0.000
 08184,-0.00009999,0.00000427,0.00004237,0.00000415,-0.00000452,0.00000
 073,0.00317453,-0.00086235,0.00102085,-0.00072328,0.00014481,-0.000402
 89,-0.00000195,-0.00001365,0.00013323,0.00005584,0.00047978,0.00026740
 ,-0.01192593,0.00788794,0.02460460,-0.03186671,0.06499475,-0.00001450,
 -0.00003254,-0.00005898,-0.00292496,0.00099982,0.00562179,-0.00011061,
 0.00045604,0.00100324,0.00002335,-0.00000540,0.00000708,-0.00000619,-0
 .00000515,-0.00000443,0.09838786,-0.05517668,-0.25062918,-0.00005826,0
 .00015599,0.00026129,-0.00002495,0.00003178,-0.00000246,0.00000375,-0.
 00000359,0.00000232,-0.00177057,0.00045436,0.00118325,0.00057980,-0.00
 041242,0.00061787,0.00006208,-0.00009714,-0.00008833,0.00049964,0.0002
 0501,0.00009789,0.00609993,-0.00455061,-0.01430642,-0.10756902,0.06063
 832,0.27010872,0.00005719,0.00004765,0.00024583,-0.01717463,-0.0182921
 5,-0.01431092,-0.00430152,0.00472302,-0.00017128,-0.00015129,0.0000136
 9,-0.00009360,-0.00002967,0.00007801,0.00002285,-0.15080085,-0.0987760
 0,-0.08449494,-0.00076361,-0.00148693,-0.00077608,-0.00019662,0.000147
 75,-0.00025819,-0.00002328,0.00001478,-0.00001007,0.00083764,-0.000538
 07,0.00077276,0.00112289,0.00013823,-0.00013070,0.00020487,0.00017297,
 0.00021553,0.00024425,0.00010982,-0.00009725,-0.00331973,-0.00222346,-
 0.00186782,0.00970459,0.00907782,0.00682381,0.16466084,-0.00000025,-0.
 00003974,-0.00014018,0.01116836,0.01084774,0.00984381,0.00257320,-0.00
 144654,0.00047142,0.00005357,-0.00000989,0.00002120,-0.00000893,-0.000
 01115,0.00000078,-0.09953490,-0.14023841,-0.08063266,0.00074070,0.0007
 9256,0.00026798,0.00010269,-0.00008913,0.00011084,-0.00000103,0.000001
 05,0.00000253,-0.00091142,0.00054596,-0.00026330,-0.00083630,0.0006664
 7,0.00005547,0.00032090,0.00023983,-0.00011276,-0.00002503,-0.00016501
 ,0.00010528,-0.01613439,-0.01538306,-0.01503202,-0.00404400,-0.0049258
 7,-0.00263531,0.10663373,0.14922327,0.00000312,-0.00001832,0.00002615,
 -0.00151983,-0.00219501,-0.00306044,-0.00069068,0.00115823,0.00038211,
 -0.00002946,0.00000494,-0.00002675,-0.00001758,0.00002915,0.00000760,-
 0.08485496,-0.08037587,-0.11704116,-0.00026095,-0.00051516,0.00037123,
 -0.00012443,0.00009426,-0.00006038,-0.00000867,0.00000752,-0.00000491,
 0.00003883,0.00035705,0.00039630,0.00001180,-0.00001414,-0.00023318,-0
 .00013931,-0.00026842,0.00002293,0.00018539,0.00029688,0.00048358,0.01
 192965,0.01009646,0.00967003,-0.01861353,-0.01664218,-0.01378425,0.094
 06896,0.08799073,0.12286508,-0.00053381,-0.00897059,0.00798550,-0.0000
 1139,-0.00002322,0.00001294,0.00001116,0.00002341,-0.00000700,-0.04757
 964,0.00636414,-0.00614383,-0.00007466,0.00010477,-0.00080628,0.000004
 72,0.00001424,0.00000399,-0.00023995,0.00025472,-0.00007966,0.00060437
 ,-0.00135419,0.00013648,-0.00026827,0.00091724,0.00201197,-0.00000553,
 -0.00001952,-0.00000610,0.00001003,0.00000514,-0.00001559,-0.00001409,
 0.00003065,-0.00000313,0.00002685,-0.00000224,-0.00001241,-0.00000625,
 0.00000290,0.00000061,0.00000428,-0.00000296,-0.00000695,0.00001166,-0
 .00000047,0.00000538,0.04677527,-0.00081732,0.00758428,-0.00704850,-0.
 00003762,0.00005741,0.00004468,0.00000335,-0.00009197,0.00002588,0.005
 75225,-0.20888722,0.13037832,0.00032935,0.00153584,-0.00029023,-0.0000
 0728,-0.00002536,-0.00001949,0.00003174,-0.00005407,0.00004915,-0.0004
 8699,0.00062853,-0.00003245,0.00056286,0.00034467,-0.00227212,-0.00000
 202,-0.00002073,-0.00000695,0.00001424,0.00000490,-0.00001618,-0.00000
 696,0.00001882,0.00000498,-0.00002881,0.00000976,-0.00000748,-0.000004
 16,0.00001282,0.00000100,0.00000410,0.00000086,-0.00000204,-0.00001654
 ,0.00000152,-0.00000286,-0.00715512,0.22376543,-0.00033856,0.02301578,
 -0.02143985,0.00001554,-0.00001466,-0.00000564,-0.00000283,0.00002931,
 0.00000251,-0.00585155,0.12921624,-0.15003302,0.00003690,0.00161531,0.
 00138076,0.00000582,0.00000813,0.00000417,0.00027964,-0.00030402,0.000
 09933,-0.00113834,0.00095793,0.00086244,0.00238163,-0.00246406,-0.0047
 9922,0.00000192,0.00000118,0.00000542,-0.00000319,-0.00000332,-0.00000
 020,0.00002346,-0.00001345,0.00001169,0.00001247,0.00000148,-0.0000023
 7,0.00000088,-0.00000207,0.00000170,-0.00000160,0.00000060,-0.00000002
 ,0.00000465,-0.00000112,0.00000216,0.00383537,-0.14128576,0.16670045,-
 0.00960525,0.00272358,-0.00154525,-0.00005342,0.00020737,0.00001113,-0
 .00009018,-0.00035244,-0.00013439,-0.28334144,0.08298112,-0.01659271,0
 .00069243,-0.00049472,-0.00088535,-0.00002585,-0.00007935,-0.00003225,
 0.00021647,0.00049884,0.00001288,-0.00023006,0.00015572,0.00284896,0.0
 0010412,-0.00034009,0.00016572,0.00001578,-0.00000192,0.00000871,0.000
 00524,-0.00000511,0.00001131,-0.00000364,0.00001786,-0.00001858,-0.000
 04727,0.00003711,0.00000298,0.00000336,0.00001147,-0.00000164,-0.00000
 590,0.00001066,0.00001025,-0.00004762,0.00000896,-0.00001489,0.0005285
 7,-0.00057392,-0.00013008,0.30696222,0.00789441,-0.00380608,0.00099383
 ,0.00006700,-0.00010764,-0.00004395,0.00000741,0.00019600,0.00010220,0
 .08225014,-0.07733260,0.00560096,0.00081607,0.00008544,0.00071937,0.00
 001672,0.00004032,0.00003000,0.00043608,0.00013163,0.00008570,0.000159
 43,0.00003872,-0.00209748,-0.00049501,0.00024756,0.00001427,-0.0000019
 2,-0.00000970,0.00001227,-0.00000227,0.00000435,-0.00000501,-0.0000088
 3,-0.00000430,0.00000897,0.00001340,0.00000117,-0.00001140,-0.00000316
 ,-0.00000289,-0.00000077,-0.00000249,0.00000032,-0.00000337,0.00002248
 ,-0.00000553,0.00000477,0.02400814,-0.00767054,0.00035989,-0.09183943,
 0.07873419,0.02942899,-0.01190024,0.00081359,0.00020573,-0.00030585,-0
 .00006071,0.00020540,0.00068273,0.00036915,-0.01813012,0.00620177,-0.0
 4750310,0.00093034,0.00076467,0.00166178,0.00005258,0.00010944,0.00007
 186,0.00099063,-0.00056703,0.00041460,0.00084132,-0.00127010,-0.005711
 45,-0.00029907,0.00071035,0.00122947,-0.00000739,0.00000751,0.00002522
 ,-0.00001688,0.00000221,-0.00000706,0.00001458,-0.00004396,0.00001393,
 -0.00000200,-0.00002067,-0.00000214,-0.00000025,-0.00001407,0.00000006
 ,-0.00000562,-0.00000215,-0.00000386,0.00005689,-0.00001812,0.00001190
 ,-0.01980780,0.00516943,-0.00125673,0.01675370,-0.00457951,0.05175400,
 0.00568793,0.00969979,0.00428651,0.00000213,-0.00003706,0.00004212,-0.
 00002408,0.00005210,-0.00007159,-0.13974261,-0.11563580,-0.05679546,-0
 .00053267,0.00069023,0.00177835,0.00000390,0.00002083,-0.00000571,0.00
 016654,-0.00027246,-0.00008203,0.00110163,0.00074416,-0.00004311,0.000
 25522,-0.00022046,-0.00071363,-0.00001284,0.00000976,-0.00002633,0.,-0
 .00000075,-0.00000426,0.00001011,-0.00000996,0.00000470,0.00004522,-0.
 00002925,0.00000412,-0.00000035,-0.00000588,0.00000069,0.00000593,-0.0
 0000745,-0.00000322,0.00001687,-0.00000023,0.00000709,0.00055171,0.002
 18871,0.00117161,-0.01587002,-0.02276531,-0.01016715,0.14734960,-0.004
 18806,-0.00680633,-0.00164489,0.00004082,-0.00001451,-0.00009103,-0.00
 000801,-0.00003840,-0.00003896,-0.11427235,-0.19006449,-0.06942235,0.0
 0143167,0.00029833,-0.00211890,0.00000577,0.00000139,0.00002882,0.0005
 2263,0.00016439,0.00007225,-0.00091646,0.00018286,0.00032206,0.0003416
 3,0.00055695,-0.00004973,0.00002514,0.00000452,0.00003752,-0.00000490,
 0.00000403,0.00001355,-0.00000551,-0.00001016,-0.00001066,-0.00000552,
 0.00001107,0.00001040,0.00000126,-0.00000077,-0.00000639,-0.00001611,0
 .00000970,0.00000873,0.00000087,0.00000016,-0.00000406,-0.01446701,-0.
 01722848,-0.00971564,0.00683885,0.00945870,0.00499914,0.12532788,0.203
 07374,-0.01750181,-0.02234585,-0.01060581,-0.00001543,0.00004170,0.000
 01433,0.00003466,-0.00008557,-0.00011721,-0.05531953,-0.06825111,-0.08
 040029,0.00323073,-0.00103099,-0.00559488,0.00000217,-0.00001483,-0.00
 001278,0.00040810,0.00031307,0.00019279,-0.00168396,0.00040019,0.00087
 599,-0.00058006,0.00066547,0.00095425,-0.00000011,-0.00001699,0.000008
 93,0.00001426,0.00000593,-0.00001454,-0.00001911,0.00002206,-0.0000122
 7,-0.00000230,0.00000223,-0.00000066,-0.00000349,0.00000939,-0.0000017
 5,-0.00000244,0.00000235,0.00000265,-0.00001285,0.00000167,-0.00000119
 ,0.01318770,0.01474776,0.00820133,-0.00087433,-0.00081107,-0.00154749,
 0.05986904,0.07777785,0.08849690,-0.00085686,-0.01779130,0.01227429,-0
 .00000033,-0.00003522,-0.00002433,0.00000092,0.00003422,-0.00000643,0.
 00030859,0.00087257,0.00086289,-0.04667959,0.00602609,-0.00336392,0.00
 000627,0.00001870,0.00001137,-0.00028649,0.00023989,-0.00021097,0.0012
 9252,-0.00057246,0.00139994,-0.00228824,-0.00291722,-0.00185782,-0.000
 00461,-0.00000298,0.00000662,0.00000795,0.00000913,-0.00000104,-0.0000
 3458,0.00002562,-0.00001654,0.00002777,-0.00000453,0.00000283,-0.00000
 460,-0.00000159,-0.00000343,-0.00000126,-0.00000236,-0.00000206,0.0000
 1474,0.00000081,0.00000474,0.00029693,0.00034684,-0.00029934,-0.000037
 08,0.00007455,-0.00018325,-0.00014845,0.00014995,0.00009915,0.04797866
 ,-0.00061714,-0.02053228,0.01347982,-0.00001633,0.00002742,0.00002296,
 0.00000367,-0.00002806,0.00002765,0.00064048,0.00088513,0.00130421,0.0
 0552717,-0.21621828,0.12735171,-0.00000474,-0.00001566,-0.00000873,-0.
 00017874,0.00015085,-0.00014562,0.00116225,0.00051949,0.00040174,-0.00
 341812,-0.00243945,-0.00229489,0.00000360,-0.00000455,-0.00000132,0.00
 000770,0.00000427,-0.00000474,-0.00002410,0.00001356,-0.00000421,-0.00
 003068,0.00001109,0.00000614,-0.00000225,0.00000682,-0.00000120,0.0000
 0025,0.00000141,0.00000069,-0.00001012,0.00000130,-0.00000331,0.000061
 87,-0.00001759,-0.00093058,0.00000471,-0.00009178,-0.00005798,-0.00004
 775,0.00050870,-0.00017142,-0.00225280,0.23683475,0.00048034,-0.010964
 72,0.00683785,0.00001206,-0.00003218,0.00000203,0.00000055,0.00006446,
 -0.00006100,0.00002336,-0.00059468,0.00174185,-0.00267115,0.12806052,-
 0.14310718,0.00000490,0.00001325,0.00000174,-0.00003350,0.00003950,-0.
 00001042,0.00069371,-0.00000646,0.00032623,-0.00160999,-0.00231919,-0.
 00024715,-0.00000469,-0.00000089,-0.00000308,-0.00000576,-0.00000829,-
 0.00000241,0.00000871,-0.00000517,0.00002885,0.00003200,-0.00000617,-0
 .00000139,0.00000113,-0.00000387,0.00000494,0.00000192,-0.00000010,-0.
 00000204,0.00000622,-0.00000330,0.00000220,-0.00020480,0.00037505,-0.0
 0009606,0.00012631,0.00003434,-0.00004477,0.00003844,0.00014243,0.0001
 0613,0.00466469,-0.13860409,0.15210712,-0.01812102,0.00707614,-0.00095
 846,0.00002531,0.00015654,0.00004285,-0.00003346,-0.00001498,0.0004733
 5,0.00074133,0.00114009,0.00092678,-0.28093363,0.08547531,-0.01430661,
 -0.00002286,-0.00006553,-0.00002421,-0.00026355,0.00032648,-0.00041542
 ,-0.00174765,-0.00410673,-0.00143788,0.00047894,0.00005592,0.00050558,
 0.00002028,-0.00000644,-0.00000567,0.00000647,-0.00000839,0.00000746,-
 0.00000562,0.00002149,-0.00002961,-0.00019896,0.00011229,-0.00006163,0
 .00000383,0.00001340,0.00000071,-0.00000032,0.00000933,0.00000598,-0.0
 0004593,0.00000245,-0.00001767,-0.00004468,-0.00009752,-0.00005120,0.0
 0056387,-0.00040401,-0.00072416,0.00036531,-0.00019784,0.00021555,0.00
 087123,-0.00040214,0.00001862,0.30612947,-0.02431086,0.00756217,-0.002
 81776,0.00004034,0.00006141,0.00001217,-0.00009434,0.00010799,0.000562
 95,-0.00034844,0.00111150,0.00101514,0.08678563,-0.07799897,0.00543967
 ,-0.00000842,-0.00002089,-0.00000219,-0.00081261,0.00073828,-0.0001261
 6,-0.00202890,-0.00371774,-0.00193033,0.00060890,0.00106901,0.00074547
 ,0.00001066,-0.00000896,-0.00000200,0.00001021,0.00000332,0.00000365,-
 0.00001944,0.00002210,-0.00003422,-0.00019968,0.00010319,-0.00005054,-
 0.00000180,0.00000655,-0.00000264,0.00000029,0.00000242,-0.00000083,-0
 .00001314,0.00000211,-0.00000617,0.00016877,-0.00005871,-0.00008766,0.
 00038679,-0.00003216,-0.00011234,0.00002496,0.00003605,0.00031239,0.02
 445215,-0.00805357,-0.00024426,-0.09162332,0.08291911,-0.01115612,0.00
 426478,-0.00198464,0.00001854,0.00001517,0.00001599,-0.00000786,0.0000
 4472,0.00023201,-0.00083332,0.00094757,0.00057507,-0.01346543,0.005088
 77,-0.04925422,-0.00000392,-0.00000920,-0.00000565,-0.00057353,0.00024
 188,0.00033189,-0.00095934,-0.00214137,-0.00064835,0.00068391,0.000158
 75,0.00022439,0.00000395,-0.00000093,-0.00000471,0.00000103,-0.0000009
 1,0.00000117,0.00000718,0.00000467,-0.00001722,-0.00009964,0.00003074,
 -0.00003037,0.00000122,0.00000251,0.00000032,0.00000157,0.00000003,0.0
 0000052,-0.00000812,-0.00000055,-0.00000319,-0.00004006,0.00009184,-0.
 00008047,0.00013532,-0.00047444,-0.00015696,0.00025364,0.00007292,0.00
 011999,-0.01897951,0.00557709,-0.00110686,0.01694133,-0.00391005,0.048
 09446,0.00516961,-0.00471726,-0.01986369,0.00002378,-0.00007733,-0.000
 01293,-0.00005962,0.00008956,-0.00002969,-0.00270390,-0.00286528,-0.00
 111488,-0.07384919,0.02379712,0.07777714,0.00001247,0.00003251,0.00001
 364,0.00002659,0.00002187,0.00036114,0.00151700,0.00014449,-0.00082353
 ,0.00065462,0.00073213,0.00059474,-0.00000626,0.00000094,0.00000315,-0
 .00000317,0.00000441,-0.00000380,0.00001299,-0.00000491,0.00000805,0.0
 0002144,-0.00002834,-0.00000189,-0.00000160,-0.00000544,-0.00000070,-0
 .00000008,-0.00000393,-0.00000282,0.00002170,-0.00000184,0.00000744,-0
 .00015178,0.00003403,0.00014917,0.00027396,-0.00026230,-0.00006086,0.0
 0074850,-0.00061710,-0.00109408,-0.00057504,-0.00045470,-0.00160059,-0
 .00776077,0.00694819,0.02810139,0.07665620,0.00768939,-0.00665576,-0.0
 2175426,-0.00000938,-0.00001427,-0.00001894,-0.00006443,-0.00006504,-0
 .00007712,-0.00376307,-0.00336032,-0.00107600,0.02299896,-0.06647154,-
 0.06502087,0.00000108,0.00000405,0.00000269,-0.00019956,0.00011294,0.0
 0028549,0.00133153,0.00038927,0.00035814,0.00087253,0.00050444,0.00041
 456,-0.00000256,-0.00000200,0.00000568,-0.00000396,-0.00000377,-0.0000
 0224,0.00001443,-0.00001375,0.00001906,0.00002097,-0.00000843,0.000002
 19,0.00000024,-0.00000225,0.00000127,-0.00000147,0.00000182,0.00000083
 ,0.00000403,-0.00000065,0.00000032,-0.00006672,0.00014895,-0.00026680,
 -0.00021316,0.00012832,0.00038775,0.00026601,-0.00014028,-0.00163093,-
 0.00874743,0.00846649,0.02404930,0.00260665,-0.00373884,-0.00994557,-0
 .02269091,0.07077428,0.00327428,-0.00150019,-0.00992360,-0.00001652,-0
 .00001325,-0.00002301,-0.00004166,-0.00005095,-0.00003728,-0.00239705,
 -0.00219561,0.00018810,0.07598848,-0.06598582,-0.27175096,0.00000224,0
 .00000726,0.00000454,-0.00048155,0.00014941,0.00027171,0.00098004,0.00
 011572,0.00030838,-0.00015536,-0.00013581,0.00061025,0.00000217,0.0000
 0539,0.00001484,0.00000380,0.00000590,0.00000026,0.00000215,-0.0000005
 9,-0.00002302,-0.00002739,-0.00001478,0.00001076,-0.00000051,-0.000002
 41,-0.00000423,-0.00000552,-0.00000068,0.00000347,0.00000681,0.0000018
 4,0.00000204,0.00002173,0.00006851,0.00047577,0.00010391,0.00011710,0.
 00011921,0.00038968,-0.00035996,-0.00059315,0.00579177,-0.00585002,-0.
 01642053,-0.00104223,0.00143329,0.00372473,-0.08238297,0.07421364,0.29
 302763,0.00253166,0.00062336,-0.00193172,0.00198473,0.00088614,0.00027
 181,0.00262181,0.02206709,-0.01559205,0.00028360,0.00012144,-0.0000676
 2,0.00012766,0.00009119,-0.00001678,-0.00018224,-0.00000780,0.00009240
 ,-0.04768656,-0.01320702,0.01121829,-0.00717994,-0.02344184,0.02188049
 ,-0.00109258,0.00119523,-0.00064705,-0.00001169,-0.00011995,-0.0000661
 1,-0.00025224,-0.00071459,0.00024332,-0.00453136,0.00237430,-0.0010647
 3,0.00104349,-0.00051483,0.00078984,0.00007420,-0.00020234,0.00012513,
 0.00001154,0.00002938,-0.00000232,-0.00004250,-0.00010656,0.00002957,0
 .00010450,-0.00003323,-0.00010238,-0.00000829,0.00001890,-0.00007564,0
 .00002041,0.00001239,0.00004814,0.00011157,0.00004791,0.00001752,-0.00
 002761,0.00002407,-0.00002223,-0.00002746,-0.00004317,-0.00001627,0.05
 212730,0.00054528,-0.00036419,-0.00365836,0.00019302,-0.00011424,-0.00
 027943,-0.00161275,-0.00908332,0.01217149,0.00047441,0.00024966,0.0000
 0782,-0.00022263,0.00020482,0.00030336,0.00029076,0.00046284,0.0000681
 8,-0.00741775,-0.20515388,0.12219287,-0.00412897,-0.00414150,0.0164494
 9,-0.00107706,0.00048736,-0.00005544,0.00002340,-0.00007910,-0.0000719
 9,0.00042643,0.00048336,0.00021809,0.00256740,-0.00058909,0.00077578,-
 0.00101327,0.00039865,-0.00043976,-0.00020392,0.00004433,-0.00008025,0
 .00002079,-0.00004002,-0.00002649,0.00017159,-0.00000699,0.00000519,0.
 00010605,-0.00005912,-0.00011673,0.00001713,-0.00000350,-0.00014296,0.
 00000793,-0.00000720,0.00005669,0.00007736,-0.00003005,0.00001451,-0.0
 0006921,-0.00011534,-0.00005844,-0.00007589,-0.00005369,-0.00000799,0.
 01089991,0.21751020,-0.00183299,-0.00390792,-0.00199368,0.00145194,-0.
 00001387,0.00021566,0.00187233,0.00729635,0.00242716,0.00049222,0.0002
 9874,0.00022512,-0.00052640,0.00009446,0.00047167,-0.00003048,-0.00007
 796,0.00010653,0.00691662,0.12321734,-0.12845246,0.00810336,0.02054934
 ,0.00087500,0.00107705,-0.00039693,0.00022343,-0.00004102,-0.00003301,
 -0.00023624,-0.00042692,-0.00016755,-0.00004518,-0.00055267,0.00064227
 ,0.00106305,-0.00133882,0.00024495,0.00024611,0.00008554,-0.00008575,0
 .00004763,0.00007412,-0.00000858,-0.00003009,0.00000751,-0.00003423,-0
 .00002787,-0.00006807,0.00002743,-0.00003412,0.00003830,-0.00005667,-0
 .00019051,0.00006649,-0.00002310,-0.00007130,-0.00016966,-0.00009390,-
 0.00005603,-0.00006344,-0.00019759,-0.00002791,-0.00002341,0.00005182,
 0.00001410,-0.01511159,-0.14732564,0.12524995\\0.00000055,-0.00000014,
 -0.00000291,0.00000008,-0.00000009,0.00000007,0.00000013,-0.00000280,0
 .00000339,-0.00000023,0.00000627,-0.00000517,0.00000017,-0.00000214,0.
 00000128,-0.00000058,0.00000033,0.00000400,0.00000036,-0.00000334,-0.0
 0000067,-0.00000011,-0.00000059,0.,0.00000130,-0.00000308,-0.00000672,
 -0.00000048,0.00000445,-0.00000153,0.00000087,-0.00000251,-0.00000398,
 -0.00000088,-0.00000019,0.00000714,0.00000048,-0.00000724,0.00000488,-
 0.00000143,0.00000291,0.00000794,-0.00000008,-0.00000411,0.00000546,-0
 .00000057,0.00000238,0.00000165,-0.00000119,0.00000940,-0.00000151,-0.
 00000001,0.00000661,-0.00000746,-0.00000012,0.00000768,-0.00000830,-0.
 00000077,0.00000079,0.00000513,0.00000040,-0.00000182,-0.00000097,0.00
 000060,-0.00000665,0.00000287,0.00000153,-0.00000613,-0.00000460\\\@


 THE CHYMISTS ARE A STRANGE CLASS OF MORTALS IMPELLED
 BY AN ALMOST INSANE IMPULSE TO SEEK THEIR PLEASURE
 AMONG SMOKE AND VAPOR, SOOT AND FLAME, POISONS AND
 POVERTY; YET AMONG ALL THESE EVILS I SEEM TO LIVE
 SO SWEETLY, THAT I MAY DIE IF I WOULD CHANGE PLACES
 WITH THE PERSIAN KING.
   --  JOHANN JOACHIM BECHER, 1635-1682
 ACTA LABORATORII CHYMICA MONACENSIS, 1669
 Job cpu time:  0 days 13 hours  6 minutes 53.9 seconds.
 File lengths (MBytes):  RWF=   2784 Int=      0 D2E=      0 Chk=     32 Scr=     32
 Normal termination of Gaussian 09 at Sun Jul 30 18:48:10 2017.
