 Entering Gaussian System, Link 0=/shared/apps/gaussian/G09_LINUX_LINDA/g09/g09
 Input=/gss_gpfs_scratch/westgroup/QMscratch/AXOLWCUJJCRZPC-UHFFFAOYSA-u2.gjf
 Output=/gss_gpfs_scratch/westgroup/QMscratch/AXOLWCUJJCRZPC-UHFFFAOYSA-u2.log
 Initial command:
 /shared/apps/gaussian/G09_LINUX_LINDA/g09/l1.exe /gss_gpfs_scratch/westgroup/rwest-autotst-1/Gau-1146.inp -scrdir=/gss_gpfs_scratch/westgroup/rwest-autotst-1/
 Entering Link 1 = /shared/apps/gaussian/G09_LINUX_LINDA/g09/l1.exe PID=      1147.
  
 Copyright (c) 1988,1990,1992,1993,1995,1998,2003,2009,2010,
            Gaussian, Inc.  All Rights Reserved.
  
 This is part of the Gaussian(R) 09 program.  It is based on
 the Gaussian(R) 03 system (copyright 2003, Gaussian, Inc.),
 the Gaussian(R) 98 system (copyright 1998, Gaussian, Inc.),
 the Gaussian(R) 94 system (copyright 1995, Gaussian, Inc.),
 the Gaussian 92(TM) system (copyright 1992, Gaussian, Inc.),
 the Gaussian 90(TM) system (copyright 1990, Gaussian, Inc.),
 the Gaussian 88(TM) system (copyright 1988, Gaussian, Inc.),
 the Gaussian 86(TM) system (copyright 1986, Carnegie Mellon
 University), and the Gaussian 82(TM) system (copyright 1983,
 Carnegie Mellon University). Gaussian is a federally registered
 trademark of Gaussian, Inc.
  
 This software contains proprietary and confidential information,
 including trade secrets, belonging to Gaussian, Inc.
  
 This software is provided under written license and may be
 used, copied, transmitted, or stored only in accord with that
 written license.
  
 The following legend is applicable only to US Government
 contracts under FAR:
  
                    RESTRICTED RIGHTS LEGEND
  
 Use, reproduction and disclosure by the US Government is
 subject to restrictions as set forth in subparagraphs (a)
 and (c) of the Commercial Computer Software - Restricted
 Rights clause in FAR 52.227-19.
  
 Gaussian, Inc.
 340 Quinnipiac St., Bldg. 40, Wallingford CT 06492
  
  
 ---------------------------------------------------------------
 Warning -- This program may not be used in any manner that
 competes with the business of Gaussian, Inc. or will provide
 assistance to any competitor of Gaussian, Inc.  The licensee
 of this program is prohibited from giving any competitor of
 Gaussian, Inc. access to this program.  By using this program,
 the user acknowledges that Gaussian, Inc. is engaged in the
 business of creating and licensing software in the field of
 computational chemistry and represents and warrants to the
 licensee that it is not a competitor of Gaussian, Inc. and that
 it will not use this program in any manner prohibited above.
 ---------------------------------------------------------------
  

 Cite this work as:
 Gaussian 09, Revision B.01,
 M. J. Frisch, G. W. Trucks, H. B. Schlegel, G. E. Scuseria, 
 M. A. Robb, J. R. Cheeseman, G. Scalmani, V. Barone, B. Mennucci, 
 G. A. Petersson, H. Nakatsuji, M. Caricato, X. Li, H. P. Hratchian, 
 A. F. Izmaylov, J. Bloino, G. Zheng, J. L. Sonnenberg, M. Hada, 
 M. Ehara, K. Toyota, R. Fukuda, J. Hasegawa, M. Ishida, T. Nakajima, 
 Y. Honda, O. Kitao, H. Nakai, T. Vreven, J. A. Montgomery, Jr., 
 J. E. Peralta, F. Ogliaro, M. Bearpark, J. J. Heyd, E. Brothers, 
 K. N. Kudin, V. N. Staroverov, T. Keith, R. Kobayashi, J. Normand, 
 K. Raghavachari, A. Rendell, J. C. Burant, S. S. Iyengar, J. Tomasi, 
 M. Cossi, N. Rega, J. M. Millam, M. Klene, J. E. Knox, J. B. Cross, 
 V. Bakken, C. Adamo, J. Jaramillo, R. Gomperts, R. E. Stratmann, 
 O. Yazyev, A. J. Austin, R. Cammi, C. Pomelli, J. W. Ochterski, 
 R. L. Martin, K. Morokuma, V. G. Zakrzewski, G. A. Voth, 
 P. Salvador, J. J. Dannenberg, S. Dapprich, A. D. Daniels, 
 O. Farkas, J. B. Foresman, J. V. Ortiz, J. Cioslowski, 
 and D. J. Fox, Gaussian, Inc., Wallingford CT, 2010.
 
 ******************************************
 Gaussian 09:  EM64L-G09RevB.01 12-Aug-2010
                14-Mar-2017 
 ******************************************
 %nprocshared=20
 Will use up to   20 processors via shared memory.
 %mem=5GB
 --------------------------------------------------------------
 # m062x/6-311+g(2df,2p) opt=(verytight,gdiis) freq IOP(2/16=3)
 --------------------------------------------------------------

 Warning!  Use of Opt=GDIIS is deprecated since it is seldom a good choice.

 1/7=1,14=-1,18=20,19=11,26=3,38=1/1,3;
 2/9=110,12=2,16=3,17=6,18=5,40=1/2;
 3/5=4,6=6,7=214,11=2,16=1,25=1,30=1,71=1,74=-55/1,2,3;
 4//1;
 5/5=2,38=5/2;
 6/7=2,8=2,9=2,10=2,28=1/1;
 7//1,2,3,16;
 1/7=1,14=-1,18=20,19=11/3(2);
 2/9=110,16=3/2;
 99//99;
 2/9=110,16=3/2;
 3/5=4,6=6,7=214,11=2,16=1,25=1,30=1,71=1,74=-55/1,2,3;
 4/5=5,16=3/1;
 5/5=2,38=5/2;
 7//1,2,3,16;
 1/7=1,14=-1,18=20,19=11/3(-5);
 2/9=110,16=3/2;
 6/7=2,8=2,9=2,10=2,19=2,28=1/1;
 99/9=1/99;
 --------------------------------------------------
 InChI=1S/C7H13/c1-7-5-3-2-4-6-7/h2,7H,3-6H2,1H3/u2
 --------------------------------------------------
 Symbolic Z-matrix:
 Charge =  0 Multiplicity = 2
 C                     0.8189   -0.3009    0.2708 
 C                    -0.0995   -1.1056   -0.6701 
 C                     0.4433    1.194     0.2432 
 C                    -1.5748   -0.8968   -0.3102 
 C                    -1.0333    1.3971    0.6008 
 C                     2.2886   -0.4936   -0.1175 
 C                    -1.9315    0.591    -0.3399 
 H                     0.6881   -0.6822    1.3088 
 H                     0.1392   -2.1886   -0.59 
 H                     0.0677   -0.7935   -1.7252 
 H                     0.6368    1.6174   -0.7677 
 H                     1.0691    1.7507    0.9745 
 H                    -2.2106   -1.436    -1.0442 
 H                    -1.7807   -1.3139    0.7001 
 H                    -1.2141    1.0862    1.6533 
 H                    -1.2875    2.4744    0.5088 
 H                     2.9453    0.0638    0.5841 
 H                     2.5597   -1.5696   -0.0647 
 H                     2.4738   -0.1271   -1.1502 
 H                    -2.9985    0.7335   -0.0647 
 

 GradGradGradGradGradGradGradGradGradGradGradGradGradGradGradGradGradGrad
 Berny optimization.
 Initialization pass.
                           ----------------------------
                           !    Initial Parameters    !
                           ! (Angstroms and Degrees)  !
 --------------------------                            --------------------------
 ! Name  Definition              Value          Derivative Info.                !
 --------------------------------------------------------------------------------
 ! R1    R(1,2)                  1.5415         estimate D2E/DX2                !
 ! R2    R(1,3)                  1.5416         estimate D2E/DX2                !
 ! R3    R(1,6)                  1.5323         estimate D2E/DX2                !
 ! R4    R(1,8)                  1.1135         estimate D2E/DX2                !
 ! R5    R(2,4)                  1.5329         estimate D2E/DX2                !
 ! R6    R(2,9)                  1.1119         estimate D2E/DX2                !
 ! R7    R(2,10)                 1.1129         estimate D2E/DX2                !
 ! R8    R(3,5)                  1.5328         estimate D2E/DX2                !
 ! R9    R(3,11)                 1.1129         estimate D2E/DX2                !
 ! R10   R(3,12)                 1.1119         estimate D2E/DX2                !
 ! R11   R(4,7)                  1.5303         estimate D2E/DX2                !
 ! R12   R(4,13)                 1.1107         estimate D2E/DX2                !
 ! R13   R(4,14)                 1.1122         estimate D2E/DX2                !
 ! R14   R(5,7)                  1.5302         estimate D2E/DX2                !
 ! R15   R(5,15)                 1.1123         estimate D2E/DX2                !
 ! R16   R(5,16)                 1.1107         estimate D2E/DX2                !
 ! R17   R(6,17)                 1.1109         estimate D2E/DX2                !
 ! R18   R(6,18)                 1.1109         estimate D2E/DX2                !
 ! R19   R(6,19)                 1.1113         estimate D2E/DX2                !
 ! R20   R(7,20)                 1.1111         estimate D2E/DX2                !
 ! A1    A(2,1,3)              110.4944         estimate D2E/DX2                !
 ! A2    A(2,1,6)              110.5555         estimate D2E/DX2                !
 ! A3    A(2,1,8)              108.6772         estimate D2E/DX2                !
 ! A4    A(3,1,6)              110.5546         estimate D2E/DX2                !
 ! A5    A(3,1,8)              108.6702         estimate D2E/DX2                !
 ! A6    A(6,1,8)              107.8078         estimate D2E/DX2                !
 ! A7    A(1,2,4)              111.0381         estimate D2E/DX2                !
 ! A8    A(1,2,9)              109.6689         estimate D2E/DX2                !
 ! A9    A(1,2,10)             110.0452         estimate D2E/DX2                !
 ! A10   A(4,2,9)              108.8072         estimate D2E/DX2                !
 ! A11   A(4,2,10)             109.2073         estimate D2E/DX2                !
 ! A12   A(9,2,10)             108.0106         estimate D2E/DX2                !
 ! A13   A(1,3,5)              111.04           estimate D2E/DX2                !
 ! A14   A(1,3,11)             110.0481         estimate D2E/DX2                !
 ! A15   A(1,3,12)             109.6699         estimate D2E/DX2                !
 ! A16   A(5,3,11)             109.2075         estimate D2E/DX2                !
 ! A17   A(5,3,12)             108.8082         estimate D2E/DX2                !
 ! A18   A(11,3,12)            108.0033         estimate D2E/DX2                !
 ! A19   A(2,4,7)              110.6237         estimate D2E/DX2                !
 ! A20   A(2,4,13)             109.247          estimate D2E/DX2                !
 ! A21   A(2,4,14)             109.8989         estimate D2E/DX2                !
 ! A22   A(7,4,13)             109.0094         estimate D2E/DX2                !
 ! A23   A(7,4,14)             109.8211         estimate D2E/DX2                !
 ! A24   A(13,4,14)            108.1946         estimate D2E/DX2                !
 ! A25   A(3,5,7)              110.6244         estimate D2E/DX2                !
 ! A26   A(3,5,15)             109.8964         estimate D2E/DX2                !
 ! A27   A(3,5,16)             109.2486         estimate D2E/DX2                !
 ! A28   A(7,5,15)             109.82           estimate D2E/DX2                !
 ! A29   A(7,5,16)             109.0077         estimate D2E/DX2                !
 ! A30   A(15,5,16)            108.1976         estimate D2E/DX2                !
 ! A31   A(1,6,17)             110.1108         estimate D2E/DX2                !
 ! A32   A(1,6,18)             110.1108         estimate D2E/DX2                !
 ! A33   A(1,6,19)             110.7225         estimate D2E/DX2                !
 ! A34   A(17,6,18)            108.1622         estimate D2E/DX2                !
 ! A35   A(17,6,19)            108.8369         estimate D2E/DX2                !
 ! A36   A(18,6,19)            108.8398         estimate D2E/DX2                !
 ! A37   A(4,7,5)              111.3108         estimate D2E/DX2                !
 ! A38   A(4,7,20)             110.1046         estimate D2E/DX2                !
 ! A39   A(5,7,20)             110.1124         estimate D2E/DX2                !
 ! D1    D(3,1,2,4)            -56.0645         estimate D2E/DX2                !
 ! D2    D(3,1,2,9)           -176.3489         estimate D2E/DX2                !
 ! D3    D(3,1,2,10)            64.9696         estimate D2E/DX2                !
 ! D4    D(6,1,2,4)           -178.7803         estimate D2E/DX2                !
 ! D5    D(6,1,2,9)             60.9354         estimate D2E/DX2                !
 ! D6    D(6,1,2,10)           -57.7462         estimate D2E/DX2                !
 ! D7    D(8,1,2,4)             63.0855         estimate D2E/DX2                !
 ! D8    D(8,1,2,9)            -57.1988         estimate D2E/DX2                !
 ! D9    D(8,1,2,10)          -175.8804         estimate D2E/DX2                !
 ! D10   D(2,1,3,5)             56.0645         estimate D2E/DX2                !
 ! D11   D(2,1,3,11)           -64.9731         estimate D2E/DX2                !
 ! D12   D(2,1,3,12)           176.3519         estimate D2E/DX2                !
 ! D13   D(6,1,3,5)            178.7807         estimate D2E/DX2                !
 ! D14   D(6,1,3,11)            57.7432         estimate D2E/DX2                !
 ! D15   D(6,1,3,12)           -60.9319         estimate D2E/DX2                !
 ! D16   D(8,1,3,5)            -63.0899         estimate D2E/DX2                !
 ! D17   D(8,1,3,11)           175.8726         estimate D2E/DX2                !
 ! D18   D(8,1,3,12)            57.1975         estimate D2E/DX2                !
 ! D19   D(2,1,6,17)          -178.2495         estimate D2E/DX2                !
 ! D20   D(2,1,6,18)           -59.0682         estimate D2E/DX2                !
 ! D21   D(2,1,6,19)            61.343          estimate D2E/DX2                !
 ! D22   D(3,1,6,17)            59.0699         estimate D2E/DX2                !
 ! D23   D(3,1,6,18)           178.2512         estimate D2E/DX2                !
 ! D24   D(3,1,6,19)           -61.3376         estimate D2E/DX2                !
 ! D25   D(8,1,6,17)           -59.5853         estimate D2E/DX2                !
 ! D26   D(8,1,6,18)            59.596          estimate D2E/DX2                !
 ! D27   D(8,1,6,19)          -179.9928         estimate D2E/DX2                !
 ! D28   D(1,2,4,7)             56.4112         estimate D2E/DX2                !
 ! D29   D(1,2,4,13)           176.4135         estimate D2E/DX2                !
 ! D30   D(1,2,4,14)           -65.024          estimate D2E/DX2                !
 ! D31   D(9,2,4,7)            177.2053         estimate D2E/DX2                !
 ! D32   D(9,2,4,13)           -62.7924         estimate D2E/DX2                !
 ! D33   D(9,2,4,14)            55.77           estimate D2E/DX2                !
 ! D34   D(10,2,4,7)           -65.1147         estimate D2E/DX2                !
 ! D35   D(10,2,4,13)           54.8875         estimate D2E/DX2                !
 ! D36   D(10,2,4,14)          173.45           estimate D2E/DX2                !
 ! D37   D(1,3,5,7)            -56.4093         estimate D2E/DX2                !
 ! D38   D(1,3,5,15)            65.0234         estimate D2E/DX2                !
 ! D39   D(1,3,5,16)          -176.4109         estimate D2E/DX2                !
 ! D40   D(11,3,5,7)            65.1216         estimate D2E/DX2                !
 ! D41   D(11,3,5,15)         -173.4456         estimate D2E/DX2                !
 ! D42   D(11,3,5,16)          -54.88           estimate D2E/DX2                !
 ! D43   D(12,3,5,7)          -177.2064         estimate D2E/DX2                !
 ! D44   D(12,3,5,15)          -55.7737         estimate D2E/DX2                !
 ! D45   D(12,3,5,16)           62.792          estimate D2E/DX2                !
 ! D46   D(2,4,7,5)            -56.845          estimate D2E/DX2                !
 ! D47   D(2,4,7,20)          -179.2461         estimate D2E/DX2                !
 ! D48   D(13,4,7,5)          -176.9896         estimate D2E/DX2                !
 ! D49   D(13,4,7,20)           60.6094         estimate D2E/DX2                !
 ! D50   D(14,4,7,5)            64.6362         estimate D2E/DX2                !
 ! D51   D(14,4,7,20)          -57.7649         estimate D2E/DX2                !
 ! D52   D(3,5,7,4)             56.8443         estimate D2E/DX2                !
 ! D53   D(3,5,7,20)           179.2409         estimate D2E/DX2                !
 ! D54   D(15,5,7,4)           -64.6336         estimate D2E/DX2                !
 ! D55   D(15,5,7,20)           57.763          estimate D2E/DX2                !
 ! D56   D(16,5,7,4)           176.9902         estimate D2E/DX2                !
 ! D57   D(16,5,7,20)          -60.6132         estimate D2E/DX2                !
 --------------------------------------------------------------------------------
 Trust Radius=3.00D-01 FncErr=1.00D-07 GrdErr=1.00D-06
 Number of steps in this run=    120 maximum allowed number of steps=    120.
 GradGradGradGradGradGradGradGradGradGradGradGradGradGradGradGradGradGrad

                          Input orientation:                          
 ---------------------------------------------------------------------
 Center     Atomic      Atomic             Coordinates (Angstroms)
 Number     Number       Type             X           Y           Z
 ---------------------------------------------------------------------
      1          6           0        0.818900   -0.300900    0.270800
      2          6           0       -0.099500   -1.105600   -0.670100
      3          6           0        0.443300    1.194000    0.243200
      4          6           0       -1.574800   -0.896800   -0.310200
      5          6           0       -1.033300    1.397100    0.600800
      6          6           0        2.288600   -0.493600   -0.117500
      7          6           0       -1.931500    0.591000   -0.339900
      8          1           0        0.688100   -0.682200    1.308800
      9          1           0        0.139200   -2.188600   -0.590000
     10          1           0        0.067700   -0.793500   -1.725200
     11          1           0        0.636800    1.617400   -0.767700
     12          1           0        1.069100    1.750700    0.974500
     13          1           0       -2.210600   -1.436000   -1.044200
     14          1           0       -1.780700   -1.313900    0.700100
     15          1           0       -1.214100    1.086200    1.653300
     16          1           0       -1.287500    2.474400    0.508800
     17          1           0        2.945300    0.063800    0.584100
     18          1           0        2.559700   -1.569600   -0.064700
     19          1           0        2.473800   -0.127100   -1.150200
     20          1           0       -2.998500    0.733500   -0.064700
 ---------------------------------------------------------------------
                    Distance matrix (angstroms):
                    1          2          3          4          5
     1  C    0.000000
     2  C    1.541523   0.000000
     3  C    1.541611   2.533162   0.000000
     4  C    2.534257   1.532852   2.958112   0.000000
     5  C    2.534314   2.958154   1.532800   2.526880   0.000000
     6  C    1.532295   2.526447   2.526506   3.889160   3.889180
     7  C    2.955189   2.518672   2.518589   1.530250   1.530189
     8  H    1.113527   2.171549   2.171533   2.790686   2.790694
     9  H    2.183204   1.111883   3.496953   2.164447   3.956009
    10  H    2.188829   1.112923   2.822380   2.170415   3.379527
    11  H    2.188954   2.822480   1.112937   3.379598   2.170382
    12  H    2.183313   3.496968   1.111908   3.955998   2.164433
    13  H    3.492212   2.169299   3.951896   1.110736   3.481166
    14  H    2.822833   2.178823   3.382971   1.112238   2.813892
    15  H    2.822843   3.382973   2.178756   2.813845   1.112252
    16  H    3.492256   3.951905   2.169248   3.481134   1.110701
    17  H    2.180078   3.494470   2.766508   4.706785   4.196096
    18  H    2.180033   2.766433   3.494487   4.196072   4.706787
    19  H    2.188182   2.794608   2.794602   4.205853   4.205822
    20  H    3.969268   3.486115   3.486094   2.178318   2.178363
                    6          7          8          9         10
     6  C    0.000000
     7  C    4.362919   0.000000
     8  H    2.152092   3.346872   0.000000
     9  H    2.777805   3.475129   2.485151   0.000000
    10  H    2.758086   2.798696   3.098780   1.800026   0.000000
    11  H    2.758174   2.798692   3.098813   3.842502   2.655771
    12  H    2.777864   3.475076   2.485140   4.339408   3.842413
    13  H    4.689317   2.163946   3.808843   2.508837   2.463172
    14  H    4.230906   2.175542   2.620026   2.472948   3.093457
    15  H    4.230887   2.175484   2.619978   4.193821   4.073149
    16  H    4.689325   2.163845   3.808821   4.998640   4.184076
    17  H    1.110942   4.991482   2.485288   3.784972   3.787930
    18  H    1.110882   4.991473   2.485330   2.553022   3.093486
    19  H    1.111346   4.536400   3.089262   3.164485   2.562037
    20  H    5.427890   1.111094   4.181116   4.319696   3.806648
                   11         12         13         14         15
    11  H    0.000000
    12  H    1.799976   0.000000
    13  H    4.184183   4.998664   0.000000
    14  H    4.073237   4.193856   1.800640   0.000000
    15  H    3.093420   2.472920   3.825051   2.643881   0.000000
    16  H    2.463094   2.508821   4.307569   3.825057   1.800657
    17  H    3.093575   2.553071   5.611066   4.924083   4.414646
    18  H    3.787971   3.784999   4.871656   4.414677   4.924060
    19  H    2.562061   3.164438   4.864983   4.788828   4.788770
    20  H    3.806691   4.319722   2.507376   2.501960   2.502000
                   16         17         18         19         20
    16  H    0.000000
    17  H    4.871679   0.000000
    18  H    5.611041   1.799340   0.000000
    19  H    4.864921   1.807360   1.807345   0.000000
    20  H    2.507420   6.016494   6.016465   5.644910   0.000000
 Stoichiometry    C7H13(2)
 Framework group  C1[X(C7H13)]
 Deg. of freedom    54
 Full point group                 C1      NOp   1
 Largest Abelian subgroup         C1      NOp   1
 Largest concise Abelian subgroup C1      NOp   1
                         Standard orientation:                         
 ---------------------------------------------------------------------
 Center     Atomic      Atomic             Coordinates (Angstroms)
 Number     Number       Type             X           Y           Z
 ---------------------------------------------------------------------
      1          6           0       -0.964793    0.000029    0.338431
      2          6           0       -0.264883    1.266577   -0.192865
      3          6           0       -0.264784   -1.266585   -0.192833
      4          6           0        1.225310    1.263458    0.166231
      5          6           0        1.225364   -1.263422    0.166226
      6          6           0       -2.446382   -0.000029   -0.052492
      7          6           0        1.905278   -0.000004   -0.365722
      8          1           0       -0.905992   -0.000022    1.450404
      9          1           0       -0.738493    2.169682    0.250279
     10          1           0       -0.374912    1.327811   -1.298642
     11          1           0       -0.374836   -1.327960   -1.298613
     12          1           0       -0.738386   -2.169725    0.250314
     13          1           0        1.712529    2.153828   -0.284982
     14          1           0        1.348846    1.321988    1.270036
     15          1           0        1.348873   -1.321893    1.270051
     16          1           0        1.712613   -2.153741   -0.284970
     17          1           0       -2.950416   -0.899719    0.360665
     18          1           0       -2.950439    0.899621    0.360566
     19          1           0       -2.561424   -0.000112   -1.157868
     20          1           0        2.981384    0.000095   -0.089088
 ---------------------------------------------------------------------
 Rotational constants (GHZ):      4.2264136      2.2526100      1.6120805
 Standard basis: 6-311+G(2df,2p) (5D, 7F)
 There are   355 symmetry adapted basis functions of A   symmetry.
 Integral buffers will be    131072 words long.
 Raffenetti 2 integral format.
 Two-electron integral symmetry is turned on.
   355 basis functions,   507 primitive gaussians,   390 cartesian basis functions
    28 alpha electrons       27 beta electrons
       nuclear repulsion energy       315.7687626277 Hartrees.
 NAtoms=   20 NActive=   20 NUniq=   20 SFac= 1.00D+00 NAtFMM=   50 NAOKFM=F Big=F
 One-electron integrals computed using PRISM.
 NBasis=   355 RedAO= T  NBF=   355
 NBsUse=   355 1.00D-06 NBFU=   355
 Harris functional with IExCor= 1009 diagonalized for initial guess.
 ExpMin= 4.38D-02 ExpMax= 4.56D+03 ExpMxC= 6.82D+02 IAcc=2 IRadAn=         0 AccDes= 0.00D+00
 HarFok:  IExCor= 1009 AccDes= 0.00D+00 IRadAn=         0 IDoV= 1
 ScaDFX=  1.000000  1.000000  1.000000  1.000000
 FoFCou: FMM=F IPFlag=           0 FMFlag=      100000 FMFlg1=           0
         NFxFlg=           0 DoJE=T BraDBF=F KetDBF=T FulRan=T
         Omega=  0.000000  0.000000  1.000000  0.000000  0.000000 ICntrl=     500 IOpCl=  0
         NMat0=    1 NMatS0=    1 NMatT0=    0 NMatD0=    1 NMtDS0=    0 NMtDT0=    0
         I1Cent=           4 NGrid=           0.
 Petite list used in FoFCou.
 Initial guess orbital symmetries:
 Alpha Orbitals:
       Occupied  (A) (A) (A) (A) (A) (A) (A) (A) (A) (A) (A) (A)
                 (A) (A) (A) (A) (A) (A) (A) (A) (A) (A) (A) (A)
                 (A) (A) (A) (A)
       Virtual   (A) (A) (A) (A) (A) (A) (A) (A) (A) (A) (A) (A)
                 (A) (A) (A) (A) (A) (A) (A) (A) (A) (A) (A) (A)
                 (A) (A) (A) (A) (A) (A) (A) (A) (A) (A) (A) (A)
                 (A) (A) (A) (A) (A) (A) (A) (A) (A) (A) (A) (A)
                 (A) (A) (A) (A) (A) (A) (A) (A) (A) (A) (A) (A)
                 (A) (A) (A) (A) (A) (A) (A) (A) (A) (A) (A) (A)
                 (A) (A) (A) (A) (A) (A) (A) (A) (A) (A) (A) (A)
                 (A) (A) (A) (A) (A) (A) (A) (A) (A) (A) (A) (A)
                 (A) (A) (A) (A) (A) (A) (A) (A) (A) (A) (A) (A)
                 (A) (A) (A) (A) (A) (A) (A) (A) (A) (A) (A) (A)
                 (A) (A) (A) (A) (A) (A) (A) (A) (A) (A) (A) (A)
                 (A) (A) (A) (A) (A) (A) (A) (A) (A) (A) (A) (A)
                 (A) (A) (A) (A) (A) (A) (A) (A) (A) (A) (A) (A)
                 (A) (A) (A) (A) (A) (A) (A) (A) (A) (A) (A) (A)
                 (A) (A) (A) (A) (A) (A) (A) (A) (A) (A) (A) (A)
                 (A) (A) (A) (A) (A) (A) (A) (A) (A) (A) (A) (A)
                 (A) (A) (A) (A) (A) (A) (A) (A) (A) (A) (A) (A)
                 (A) (A) (A) (A) (A) (A) (A) (A) (A) (A) (A) (A)
                 (A) (A) (A) (A) (A) (A) (A) (A) (A) (A) (A) (A)
                 (A) (A) (A) (A) (A) (A) (A) (A) (A) (A) (A) (A)
                 (A) (A) (A) (A) (A) (A) (A) (A) (A) (A) (A) (A)
                 (A) (A) (A) (A) (A) (A) (A) (A) (A) (A) (A) (A)
                 (A) (A) (A) (A) (A) (A) (A) (A) (A) (A) (A) (A)
                 (A) (A) (A) (A) (A) (A) (A) (A) (A) (A) (A) (A)
                 (A) (A) (A) (A) (A) (A) (A) (A) (A) (A) (A) (A)
                 (A) (A) (A) (A) (A) (A) (A) (A) (A) (A) (A) (A)
                 (A) (A) (A) (A) (A) (A) (A) (A) (A) (A) (A) (A)
                 (A) (A) (A)
 Beta  Orbitals:
       Occupied  (A) (A) (A) (A) (A) (A) (A) (A) (A) (A) (A) (A)
                 (A) (A) (A) (A) (A) (A) (A) (A) (A) (A) (A) (A)
                 (A) (A) (A)
       Virtual   (A) (A) (A) (A) (A) (A) (A) (A) (A) (A) (A) (A)
                 (A) (A) (A) (A) (A) (A) (A) (A) (A) (A) (A) (A)
                 (A) (A) (A) (A) (A) (A) (A) (A) (A) (A) (A) (A)
                 (A) (A) (A) (A) (A) (A) (A) (A) (A) (A) (A) (A)
                 (A) (A) (A) (A) (A) (A) (A) (A) (A) (A) (A) (A)
                 (A) (A) (A) (A) (A) (A) (A) (A) (A) (A) (A) (A)
                 (A) (A) (A) (A) (A) (A) (A) (A) (A) (A) (A) (A)
                 (A) (A) (A) (A) (A) (A) (A) (A) (A) (A) (A) (A)
                 (A) (A) (A) (A) (A) (A) (A) (A) (A) (A) (A) (A)
                 (A) (A) (A) (A) (A) (A) (A) (A) (A) (A) (A) (A)
                 (A) (A) (A) (A) (A) (A) (A) (A) (A) (A) (A) (A)
                 (A) (A) (A) (A) (A) (A) (A) (A) (A) (A) (A) (A)
                 (A) (A) (A) (A) (A) (A) (A) (A) (A) (A) (A) (A)
                 (A) (A) (A) (A) (A) (A) (A) (A) (A) (A) (A) (A)
                 (A) (A) (A) (A) (A) (A) (A) (A) (A) (A) (A) (A)
                 (A) (A) (A) (A) (A) (A) (A) (A) (A) (A) (A) (A)
                 (A) (A) (A) (A) (A) (A) (A) (A) (A) (A) (A) (A)
                 (A) (A) (A) (A) (A) (A) (A) (A) (A) (A) (A) (A)
                 (A) (A) (A) (A) (A) (A) (A) (A) (A) (A) (A) (A)
                 (A) (A) (A) (A) (A) (A) (A) (A) (A) (A) (A) (A)
                 (A) (A) (A) (A) (A) (A) (A) (A) (A) (A) (A) (A)
                 (A) (A) (A) (A) (A) (A) (A) (A) (A) (A) (A) (A)
                 (A) (A) (A) (A) (A) (A) (A) (A) (A) (A) (A) (A)
                 (A) (A) (A) (A) (A) (A) (A) (A) (A) (A) (A) (A)
                 (A) (A) (A) (A) (A) (A) (A) (A) (A) (A) (A) (A)
                 (A) (A) (A) (A) (A) (A) (A) (A) (A) (A) (A) (A)
                 (A) (A) (A) (A) (A) (A) (A) (A) (A) (A) (A) (A)
                 (A) (A) (A) (A)
 The electronic state of the initial guess is 2-A.
 Initial guess <Sx>= 0.0000 <Sy>= 0.0000 <Sz>= 0.5000 <S**2>= 0.7500 S= 0.5000
 Requested convergence on RMS density matrix=1.00D-08 within 128 cycles.
 Requested convergence on MAX density matrix=1.00D-06.
 Requested convergence on             energy=1.00D-06.
 No special actions if energy rises.
 SCF Done:  E(UM062X) =  -274.458714422     A.U. after   14 cycles
             Convg  =    0.3221D-08             -V/T =  2.0060
 <Sx>= 0.0000 <Sy>= 0.0000 <Sz>= 0.5000 <S**2>= 0.7545 S= 0.5023
 <L.S>= 0.000000000000E+00
 Annihilation of the first spin contaminant:
 S**2 before annihilation     0.7545,   after     0.7500

 **********************************************************************

            Population analysis using the SCF density.

 **********************************************************************

 Orbital symmetries:
 Alpha Orbitals:
       Occupied  (A) (A) (A) (A) (A) (A) (A) (A) (A) (A) (A) (A)
                 (A) (A) (A) (A) (A) (A) (A) (A) (A) (A) (A) (A)
                 (A) (A) (A) (A)
       Virtual   (A) (A) (A) (A) (A) (A) (A) (A) (A) (A) (A) (A)
                 (A) (A) (A) (A) (A) (A) (A) (A) (A) (A) (A) (A)
                 (A) (A) (A) (A) (A) (A) (A) (A) (A) (A) (A) (A)
                 (A) (A) (A) (A) (A) (A) (A) (A) (A) (A) (A) (A)
                 (A) (A) (A) (A) (A) (A) (A) (A) (A) (A) (A) (A)
                 (A) (A) (A) (A) (A) (A) (A) (A) (A) (A) (A) (A)
                 (A) (A) (A) (A) (A) (A) (A) (A) (A) (A) (A) (A)
                 (A) (A) (A) (A) (A) (A) (A) (A) (A) (A) (A) (A)
                 (A) (A) (A) (A) (A) (A) (A) (A) (A) (A) (A) (A)
                 (A) (A) (A) (A) (A) (A) (A) (A) (A) (A) (A) (A)
                 (A) (A) (A) (A) (A) (A) (A) (A) (A) (A) (A) (A)
                 (A) (A) (A) (A) (A) (A) (A) (A) (A) (A) (A) (A)
                 (A) (A) (A) (A) (A) (A) (A) (A) (A) (A) (A) (A)
                 (A) (A) (A) (A) (A) (A) (A) (A) (A) (A) (A) (A)
                 (A) (A) (A) (A) (A) (A) (A) (A) (A) (A) (A) (A)
                 (A) (A) (A) (A) (A) (A) (A) (A) (A) (A) (A) (A)
                 (A) (A) (A) (A) (A) (A) (A) (A) (A) (A) (A) (A)
                 (A) (A) (A) (A) (A) (A) (A) (A) (A) (A) (A) (A)
                 (A) (A) (A) (A) (A) (A) (A) (A) (A) (A) (A) (A)
                 (A) (A) (A) (A) (A) (A) (A) (A) (A) (A) (A) (A)
                 (A) (A) (A) (A) (A) (A) (A) (A) (A) (A) (A) (A)
                 (A) (A) (A) (A) (A) (A) (A) (A) (A) (A) (A) (A)
                 (A) (A) (A) (A) (A) (A) (A) (A) (A) (A) (A) (A)
                 (A) (A) (A) (A) (A) (A) (A) (A) (A) (A) (A) (A)
                 (A) (A) (A) (A) (A) (A) (A) (A) (A) (A) (A) (A)
                 (A) (A) (A) (A) (A) (A) (A) (A) (A) (A) (A) (A)
                 (A) (A) (A) (A) (A) (A) (A) (A) (A) (A) (A) (A)
                 (A) (A) (A)
 Beta  Orbitals:
       Occupied  (A) (A) (A) (A) (A) (A) (A) (A) (A) (A) (A) (A)
                 (A) (A) (A) (A) (A) (A) (A) (A) (A) (A) (A) (A)
                 (A) (A) (A)
       Virtual   (A) (A) (A) (A) (A) (A) (A) (A) (A) (A) (A) (A)
                 (A) (A) (A) (A) (A) (A) (A) (A) (A) (A) (A) (A)
                 (A) (A) (A) (A) (A) (A) (A) (A) (A) (A) (A) (A)
                 (A) (A) (A) (A) (A) (A) (A) (A) (A) (A) (A) (A)
                 (A) (A) (A) (A) (A) (A) (A) (A) (A) (A) (A) (A)
                 (A) (A) (A) (A) (A) (A) (A) (A) (A) (A) (A) (A)
                 (A) (A) (A) (A) (A) (A) (A) (A) (A) (A) (A) (A)
                 (A) (A) (A) (A) (A) (A) (A) (A) (A) (A) (A) (A)
                 (A) (A) (A) (A) (A) (A) (A) (A) (A) (A) (A) (A)
                 (A) (A) (A) (A) (A) (A) (A) (A) (A) (A) (A) (A)
                 (A) (A) (A) (A) (A) (A) (A) (A) (A) (A) (A) (A)
                 (A) (A) (A) (A) (A) (A) (A) (A) (A) (A) (A) (A)
                 (A) (A) (A) (A) (A) (A) (A) (A) (A) (A) (A) (A)
                 (A) (A) (A) (A) (A) (A) (A) (A) (A) (A) (A) (A)
                 (A) (A) (A) (A) (A) (A) (A) (A) (A) (A) (A) (A)
                 (A) (A) (A) (A) (A) (A) (A) (A) (A) (A) (A) (A)
                 (A) (A) (A) (A) (A) (A) (A) (A) (A) (A) (A) (A)
                 (A) (A) (A) (A) (A) (A) (A) (A) (A) (A) (A) (A)
                 (A) (A) (A) (A) (A) (A) (A) (A) (A) (A) (A) (A)
                 (A) (A) (A) (A) (A) (A) (A) (A) (A) (A) (A) (A)
                 (A) (A) (A) (A) (A) (A) (A) (A) (A) (A) (A) (A)
                 (A) (A) (A) (A) (A) (A) (A) (A) (A) (A) (A) (A)
                 (A) (A) (A) (A) (A) (A) (A) (A) (A) (A) (A) (A)
                 (A) (A) (A) (A) (A) (A) (A) (A) (A) (A) (A) (A)
                 (A) (A) (A) (A) (A) (A) (A) (A) (A) (A) (A) (A)
                 (A) (A) (A) (A) (A) (A) (A) (A) (A) (A) (A) (A)
                 (A) (A) (A) (A) (A) (A) (A) (A) (A) (A) (A) (A)
                 (A) (A) (A) (A)
 The electronic state is 2-A.
 Alpha  occ. eigenvalues --  -10.55027 -10.53684 -10.53400 -10.53399 -10.52991
 Alpha  occ. eigenvalues --  -10.52990 -10.52426  -0.93492  -0.85544  -0.83446
 Alpha  occ. eigenvalues --   -0.75531  -0.68951  -0.65553  -0.61593  -0.54298
 Alpha  occ. eigenvalues --   -0.50976  -0.50457  -0.49979  -0.47683  -0.43738
 Alpha  occ. eigenvalues --   -0.43735  -0.42238  -0.40804  -0.40394  -0.38041
 Alpha  occ. eigenvalues --   -0.34976  -0.34845  -0.27537
 Alpha virt. eigenvalues --    0.01595   0.02636   0.02879   0.03241   0.04754
 Alpha virt. eigenvalues --    0.05106   0.06207   0.06394   0.06732   0.08187
 Alpha virt. eigenvalues --    0.08443   0.09464   0.09944   0.10137   0.10504
 Alpha virt. eigenvalues --    0.11340   0.12718   0.13791   0.14691   0.14704
 Alpha virt. eigenvalues --    0.15324   0.16667   0.16849   0.18490   0.18943
 Alpha virt. eigenvalues --    0.19666   0.20258   0.20422   0.20774   0.22464
 Alpha virt. eigenvalues --    0.22648   0.23461   0.23498   0.25147   0.25794
 Alpha virt. eigenvalues --    0.26474   0.27206   0.29149   0.29486   0.30761
 Alpha virt. eigenvalues --    0.31111   0.31411   0.31477   0.32421   0.32429
 Alpha virt. eigenvalues --    0.33561   0.34975   0.38034   0.41437   0.42793
 Alpha virt. eigenvalues --    0.44109   0.45885   0.47030   0.47770   0.48113
 Alpha virt. eigenvalues --    0.50471   0.51760   0.54442   0.55535   0.55915
 Alpha virt. eigenvalues --    0.56567   0.57812   0.58374   0.58478   0.59797
 Alpha virt. eigenvalues --    0.60476   0.60873   0.61388   0.61499   0.61940
 Alpha virt. eigenvalues --    0.63894   0.63921   0.65002   0.65335   0.67471
 Alpha virt. eigenvalues --    0.67551   0.68336   0.69572   0.70126   0.71039
 Alpha virt. eigenvalues --    0.71877   0.72140   0.75380   0.77043   0.77467
 Alpha virt. eigenvalues --    0.79848   0.81902   0.82927   0.83392   0.86148
 Alpha virt. eigenvalues --    0.88523   0.89421   0.90930   0.91287   0.94933
 Alpha virt. eigenvalues --    0.96750   0.98072   1.00674   1.02180   1.03432
 Alpha virt. eigenvalues --    1.04978   1.07632   1.07878   1.10816   1.12443
 Alpha virt. eigenvalues --    1.12761   1.13408   1.14212   1.17176   1.17742
 Alpha virt. eigenvalues --    1.19466   1.20477   1.21696   1.21725   1.23626
 Alpha virt. eigenvalues --    1.25735   1.27042   1.27269   1.27809   1.29152
 Alpha virt. eigenvalues --    1.30824   1.31923   1.32037   1.33158   1.35408
 Alpha virt. eigenvalues --    1.36216   1.37204   1.39688   1.40302   1.40670
 Alpha virt. eigenvalues --    1.41839   1.43143   1.43660   1.44043   1.44573
 Alpha virt. eigenvalues --    1.44686   1.47162   1.47919   1.49944   1.50718
 Alpha virt. eigenvalues --    1.51597   1.53127   1.53575   1.54239   1.56316
 Alpha virt. eigenvalues --    1.57939   1.59559   1.61195   1.63004   1.63366
 Alpha virt. eigenvalues --    1.63723   1.67724   1.68663   1.68739   1.71870
 Alpha virt. eigenvalues --    1.72192   1.74272   1.76469   1.76497   1.79439
 Alpha virt. eigenvalues --    1.86128   1.90565   1.91867   2.43825   2.47011
 Alpha virt. eigenvalues --    2.51301   2.51459   2.55680   2.56770   2.59945
 Alpha virt. eigenvalues --    2.64467   2.64707   2.69276   2.72195   2.73682
 Alpha virt. eigenvalues --    2.77552   2.79004   2.80212   2.80479   2.81313
 Alpha virt. eigenvalues --    2.82354   2.83350   2.83482   2.84408   2.85944
 Alpha virt. eigenvalues --    2.86302   2.89041   2.91392   2.93109   2.94484
 Alpha virt. eigenvalues --    2.94505   2.97143   2.98917   2.98998   3.03956
 Alpha virt. eigenvalues --    3.04361   3.05854   3.08833   3.12506   3.13289
 Alpha virt. eigenvalues --    3.14426   3.16568   3.17384   3.18867   3.20164
 Alpha virt. eigenvalues --    3.24029   3.26726   3.27867   3.30109   3.30486
 Alpha virt. eigenvalues --    3.31922   3.34426   3.34843   3.37123   3.38635
 Alpha virt. eigenvalues --    3.38836   3.40235   3.41754   3.43847   3.45002
 Alpha virt. eigenvalues --    3.46948   3.49117   3.49347   3.52393   3.53215
 Alpha virt. eigenvalues --    3.54664   3.57907   3.58331   3.61188   3.63412
 Alpha virt. eigenvalues --    3.65114   3.66187   3.69001   3.69517   3.70216
 Alpha virt. eigenvalues --    3.70417   3.71110   3.74145   3.74690   3.77323
 Alpha virt. eigenvalues --    3.79538   3.80814   3.83338   3.83509   3.83528
 Alpha virt. eigenvalues --    3.84623   3.87766   3.90597   3.93249   3.95137
 Alpha virt. eigenvalues --    3.96087   3.96140   3.97969   3.99211   3.99502
 Alpha virt. eigenvalues --    4.01689   4.02954   4.04281   4.04796   4.07615
 Alpha virt. eigenvalues --    4.11465   4.12492   4.12681   4.14344   4.14985
 Alpha virt. eigenvalues --    4.18053   4.18672   4.20624   4.21578   4.23532
 Alpha virt. eigenvalues --    4.24920   4.26537   4.27838   4.28792   4.32214
 Alpha virt. eigenvalues --    4.32881   4.36005   4.37679   4.38366   4.42245
 Alpha virt. eigenvalues --    4.44318   4.44460   4.46245   4.47179   4.48429
 Alpha virt. eigenvalues --    4.50957   4.52301   4.53531   4.55360   4.58569
 Alpha virt. eigenvalues --    4.59257   4.62270   4.63274   4.63599   4.65718
 Alpha virt. eigenvalues --    4.67310   4.69615   4.70181   4.74750   4.75955
 Alpha virt. eigenvalues --    4.77376   4.79669   4.85141   4.95670   5.08100
 Alpha virt. eigenvalues --    5.16379   5.32419   5.37961   5.41102   5.41583
 Alpha virt. eigenvalues --    5.42734   5.45812   5.48053   5.53890   5.57006
 Alpha virt. eigenvalues --    5.58571   5.60529   5.62017   5.66207   5.67965
 Alpha virt. eigenvalues --   24.19061  24.23168  24.29397  24.36333  24.40312
 Alpha virt. eigenvalues --   24.43329  24.44844
  Beta  occ. eigenvalues --  -10.54183 -10.53684 -10.53427 -10.53425 -10.52980
  Beta  occ. eigenvalues --  -10.52978 -10.52426  -0.92969  -0.84578  -0.83287
  Beta  occ. eigenvalues --   -0.74804  -0.68731  -0.64897  -0.60145  -0.53679
  Beta  occ. eigenvalues --   -0.50588  -0.50202  -0.48775  -0.47399  -0.43648
  Beta  occ. eigenvalues --   -0.43227  -0.41605  -0.40556  -0.39842  -0.37937
  Beta  occ. eigenvalues --   -0.34743  -0.34521
  Beta virt. eigenvalues --   -0.04209   0.01692   0.02690   0.02864   0.02962
  Beta virt. eigenvalues --    0.04855   0.05156   0.05993   0.06404   0.06555
  Beta virt. eigenvalues --    0.08231   0.08379   0.09132   0.09499   0.09951
  Beta virt. eigenvalues --    0.10032   0.11674   0.12842   0.13790   0.13829
  Beta virt. eigenvalues --    0.14653   0.15294   0.16515   0.16714   0.17913
  Beta virt. eigenvalues --    0.18516   0.19494   0.19695   0.20267   0.20960
  Beta virt. eigenvalues --    0.22599   0.22705   0.23601   0.23728   0.25328
  Beta virt. eigenvalues --    0.26131   0.26839   0.27468   0.29041   0.29663
  Beta virt. eigenvalues --    0.30834   0.30968   0.31432   0.31465   0.32793
  Beta virt. eigenvalues --    0.33111   0.33585   0.34629   0.37956   0.41458
  Beta virt. eigenvalues --    0.42959   0.44481   0.46072   0.47474   0.48126
  Beta virt. eigenvalues --    0.48371   0.50443   0.52431   0.54465   0.55392
  Beta virt. eigenvalues --    0.56091   0.56772   0.57782   0.58352   0.58543
  Beta virt. eigenvalues --    0.59820   0.60041   0.61006   0.61415   0.61484
  Beta virt. eigenvalues --    0.62084   0.63784   0.63939   0.65041   0.65328
  Beta virt. eigenvalues --    0.67559   0.67719   0.68510   0.69456   0.69907
  Beta virt. eigenvalues --    0.70882   0.71694   0.71827   0.74318   0.75623
  Beta virt. eigenvalues --    0.77226   0.79186   0.81963   0.82821   0.83417
  Beta virt. eigenvalues --    0.86217   0.88132   0.89788   0.91091   0.91127
  Beta virt. eigenvalues --    0.94976   0.96540   0.98108   1.00596   1.02265
  Beta virt. eigenvalues --    1.03905   1.04800   1.07661   1.08379   1.11011
  Beta virt. eigenvalues --    1.12482   1.12549   1.13450   1.14209   1.17269
  Beta virt. eigenvalues --    1.17883   1.19255   1.20284   1.21821   1.21823
  Beta virt. eigenvalues --    1.23724   1.25905   1.26634   1.27273   1.27911
  Beta virt. eigenvalues --    1.29259   1.30888   1.32085   1.32202   1.33079
  Beta virt. eigenvalues --    1.35463   1.36128   1.37577   1.39734   1.40622
  Beta virt. eigenvalues --    1.41104   1.41932   1.43215   1.43689   1.44003
  Beta virt. eigenvalues --    1.44642   1.45675   1.47236   1.47828   1.49960
  Beta virt. eigenvalues --    1.50619   1.51466   1.53055   1.53597   1.54322
  Beta virt. eigenvalues --    1.56654   1.57836   1.59420   1.61298   1.62816
  Beta virt. eigenvalues --    1.63341   1.63621   1.67837   1.68566   1.68879
  Beta virt. eigenvalues --    1.71826   1.72335   1.74157   1.76471   1.76773
  Beta virt. eigenvalues --    1.79380   1.86194   1.90350   1.92099   2.43901
  Beta virt. eigenvalues --    2.47336   2.51768   2.51834   2.55989   2.57166
  Beta virt. eigenvalues --    2.60936   2.65148   2.65322   2.69583   2.72694
  Beta virt. eigenvalues --    2.74417   2.78225   2.79116   2.81051   2.82097
  Beta virt. eigenvalues --    2.82168   2.83340   2.84177   2.85113   2.85317
  Beta virt. eigenvalues --    2.86445   2.87031   2.89251   2.92000   2.93365
  Beta virt. eigenvalues --    2.95008   2.96406   2.97511   2.99025   2.99789
  Beta virt. eigenvalues --    3.04170   3.05831   3.06268   3.09116   3.13379
  Beta virt. eigenvalues --    3.13857   3.14978   3.17729   3.17928   3.19270
  Beta virt. eigenvalues --    3.20528   3.25150   3.27145   3.27982   3.30431
  Beta virt. eigenvalues --    3.30681   3.32713   3.34737   3.34961   3.37820
  Beta virt. eigenvalues --    3.38970   3.39703   3.41153   3.41904   3.45126
  Beta virt. eigenvalues --    3.45171   3.48861   3.49563   3.50490   3.53934
  Beta virt. eigenvalues --    3.54183   3.55102   3.58977   3.61186   3.62485
  Beta virt. eigenvalues --    3.63941   3.64966   3.67653   3.69074   3.70426
  Beta virt. eigenvalues --    3.70786   3.71617   3.72196   3.74357   3.74738
  Beta virt. eigenvalues --    3.77538   3.80382   3.81010   3.83427   3.83813
  Beta virt. eigenvalues --    3.83849   3.85769   3.88523   3.90691   3.93910
  Beta virt. eigenvalues --    3.95338   3.96300   3.96664   3.98201   3.99513
  Beta virt. eigenvalues --    3.99937   4.01879   4.02960   4.05094   4.05162
  Beta virt. eigenvalues --    4.08870   4.11481   4.12632   4.13480   4.14591
  Beta virt. eigenvalues --    4.15341   4.18138   4.19957   4.20870   4.22100
  Beta virt. eigenvalues --    4.23644   4.25506   4.27764   4.28548   4.29189
  Beta virt. eigenvalues --    4.32278   4.33212   4.36509   4.38058   4.38847
  Beta virt. eigenvalues --    4.42853   4.44582   4.44810   4.46514   4.47949
  Beta virt. eigenvalues --    4.48736   4.52131   4.52526   4.54265   4.56199
  Beta virt. eigenvalues --    4.59530   4.60368   4.62567   4.64029   4.64100
  Beta virt. eigenvalues --    4.66349   4.68114   4.70278   4.70661   4.75509
  Beta virt. eigenvalues --    4.76272   4.77646   4.79772   4.85665   4.96459
  Beta virt. eigenvalues --    5.09844   5.16784   5.34331   5.38000   5.41850
  Beta virt. eigenvalues --    5.42323   5.43476   5.45797   5.49838   5.54532
  Beta virt. eigenvalues --    5.56950   5.58579   5.60863   5.61933   5.66109
  Beta virt. eigenvalues --    5.68031  24.20267  24.23173  24.29418  24.36338
  Beta virt. eigenvalues --   24.40773  24.43339  24.44852
          Condensed to atoms (all electrons):
              1          2          3          4          5          6
     1  C    5.513285   0.040965   0.041017  -0.032847  -0.032838   0.170333
     2  C    0.040965   5.780763  -0.319650  -0.087823   0.215514  -0.032252
     3  C    0.041017  -0.319650   5.780766   0.215551  -0.087790  -0.032298
     4  C   -0.032847  -0.087823   0.215551   5.460841  -0.121025  -0.022925
     5  C   -0.032838   0.215514  -0.087790  -0.121025   5.460757  -0.022906
     6  C    0.170333  -0.032252  -0.032298  -0.022925  -0.022906   5.275767
     7  C    0.042127   0.027926   0.027850   0.123652   0.123700  -0.003597
     8  H    0.506070  -0.059394  -0.059372  -0.019576  -0.019584   0.000689
     9  H   -0.041018   0.405390   0.024222  -0.001620  -0.011163  -0.008135
    10  H   -0.022390   0.474532  -0.028786  -0.045686   0.012103  -0.001736
    11  H   -0.022397  -0.028782   0.474545   0.012106  -0.045685  -0.001741
    12  H   -0.041013   0.024217   0.405390  -0.011162  -0.001631  -0.008125
    13  H    0.018663  -0.031390  -0.011341   0.410503   0.016049  -0.000840
    14  H   -0.024035  -0.036416   0.007769   0.498642  -0.004648   0.004379
    15  H   -0.024029   0.007759  -0.036410  -0.004641   0.498628   0.004381
    16  H    0.018659  -0.011341  -0.031398   0.016050   0.410527  -0.000841
    17  H   -0.036133   0.044546  -0.043688  -0.002787   0.010198   0.405347
    18  H   -0.036130  -0.043687   0.044546   0.010199  -0.002786   0.405343
    19  H    0.046380  -0.035524  -0.035518  -0.004649  -0.004650   0.411298
    20  H   -0.011136   0.021065   0.021057  -0.063696  -0.063679   0.000906
              7          8          9         10         11         12
     1  C    0.042127   0.506070  -0.041018  -0.022390  -0.022397  -0.041013
     2  C    0.027926  -0.059394   0.405390   0.474532  -0.028782   0.024217
     3  C    0.027850  -0.059372   0.024222  -0.028786   0.474545   0.405390
     4  C    0.123652  -0.019576  -0.001620  -0.045686   0.012106  -0.011162
     5  C    0.123700  -0.019584  -0.011163   0.012103  -0.045685  -0.001631
     6  C   -0.003597   0.000689  -0.008135  -0.001736  -0.001741  -0.008125
     7  C    5.592143   0.006845   0.008375  -0.021872  -0.021879   0.008380
     8  H    0.006845   0.468782  -0.005786   0.003676   0.003675  -0.005787
     9  H    0.008375  -0.005786   0.509372  -0.024516  -0.000162  -0.000266
    10  H   -0.021872   0.003676  -0.024516   0.462477  -0.000702  -0.000162
    11  H   -0.021879   0.003675  -0.000162  -0.000702   0.462484  -0.024524
    12  H    0.008380  -0.005787  -0.000266  -0.000162  -0.024524   0.509380
    13  H   -0.024041   0.000017  -0.006463  -0.005941  -0.000046   0.000126
    14  H   -0.086799  -0.001648  -0.005735   0.003846  -0.000378   0.000028
    15  H   -0.086809  -0.001648   0.000028  -0.000378   0.003847  -0.005737
    16  H   -0.024054   0.000017   0.000126  -0.000046  -0.005942  -0.006463
    17  H    0.000808  -0.007604  -0.000067  -0.000380  -0.000277   0.003329
    18  H    0.000807  -0.007602   0.003330  -0.000277  -0.000380  -0.000067
    19  H    0.000805   0.005100  -0.000356   0.001057   0.001058  -0.000357
    20  H    0.456376  -0.000014  -0.000256  -0.000001  -0.000001  -0.000256
             13         14         15         16         17         18
     1  C    0.018663  -0.024035  -0.024029   0.018659  -0.036133  -0.036130
     2  C   -0.031390  -0.036416   0.007759  -0.011341   0.044546  -0.043687
     3  C   -0.011341   0.007769  -0.036410  -0.031398  -0.043688   0.044546
     4  C    0.410503   0.498642  -0.004641   0.016050  -0.002787   0.010199
     5  C    0.016049  -0.004648   0.498628   0.410527   0.010198  -0.002786
     6  C   -0.000840   0.004379   0.004381  -0.000841   0.405347   0.405343
     7  C   -0.024041  -0.086799  -0.086809  -0.024054   0.000808   0.000807
     8  H    0.000017  -0.001648  -0.001648   0.000017  -0.007604  -0.007602
     9  H   -0.006463  -0.005735   0.000028   0.000126  -0.000067   0.003330
    10  H   -0.005941   0.003846  -0.000378  -0.000046  -0.000380  -0.000277
    11  H   -0.000046  -0.000378   0.003847  -0.005942  -0.000277  -0.000380
    12  H    0.000126   0.000028  -0.005737  -0.006463   0.003329  -0.000067
    13  H    0.519557  -0.025122  -0.000194  -0.000226   0.000013  -0.000018
    14  H   -0.025122   0.491550  -0.000917  -0.000194  -0.000006  -0.000062
    15  H   -0.000194  -0.000917   0.491571  -0.025118  -0.000062  -0.000006
    16  H   -0.000226  -0.000194  -0.025118   0.519546  -0.000018   0.000013
    17  H    0.000013  -0.000006  -0.000062  -0.000018   0.536642  -0.019907
    18  H   -0.000018  -0.000062  -0.000006   0.000013  -0.019907   0.536621
    19  H    0.000009  -0.000030  -0.000030   0.000009  -0.029434  -0.029431
    20  H   -0.005780  -0.003170  -0.003171  -0.005780  -0.000002  -0.000002
             19         20
     1  C    0.046380  -0.011136
     2  C   -0.035524   0.021065
     3  C   -0.035518   0.021057
     4  C   -0.004649  -0.063696
     5  C   -0.004650  -0.063679
     6  C    0.411298   0.000906
     7  C    0.000805   0.456376
     8  H    0.005100  -0.000014
     9  H   -0.000356  -0.000256
    10  H    0.001057  -0.000001
    11  H    0.001058  -0.000001
    12  H   -0.000357  -0.000256
    13  H    0.000009  -0.005780
    14  H   -0.000030  -0.003170
    15  H   -0.000030  -0.003171
    16  H    0.000009  -0.005780
    17  H   -0.029434  -0.000002
    18  H   -0.029431  -0.000002
    19  H    0.520866   0.000007
    20  H    0.000007   0.503222
 Mulliken atomic charges:
              1
     1  C   -0.073536
     2  C   -0.356420
     3  C   -0.356463
     4  C   -0.329105
     5  C   -0.329090
     6  C   -0.543050
     7  C   -0.150745
     8  H    0.193143
     9  H    0.154702
    10  H    0.195184
    11  H    0.195180
    12  H    0.154701
    13  H    0.146463
    14  H    0.182946
    15  H    0.182936
    16  H    0.146473
    17  H    0.139483
    18  H    0.139496
    19  H    0.153390
    20  H    0.154312
 Sum of Mulliken atomic charges =   0.00000
 Mulliken charges with hydrogens summed into heavy atoms:
              1
     1  C    0.119608
     2  C   -0.006534
     3  C   -0.006582
     4  C    0.000304
     5  C    0.000319
     6  C   -0.110681
     7  C    0.003567
 Sum of Mulliken charges with hydrogens summed into heavy atoms =   0.00000
          Atomic-Atomic Spin Densities.
              1          2          3          4          5          6
     1  C    0.099004  -0.023653  -0.023674  -0.024296  -0.024278  -0.021451
     2  C   -0.023653   0.095718  -0.046578  -0.048524   0.064032   0.010291
     3  C   -0.023674  -0.046578   0.095742   0.064055  -0.048517   0.010292
     4  C   -0.024296  -0.048524   0.064055   0.079116  -0.039752   0.004500
     5  C   -0.024278   0.064032  -0.048517  -0.039752   0.079106   0.004504
     6  C   -0.021451   0.010291   0.010292   0.004500   0.004504   0.001777
     7  C    0.012281  -0.003060  -0.003072  -0.089053  -0.089060  -0.001947
     8  H    0.013040  -0.005153  -0.005157   0.002772   0.002773  -0.006329
     9  H    0.001029  -0.007927   0.002476   0.001987  -0.002786   0.000111
    10  H    0.002978  -0.000798  -0.003426   0.003552   0.005750  -0.000913
    11  H    0.002977  -0.003425  -0.000799   0.005749   0.003553  -0.000913
    12  H    0.001031   0.002475  -0.007929  -0.002787   0.001988   0.000110
    13  H    0.006134   0.013571  -0.003221  -0.019085   0.000741   0.000119
    14  H   -0.012869  -0.002018   0.007085   0.040944   0.005656   0.001227
    15  H   -0.012871   0.007081  -0.002007   0.005662   0.040944   0.001227
    16  H    0.006133  -0.003219   0.013567   0.000739  -0.019080   0.000118
    17  H   -0.001869   0.000622  -0.000217  -0.000443  -0.000024   0.001607
    18  H   -0.001869  -0.000217   0.000622  -0.000024  -0.000443   0.001607
    19  H    0.005798  -0.001397  -0.001397   0.000015   0.000015  -0.003532
    20  H   -0.000382  -0.001328  -0.001330  -0.000215  -0.000217  -0.000416
              7          8          9         10         11         12
     1  C    0.012281   0.013040   0.001029   0.002978   0.002977   0.001031
     2  C   -0.003060  -0.005153  -0.007927  -0.000798  -0.003425   0.002475
     3  C   -0.003072  -0.005157   0.002476  -0.003426  -0.000799  -0.007929
     4  C   -0.089053   0.002772   0.001987   0.003552   0.005749  -0.002787
     5  C   -0.089060   0.002773  -0.002786   0.005750   0.003553   0.001988
     6  C   -0.001947  -0.006329   0.000111  -0.000913  -0.000913   0.000110
     7  C    1.194415  -0.002878   0.004472  -0.010299  -0.010299   0.004473
     8  H   -0.002878  -0.002000   0.000461  -0.000048  -0.000048   0.000462
     9  H    0.004472   0.000461  -0.004168   0.002254   0.000073  -0.000035
    10  H   -0.010299  -0.000048   0.002254  -0.011969  -0.000221   0.000073
    11  H   -0.010299  -0.000048   0.000073  -0.000221  -0.011968   0.002255
    12  H    0.004473   0.000462  -0.000035   0.000073   0.002255  -0.004169
    13  H   -0.002927   0.000079  -0.000076   0.000125   0.000014   0.000003
    14  H   -0.042516  -0.000674  -0.000023  -0.000159  -0.000040  -0.000007
    15  H   -0.042529  -0.000674  -0.000007  -0.000040  -0.000159  -0.000023
    16  H   -0.002927   0.000079   0.000003   0.000014   0.000125  -0.000076
    17  H    0.000359  -0.000034   0.000002  -0.000020  -0.000052   0.000036
    18  H    0.000359  -0.000034   0.000036  -0.000052  -0.000020   0.000002
    19  H   -0.000210   0.000014   0.000039  -0.000013  -0.000013   0.000039
    20  H    0.002680   0.000062  -0.000010   0.000033   0.000033  -0.000010
             13         14         15         16         17         18
     1  C    0.006134  -0.012869  -0.012871   0.006133  -0.001869  -0.001869
     2  C    0.013571  -0.002018   0.007081  -0.003219   0.000622  -0.000217
     3  C   -0.003221   0.007085  -0.002007   0.013567  -0.000217   0.000622
     4  C   -0.019085   0.040944   0.005662   0.000739  -0.000443  -0.000024
     5  C    0.000741   0.005656   0.040944  -0.019080  -0.000024  -0.000443
     6  C    0.000119   0.001227   0.001227   0.000118   0.001607   0.001607
     7  C   -0.002927  -0.042516  -0.042529  -0.002927   0.000359   0.000359
     8  H    0.000079  -0.000674  -0.000674   0.000079  -0.000034  -0.000034
     9  H   -0.000076  -0.000023  -0.000007   0.000003   0.000002   0.000036
    10  H    0.000125  -0.000159  -0.000040   0.000014  -0.000020  -0.000052
    11  H    0.000014  -0.000040  -0.000159   0.000125  -0.000052  -0.000020
    12  H    0.000003  -0.000007  -0.000023  -0.000076   0.000036   0.000002
    13  H    0.016420  -0.005178  -0.000283   0.000064   0.000001   0.000000
    14  H   -0.005178   0.038667   0.003355  -0.000283  -0.000006  -0.000007
    15  H   -0.000283   0.003355   0.038677  -0.005179  -0.000007  -0.000006
    16  H    0.000064  -0.000283  -0.005179   0.016421   0.000000   0.000001
    17  H    0.000001  -0.000006  -0.000007   0.000000   0.000035   0.000013
    18  H    0.000000  -0.000007  -0.000006   0.000001   0.000013   0.000035
    19  H    0.000005  -0.000012  -0.000012   0.000005  -0.000003  -0.000003
    20  H    0.001215  -0.001570  -0.001570   0.001214   0.000000   0.000000
             19         20
     1  C    0.005798  -0.000382
     2  C   -0.001397  -0.001328
     3  C   -0.001397  -0.001330
     4  C    0.000015  -0.000215
     5  C    0.000015  -0.000217
     6  C   -0.003532  -0.000416
     7  C   -0.000210   0.002680
     8  H    0.000014   0.000062
     9  H    0.000039  -0.000010
    10  H   -0.000013   0.000033
    11  H   -0.000013   0.000033
    12  H    0.000039  -0.000010
    13  H    0.000005   0.001215
    14  H   -0.000012  -0.001570
    15  H   -0.000012  -0.001570
    16  H    0.000005   0.001214
    17  H   -0.000003   0.000000
    18  H   -0.000003   0.000000
    19  H    0.000028   0.000002
    20  H    0.000002  -0.028587
 Mulliken atomic spin densities:
              1
     1  C    0.003192
     2  C    0.046493
     3  C    0.046515
     4  C   -0.015088
     5  C   -0.015096
     6  C    0.001988
     7  C    0.918260
     8  H   -0.003289
     9  H   -0.002089
    10  H   -0.013178
    11  H   -0.013178
    12  H   -0.002090
    13  H    0.007719
    14  H    0.031573
    15  H    0.031580
    16  H    0.007719
    17  H   -0.000002
    18  H   -0.000002
    19  H   -0.000632
    20  H   -0.030396
 Sum of Mulliken atomic spin densities =   1.00000
 Electronic spatial extent (au):  <R**2>=            838.1292
 Charge=              0.0000 electrons
 Dipole moment (field-independent basis, Debye):
    X=             -0.0282    Y=              0.0000    Z=              0.6814  Tot=              0.6819
 Quadrupole moment (field-independent basis, Debye-Ang):
   XX=            -47.9054   YY=            -46.3723   ZZ=            -46.8775
   XY=             -0.0001   XZ=              0.9977   YZ=              0.0003
 Traceless Quadrupole moment (field-independent basis, Debye-Ang):
   XX=             -0.8537   YY=              0.6795   ZZ=              0.1742
   XY=             -0.0001   XZ=              0.9977   YZ=              0.0003
 Octapole moment (field-independent basis, Debye-Ang**2):
  XXX=              2.9311  YYY=             -0.0002  ZZZ=              2.2897  XYY=             -0.0673
  XXY=              0.0005  XXZ=              3.8958  XZZ=             -2.3951  YZZ=             -0.0001
  YYZ=              0.6882  XYZ=              0.0001
 Hexadecapole moment (field-independent basis, Debye-Ang**3):
 XXXX=           -713.0815 YYYY=           -380.9238 ZZZZ=           -114.5690 XXXY=             -0.0008
 XXXZ=              4.0412 YYYX=             -0.0010 YYYZ=              0.0013 ZZZX=              7.7575
 ZZZY=              0.0005 XXYY=           -177.9568 XXZZ=           -140.5918 YYZZ=            -83.0484
 XXYZ=              0.0010 YYXZ=             -4.9071 ZZXY=              0.0001
 N-N= 3.157687626277D+02 E-N=-1.892410652433D+03  KE= 4.085507278721D+02
                          Isotropic Fermi Contact Couplings
        Atom                 a.u.       MegaHertz       Gauss      10(-4) cm-1
     1  C(13)             -0.00038      -0.42712      -0.15241      -0.14247
     2  C(13)              0.00854       9.59699       3.42444       3.20121
     3  C(13)              0.00854       9.59878       3.42508       3.20181
     4  C(13)             -0.01009     -11.34737      -4.04903      -3.78508
     5  C(13)             -0.01009     -11.34151      -4.04693      -3.78312
     6  C(13)              0.00029       0.32646       0.11649       0.10889
     7  C(13)              0.37335     419.71376     149.76430     140.00144
     8  H(1)               0.00019       0.83557       0.29815       0.27871
     9  H(1)              -0.00045      -2.02298      -0.72185      -0.67479
    10  H(1)              -0.00036      -1.59650      -0.56967      -0.53253
    11  H(1)              -0.00036      -1.59721      -0.56992      -0.53277
    12  H(1)              -0.00045      -2.02368      -0.72210      -0.67503
    13  H(1)               0.00370      16.53539       5.90024       5.51561
    14  H(1)               0.01989      88.91694      31.72777      29.65950
    15  H(1)               0.01990      88.93671      31.73483      29.66609
    16  H(1)               0.00370      16.53765       5.90105       5.51637
    17  H(1)               0.00001       0.04323       0.01543       0.01442
    18  H(1)               0.00001       0.04317       0.01541       0.01440
    19  H(1)               0.00005       0.20903       0.07459       0.06972
    20  H(1)              -0.00479     -21.41397      -7.64104      -7.14293
 --------------------------------------------------------
       Center         ----  Spin Dipole Couplings  ----
                      3XX-RR        3YY-RR        3ZZ-RR
 --------------------------------------------------------
     1   Atom        0.006787     -0.005771     -0.001016
     2   Atom        0.014570     -0.005632     -0.008937
     3   Atom        0.014572     -0.005633     -0.008939
     4   Atom       -0.010849      0.003049      0.007800
     5   Atom       -0.010851      0.003052      0.007799
     6   Atom        0.003271     -0.001760     -0.001510
     7   Atom       -0.476966     -0.494186      0.971152
     8   Atom        0.003377     -0.003212     -0.000165
     9   Atom        0.002245      0.000090     -0.002335
    10   Atom        0.006834     -0.001971     -0.004863
    11   Atom        0.006833     -0.001970     -0.004863
    12   Atom        0.002245      0.000090     -0.002335
    13   Atom       -0.010451      0.018969     -0.008519
    14   Atom       -0.006309      0.000997      0.005313
    15   Atom       -0.006310      0.000996      0.005314
    16   Atom       -0.010452      0.018972     -0.008520
    17   Atom        0.002044     -0.001062     -0.000982
    18   Atom        0.002044     -0.001062     -0.000982
    19   Atom        0.003061     -0.001623     -0.001438
    20   Atom        0.064009     -0.058013     -0.005996
 --------------------------------------------------------
                        XY            XZ            YZ
 --------------------------------------------------------
     1   Atom        0.000000     -0.003680      0.000000
     2   Atom       -0.007008     -0.006573      0.001522
     3   Atom        0.007009     -0.006573     -0.001523
     4   Atom       -0.010564     -0.012259      0.020639
     5   Atom        0.010568     -0.012261     -0.020644
     6   Atom        0.000000     -0.000521      0.000000
     7   Atom       -0.000006      0.115903     -0.000002
     8   Atom        0.000000     -0.003898      0.000000
     9   Atom       -0.004576     -0.001391      0.001288
    10   Atom       -0.008536      0.003712     -0.001310
    11   Atom        0.008537      0.003712      0.001310
    12   Atom        0.004576     -0.001391     -0.001288
    13   Atom       -0.002137      0.000104      0.004602
    14   Atom       -0.004969     -0.003286      0.009037
    15   Atom        0.004969     -0.003286     -0.009037
    16   Atom        0.002136      0.000104     -0.004602
    17   Atom        0.000583     -0.000552     -0.000105
    18   Atom       -0.000583     -0.000552      0.000105
    19   Atom        0.000000      0.000520      0.000000
    20   Atom        0.000011      0.026425      0.000003
 --------------------------------------------------------


 ---------------------------------------------------------------------------------
              Anisotropic Spin Dipole Couplings in Principal Axis System
 ---------------------------------------------------------------------------------

       Atom             a.u.   MegaHertz   Gauss  10(-4) cm-1        Axes

              Baa    -0.0058    -0.774    -0.276    -0.258  0.0000  1.0000  0.0001
     1 C(13)  Bbb    -0.0025    -0.332    -0.119    -0.111  0.3692 -0.0001  0.9294
              Bcc     0.0082     1.107     0.395     0.369  0.9294  0.0000 -0.3692
 
              Baa    -0.0107    -1.433    -0.511    -0.478  0.2750  0.0934  0.9569
     2 C(13)  Bbb    -0.0077    -1.039    -0.371    -0.346  0.2509  0.9538 -0.1652
              Bcc     0.0184     2.472     0.882     0.824  0.9281 -0.2856 -0.2389
 
              Baa    -0.0107    -1.433    -0.511    -0.478  0.2750 -0.0932  0.9569
     3 C(13)  Bbb    -0.0077    -1.039    -0.371    -0.346 -0.2510  0.9538  0.1650
              Bcc     0.0184     2.472     0.882     0.824  0.9281  0.2856 -0.2389
 
              Baa    -0.0170    -2.276    -0.812    -0.759  0.9248  0.1139  0.3629
     4 C(13)  Bbb    -0.0153    -2.055    -0.733    -0.685  0.1458  0.7751 -0.6148
              Bcc     0.0323     4.331     1.545     1.445 -0.3513  0.6215  0.7002
 
              Baa    -0.0170    -2.277    -0.812    -0.759  0.9248 -0.1141  0.3628
     5 C(13)  Bbb    -0.0153    -2.055    -0.733    -0.685 -0.1457  0.7750  0.6149
              Bcc     0.0323     4.332     1.546     1.445 -0.3513 -0.6216  0.7001
 
              Baa    -0.0018    -0.236    -0.084    -0.079  0.0000  1.0000  0.0000
     6 C(13)  Bbb    -0.0016    -0.210    -0.075    -0.070  0.1071  0.0000  0.9942
              Bcc     0.0033     0.446     0.159     0.149  0.9942  0.0000 -0.1071
 
              Baa    -0.4942   -66.315   -23.663   -22.120  0.0007  1.0000 -0.0001
     7 C(13)  Bbb    -0.4862   -65.241   -23.280   -21.762  0.9969 -0.0007 -0.0793
              Bcc     0.9804   131.556    46.943    43.882  0.0793  0.0000  0.9969
 
              Baa    -0.0032    -1.714    -0.612    -0.572  0.0001  1.0000  0.0002
     8 H(1)   Bbb    -0.0027    -1.427    -0.509    -0.476  0.5415 -0.0002  0.8407
              Bcc     0.0059     3.141     1.121     1.048  0.8407  0.0000 -0.5415
 
              Baa    -0.0036    -1.899    -0.678    -0.633  0.5845  0.7932 -0.1706
     9 H(1)   Bbb    -0.0027    -1.453    -0.519    -0.485  0.2738  0.0051  0.9618
              Bcc     0.0063     3.352     1.196     1.118  0.7638 -0.6089 -0.2142
 
              Baa    -0.0075    -4.013    -1.432    -1.339  0.5430  0.7425 -0.3923
    10 H(1)   Bbb    -0.0054    -2.856    -1.019    -0.953  0.0387  0.4445  0.8949
              Bcc     0.0129     6.869     2.451     2.291  0.8389 -0.5011  0.2126
 
              Baa    -0.0075    -4.013    -1.432    -1.339 -0.5430  0.7425  0.3923
    11 H(1)   Bbb    -0.0054    -2.856    -1.019    -0.953  0.0387 -0.4445  0.8949
              Bcc     0.0129     6.869     2.451     2.291  0.8388  0.5012  0.2126
 
              Baa    -0.0036    -1.899    -0.678    -0.633 -0.5845  0.7932  0.1707
    12 H(1)   Bbb    -0.0027    -1.453    -0.519    -0.485  0.2739 -0.0051  0.9618
              Bcc     0.0063     3.352     1.196     1.118  0.7638  0.6089 -0.2142
 
              Baa    -0.0107    -5.726    -2.043    -1.910  0.9543  0.1116 -0.2773
    13 H(1)   Bbb    -0.0091    -4.873    -1.739    -1.625  0.2909 -0.1330  0.9475
              Bcc     0.0199    10.598     3.782     3.535 -0.0689  0.9848  0.1594
 
              Baa    -0.0090    -4.808    -1.715    -1.604  0.8192  0.5509 -0.1596
    14 H(1)   Bbb    -0.0050    -2.680    -0.956    -0.894  0.5060 -0.5632  0.6533
              Bcc     0.0140     7.487     2.672     2.497 -0.2700  0.6159  0.7401
 
              Baa    -0.0090    -4.808    -1.716    -1.604  0.8192 -0.5508 -0.1595
    15 H(1)   Bbb    -0.0050    -2.679    -0.956    -0.894  0.5059  0.5632  0.6533
              Bcc     0.0140     7.487     2.672     2.498 -0.2700 -0.6159  0.7401
 
              Baa    -0.0107    -5.726    -2.043    -1.910  0.9543 -0.1116 -0.2771
    16 H(1)   Bbb    -0.0091    -4.874    -1.739    -1.626  0.2907  0.1331  0.9475
              Bcc     0.0199    10.600     3.782     3.536  0.0688  0.9848 -0.1594
 
              Baa    -0.0012    -0.623    -0.222    -0.208 -0.1706  0.9842  0.0467
    17 H(1)   Bbb    -0.0011    -0.576    -0.206    -0.192  0.1770 -0.0160  0.9841
              Bcc     0.0022     1.199     0.428     0.400  0.9693  0.1761 -0.1715
 
              Baa    -0.0012    -0.623    -0.222    -0.208  0.1706  0.9842 -0.0466
    18 H(1)   Bbb    -0.0011    -0.576    -0.206    -0.192  0.1770  0.0159  0.9841
              Bcc     0.0022     1.199     0.428     0.400  0.9693 -0.1761 -0.1715
 
              Baa    -0.0016    -0.866    -0.309    -0.289  0.0000  1.0000  0.0000
    19 H(1)   Bbb    -0.0015    -0.799    -0.285    -0.266 -0.1134  0.0000  0.9935
              Bcc     0.0031     1.665     0.594     0.555  0.9935  0.0000  0.1134
 
              Baa    -0.0580   -30.953   -11.045   -10.325 -0.0001  1.0000  0.0000
    20 H(1)   Bbb    -0.0149    -7.924    -2.827    -2.643 -0.3177  0.0000  0.9482
              Bcc     0.0729    38.877    13.872    12.968  0.9482  0.0001  0.3177
 

 ---------------------------------------------------------------------------------

 Calling FoFJK, ICntrl=      2127 FMM=F ISym2X=0 I1Cent= 0 IOpClX= 1 NMat=1 NMatS=1 NMatT=0.
 ***** Axes restored to original set *****
 -------------------------------------------------------------------
 Center     Atomic                   Forces (Hartrees/Bohr)
 Number     Number              X              Y              Z
 -------------------------------------------------------------------
      1        6           0.004611699    0.000698279   -0.004390392
      2        6           0.001641267   -0.007045734    0.003573885
      3        6           0.003727722    0.001580864    0.006991563
      4        6          -0.004892637    0.006532176   -0.022481330
      5        6          -0.003520115    0.012372187   -0.020128256
      6        6           0.005754489   -0.002467727    0.002878300
      7        6          -0.009795136   -0.018787897    0.053036424
      8        1          -0.001153563    0.004222556   -0.009962813
      9        1           0.000032217    0.011878340   -0.002947793
     10        1          -0.000222877   -0.002975121    0.011619407
     11        1          -0.000843688   -0.005603760    0.010581151
     12        1          -0.004146189   -0.005796566   -0.009964357
     13        1           0.005244849    0.002862738    0.010670112
     14        1           0.000438235    0.005004688   -0.008389492
     15        1          -0.000255670    0.002084596   -0.009556656
     16        1           0.001999034   -0.010859617    0.005216416
     17        1          -0.005644277   -0.006202067   -0.009514170
     18        1          -0.001233566    0.012411533   -0.002108555
     19        1          -0.001515778   -0.004338319    0.011816434
     20        1           0.009773984    0.004428850   -0.016939878
 -------------------------------------------------------------------
 Cartesian Forces:  Max     0.053036424 RMS     0.010569893

 GradGradGradGradGradGradGradGradGradGradGradGradGradGradGradGradGradGrad
 Berny optimization.
 Internal  Forces:  Max     0.013013040 RMS     0.004931250
 Search for a local minimum.
 Step number   1 out of a maximum of  120
 All quantities printed in internal units (Hartrees-Bohrs-Radians)
 Swaping is turned off.
 Second derivative matrix not updated -- first step.
 ITU=  0
     Eigenvalues ---    0.00339   0.00487   0.00521   0.00729   0.01618
     Eigenvalues ---    0.02128   0.03085   0.03823   0.04318   0.04457
     Eigenvalues ---    0.04646   0.04789   0.04946   0.05528   0.05579
     Eigenvalues ---    0.05681   0.05857   0.06047   0.06677   0.07983
     Eigenvalues ---    0.07984   0.08465   0.08548   0.08961   0.09005
     Eigenvalues ---    0.11660   0.12312   0.14098   0.15691   0.16000
     Eigenvalues ---    0.16000   0.16000   0.17409   0.20897   0.27235
     Eigenvalues ---    0.27330   0.27902   0.29018   0.29045   0.29164
     Eigenvalues ---    0.29212   0.32229   0.32291   0.32292   0.32363
     Eigenvalues ---    0.32364   0.32399   0.32402   0.32458   0.32484
     Eigenvalues ---    0.32500   0.32507   0.32522   0.32526
 Quadratic step=9.519D-01 exceeds max=3.000D-01 adjusted using Lamda=-5.622D-02.
 Angle between NR and scaled steps=  25.43 degrees.
 Angle between quadratic step and forces=  38.27 degrees.
 Linear search not attempted -- option 19 set.
 Iteration  1 RMS(Cart)=  0.01962426 RMS(Int)=  0.00106598
 Iteration  2 RMS(Cart)=  0.00108369 RMS(Int)=  0.00069157
 Iteration  3 RMS(Cart)=  0.00000097 RMS(Int)=  0.00069157
 Variable       Old X    -DE/DX   Delta X   Delta X   Delta X     New X
                                 (Linear)    (Quad)   (Total)
    R1        2.91306  -0.00681   0.00000  -0.02032  -0.02055   2.89250
    R2        2.91322  -0.00685   0.00000  -0.02044  -0.02067   2.89255
    R3        2.89562  -0.00323   0.00000  -0.00928  -0.00928   2.88634
    R4        2.10426  -0.01060   0.00000  -0.02800  -0.02800   2.07626
    R5        2.89667  -0.00029   0.00000  -0.00082  -0.00083   2.89585
    R6        2.10115  -0.01178   0.00000  -0.03097  -0.03097   2.07018
    R7        2.10312  -0.01188   0.00000  -0.03134  -0.03134   2.07178
    R8        2.89657  -0.00026   0.00000  -0.00075  -0.00075   2.89582
    R9        2.10315  -0.01189   0.00000  -0.03136  -0.03136   2.07179
   R10        2.10120  -0.01179   0.00000  -0.03101  -0.03101   2.07019
   R11        2.89175  -0.01279   0.00000  -0.03620  -0.03597   2.85578
   R12        2.09899  -0.01144   0.00000  -0.03000  -0.03000   2.06899
   R13        2.10183  -0.00958   0.00000  -0.02521  -0.02521   2.07661
   R14        2.89164  -0.01276   0.00000  -0.03612  -0.03589   2.85575
   R15        2.10185  -0.00958   0.00000  -0.02523  -0.02523   2.07662
   R16        2.09892  -0.01142   0.00000  -0.02994  -0.02994   2.06898
   R17        2.09938  -0.01246   0.00000  -0.03268  -0.03268   2.06670
   R18        2.09926  -0.01242   0.00000  -0.03258  -0.03258   2.06668
   R19        2.10014  -0.01266   0.00000  -0.03325  -0.03325   2.06689
   R20        2.09966  -0.01301   0.00000  -0.03415  -0.03415   2.06551
    A1        1.92849  -0.00237   0.00000  -0.00771  -0.00793   1.92057
    A2        1.92956   0.00140   0.00000   0.00521   0.00539   1.93495
    A3        1.89678  -0.00014   0.00000  -0.00311  -0.00321   1.89356
    A4        1.92954   0.00140   0.00000   0.00520   0.00538   1.93492
    A5        1.89665  -0.00013   0.00000  -0.00307  -0.00317   1.89348
    A6        1.88160  -0.00016   0.00000   0.00348   0.00346   1.88507
    A7        1.93798   0.00220   0.00000   0.01705   0.01641   1.95439
    A8        1.91408  -0.00038   0.00000  -0.00014  -0.00038   1.91370
    A9        1.92065  -0.00269   0.00000  -0.02107  -0.02076   1.89989
   A10        1.89904   0.00110   0.00000   0.01062   0.01080   1.90984
   A11        1.90603   0.00012   0.00000   0.00002   0.00021   1.90623
   A12        1.88514  -0.00037   0.00000  -0.00679  -0.00696   1.87818
   A13        1.93801   0.00219   0.00000   0.01704   0.01639   1.95441
   A14        1.92070  -0.00270   0.00000  -0.02110  -0.02079   1.89991
   A15        1.91410  -0.00038   0.00000  -0.00016  -0.00040   1.91370
   A16        1.90603   0.00013   0.00000   0.00004   0.00023   1.90626
   A17        1.89906   0.00110   0.00000   0.01062   0.01081   1.90987
   A18        1.88501  -0.00037   0.00000  -0.00674  -0.00691   1.87810
   A19        1.93075   0.00116   0.00000   0.01451   0.01417   1.94491
   A20        1.90672   0.00109   0.00000   0.01103   0.01072   1.91744
   A21        1.91810   0.00015   0.00000  -0.00479  -0.00476   1.91334
   A22        1.90257   0.00223   0.00000   0.01905   0.01858   1.92115
   A23        1.91674  -0.00340   0.00000  -0.02820  -0.02794   1.88880
   A24        1.88835  -0.00125   0.00000  -0.01176  -0.01164   1.87671
   A25        1.93076   0.00115   0.00000   0.01450   0.01416   1.94492
   A26        1.91805   0.00016   0.00000  -0.00476  -0.00473   1.91332
   A27        1.90675   0.00109   0.00000   0.01101   0.01070   1.91745
   A28        1.91672  -0.00340   0.00000  -0.02820  -0.02793   1.88879
   A29        1.90254   0.00224   0.00000   0.01907   0.01860   1.92115
   A30        1.88840  -0.00125   0.00000  -0.01179  -0.01167   1.87674
   A31        1.92180   0.00280   0.00000   0.01382   0.01374   1.93553
   A32        1.92180   0.00280   0.00000   0.01382   0.01374   1.93554
   A33        1.93247  -0.00049   0.00000  -0.00401  -0.00398   1.92849
   A34        1.88779  -0.00180   0.00000  -0.00484  -0.00502   1.88277
   A35        1.89956  -0.00172   0.00000  -0.00965  -0.00963   1.88993
   A36        1.89961  -0.00172   0.00000  -0.00967  -0.00965   1.88997
   A37        1.94274   0.00531   0.00000   0.04117   0.03879   1.98153
   A38        1.92169   0.00356   0.00000   0.05022   0.04574   1.96743
   A39        1.92182   0.00355   0.00000   0.05016   0.04569   1.96751
    D1       -0.97851   0.00161   0.00000   0.00747   0.00776  -0.97075
    D2       -3.07787  -0.00091   0.00000  -0.01656  -0.01629  -3.09416
    D3        1.13393   0.00141   0.00000   0.00463   0.00472   1.13865
    D4       -3.12030   0.00050   0.00000   0.00260   0.00271  -3.11760
    D5        1.06352  -0.00202   0.00000  -0.02144  -0.02134   1.04218
    D6       -1.00786   0.00030   0.00000  -0.00024  -0.00034  -1.00820
    D7        1.10105  -0.00004   0.00000  -0.00279  -0.00271   1.09834
    D8       -0.99831  -0.00257   0.00000  -0.02683  -0.02676  -1.02506
    D9       -3.06969  -0.00024   0.00000  -0.00564  -0.00575  -3.07544
   D10        0.97851  -0.00162   0.00000  -0.00748  -0.00777   0.97074
   D11       -1.13399  -0.00141   0.00000  -0.00463  -0.00471  -1.13871
   D12        3.07792   0.00091   0.00000   0.01654   0.01626   3.09418
   D13        3.12031  -0.00050   0.00000  -0.00260  -0.00270   3.11761
   D14        1.00781  -0.00030   0.00000   0.00025   0.00035   1.00815
   D15       -1.06346   0.00202   0.00000   0.02142   0.02132  -1.04214
   D16       -1.10113   0.00004   0.00000   0.00281   0.00273  -1.09840
   D17        3.06956   0.00025   0.00000   0.00566   0.00578   3.07533
   D18        0.99829   0.00257   0.00000   0.02683   0.02675   1.02504
   D19       -3.11104  -0.00118   0.00000  -0.00695  -0.00700  -3.11804
   D20       -1.03093   0.00009   0.00000   0.00432   0.00437  -1.02657
   D21        1.07064  -0.00054   0.00000  -0.00133  -0.00133   1.06931
   D22        1.03096  -0.00009   0.00000  -0.00430  -0.00435   1.02661
   D23        3.11107   0.00118   0.00000   0.00697   0.00702   3.11809
   D24       -1.07054   0.00054   0.00000   0.00133   0.00132  -1.06922
   D25       -1.03996  -0.00064   0.00000  -0.00564  -0.00570  -1.04566
   D26        1.04015   0.00064   0.00000   0.00562   0.00567   1.04582
   D27       -3.14147   0.00000   0.00000  -0.00002  -0.00002  -3.14149
   D28        0.98456  -0.00424   0.00000  -0.04348  -0.04332   0.94125
   D29        3.07900  -0.00007   0.00000  -0.00393  -0.00377   3.07522
   D30       -1.13488  -0.00084   0.00000  -0.01447  -0.01437  -1.14926
   D31        3.09282  -0.00262   0.00000  -0.02608  -0.02595   3.06686
   D32       -1.09593   0.00155   0.00000   0.01347   0.01359  -1.08235
   D33        0.97337   0.00078   0.00000   0.00294   0.00299   0.97636
   D34       -1.13647  -0.00237   0.00000  -0.02815  -0.02801  -1.16448
   D35        0.95797   0.00180   0.00000   0.01141   0.01153   0.96950
   D36        3.02727   0.00103   0.00000   0.00087   0.00093   3.02820
   D37       -0.98453   0.00424   0.00000   0.04348   0.04331  -0.94122
   D38        1.13487   0.00084   0.00000   0.01448   0.01439   1.14926
   D39       -3.07895   0.00006   0.00000   0.00391   0.00376  -3.07520
   D40        1.13659   0.00237   0.00000   0.02810   0.02797   1.16456
   D41       -3.02720  -0.00103   0.00000  -0.00089  -0.00095  -3.02815
   D42       -0.95784  -0.00181   0.00000  -0.01146  -0.01159  -0.96942
   D43       -3.09284   0.00262   0.00000   0.02611   0.02598  -3.06686
   D44       -0.97343  -0.00078   0.00000  -0.00289  -0.00294  -0.97638
   D45        1.09593  -0.00155   0.00000  -0.01346  -0.01357   1.08235
   D46       -0.99213   0.00711   0.00000   0.07884   0.07974  -0.91239
[...]
 00463548,0.00365920,-0.01356322,-0.02233822,-0.05841165,-0.05786673,-0
 .05308490,-0.09643882,-0.00008969,-0.00038044,-0.00019744,0.16661696,0
 .08111448,0.19896161,-0.05108212,-0.01078279,0.02966379,0.00068368,0.0
 0611679,-0.01972472,0.00021442,0.00325565,-0.00726091,0.00112324,0.000
 80065,-0.00075744,0.00045324,-0.00000918,-0.00103516,-0.00711270,-0.01
 085016,0.03138013,-0.00008404,-0.00007743,0.00007251,0.06045206,-0.011
 09145,-0.07526101,0.07812166,0.00106042,0.00532192,-0.01789687,-0.0028
 9399,-0.01512903,0.03159395,0.00074684,0.00034659,0.00010887,-0.001050
 84,0.00132398,0.00068309,0.00091687,0.00133351,-0.00461002,0.00007777,
 -0.00028858,-0.00004994,0.01177038,0.08666716,0.03044096,0.07793821,-0
 .26118590,0.00102441,0.00598737,-0.02208424,0.00020551,0.00104915,-0.0
 0116402,0.00099894,0.00055044,0.00064606,-0.00003328,-0.00040959,0.000
 33867,0.00175203,0.00238398,-0.00732494,-0.00031827,0.00004231,-0.0002
 0742,-0.03226235,-0.08412625,0.28703096,0.00395774,-0.01986724,0.00177
 278,-0.06151888,0.06187235,-0.00177900,-0.00286639,-0.00197108,-0.0029
 2232,-0.00909630,0.03194205,0.00067103,-0.00028092,-0.00009303,0.00004
 506,0.00147134,-0.00110726,0.00013850,-0.00641701,-0.00115256,0.000291
 93,0.00052713,0.00072272,0.00029328,0.07042866,0.00403483,-0.01703842,
 0.00137521,0.06166080,-0.28964620,0.00806969,-0.00292593,-0.00000816,-
 0.00304418,-0.00020897,-0.00110948,0.00054106,-0.00031580,0.00029431,0
 .00030533,0.00097835,0.00043303,0.00056077,0.00085685,0.00088817,-0.00
 007359,0.00012199,0.00060683,-0.00026460,-0.06655935,0.31467511,0.0047
 0963,-0.02175761,0.00001954,-0.00215743,0.00974654,-0.04898260,-0.0030
 6241,-0.00100029,-0.00236741,0.00291886,-0.00923753,-0.00061326,-0.000
 14456,0.00020770,0.00012297,0.00104774,0.00020451,0.00036498,0.0015679
 6,0.00043096,0.00065408,0.00080902,0.00040605,0.00056598,0.00263515,-0
 .00698398,0.04977280,0.00073590,0.00592615,-0.02005241,-0.04958522,-0.
 01025703,0.03156297,0.00042405,0.00104136,0.00040776,-0.00748718,-0.01
 018990,0.03076554,-0.00022101,0.00001905,0.00018039,0.00138709,0.00053
 297,-0.00116902,0.00167405,-0.00160368,-0.00057243,-0.00207757,-0.0023
 2956,-0.00244233,0.00077783,0.00220142,-0.00768078,0.05929738,0.001293
 57,0.00435834,-0.01699431,-0.01039575,-0.07657495,0.07857037,0.0002006
 2,0.00127471,-0.00116883,0.00025046,0.00094643,-0.00370715,-0.00000500
 ,-0.00021387,-0.00016939,0.00078610,0.00027719,-0.00008202,0.00017637,
 0.00049644,-0.00071695,-0.00196399,-0.00107813,-0.00249804,-0.00433935
 ,-0.00971322,0.02941789,0.01402961,0.07920555,0.00127371,0.00619314,-0
 .02327005,0.03241175,0.07793977,-0.26783050,0.00052427,0.00146515,0.00
 048151,0.00153713,0.00211780,-0.00637448,0.00014701,-0.00023570,-0.000
 10484,0.00117075,0.00036399,0.00062000,-0.00054187,0.00019426,0.000383
 64,-0.00269755,-0.00262735,-0.00149801,-0.00030314,0.00035526,-0.00028
 153,-0.03412165,-0.08388832,0.29443213,0.00014593,0.00348203,-0.007704
 02,0.00000238,-0.00072410,0.00037436,-0.05115269,-0.01341542,0.0308025
 7,-0.00029242,-0.00016357,0.00012658,-0.00730060,-0.01065315,0.0300877
 9,0.00075140,0.00022867,-0.00116179,0.00209424,0.00068778,0.00064002,0
 .00001777,0.00177502,0.00020273,-0.00008874,-0.00004672,-0.00003053,0.
 00014030,-0.00019126,0.00020660,0.05750087,-0.00346659,-0.01557306,0.0
 3151226,0.00022881,0.00148238,0.00174248,-0.01396580,-0.07694888,0.080
 51444,-0.00013417,-0.00025318,-0.00010571,0.00165337,0.00157878,-0.005
 54769,-0.00142132,0.00104482,0.00076545,-0.00050870,-0.00023914,0.0002
 7182,0.00165157,-0.00597580,-0.00014389,0.00028580,0.00042254,-0.00033
 615,-0.00022724,0.00003882,-0.00100711,0.01113529,0.08692309,0.0001300
 8,0.00144126,-0.00274867,-0.00002457,-0.00082483,0.00069552,0.03168889
 ,0.08073545,-0.26588909,0.00014648,-0.00003621,0.00000588,0.00204203,0
 .00214749,-0.00719342,0.00001558,-0.00051081,0.00048806,-0.00085991,-0
 .00029253,0.00069903,-0.00015169,0.00012934,0.00130433,-0.00005469,0.0
 0004553,0.00026003,0.00049995,0.00029613,0.00053335,-0.03739257,-0.089
 81003,0.28851111,0.00414451,0.00401263,0.00586321,-0.00009484,0.002166
 28,0.00040493,-0.13777757,-0.07939092,-0.09519186,0.00000506,0.0002559
 7,0.00009656,-0.01992378,-0.01697295,-0.01850653,0.00121284,0.00057009
 ,0.00055645,-0.00527738,0.00331082,0.00208699,0.00009548,-0.00053536,-
 0.00007277,0.00050292,0.00043440,0.00018211,-0.00009301,-0.00000249,-0
 .00016697,0.00283020,0.00289010,0.00264738,0.15236460,-0.01917247,-0.0
 1754092,-0.02167298,0.00328042,-0.00592692,0.00173920,-0.07872753,-0.1
 1428225,-0.08033234,0.00052985,0.00022305,-0.00009197,0.00383721,0.003
 12126,0.00327789,-0.00162354,0.00115536,-0.00020388,0.00106649,0.00023
 278,-0.00023900,-0.00032477,0.00113104,0.00050958,-0.00136465,-0.00115
 385,-0.00125508,0.00016880,0.00019080,-0.00003712,0.00736989,0.0059762
 1,0.00692235,0.08472514,0.12604034,0.00112109,0.00188599,0.00033527,0.
 00014394,-0.00021002,0.00077980,-0.09595108,-0.08174063,-0.14808787,0.
 00015746,0.00003605,-0.00009175,0.00780070,0.00631578,0.00598348,-0.00
 008080,0.00008818,-0.00009884,0.00140245,-0.00088318,0.00016984,0.0003
 9382,-0.00039296,0.00047343,-0.00027365,-0.00015898,0.00026298,0.00021
 485,0.00024872,0.00049605,-0.01772356,-0.01558995,-0.01802333,0.103270
 95,0.08988521,0.15647164,-0.00522757,0.00251807,0.00389398,-0.01778572
 ,-0.01455323,-0.02204744,0.00002589,0.00066983,0.00016915,-0.13707608,
 -0.06856113,-0.10350769,0.00034734,0.00188510,-0.00045649,-0.00072224,
 -0.00139648,-0.00143430,0.00591127,0.00348044,0.00663549,0.00023021,0.
 00023263,0.00006136,0.00088112,0.00051682,-0.00030373,0.00134554,-0.00
 047851,0.00029682,0.00001679,-0.00008819,0.00003559,0.00009235,-0.0001
 1283,-0.00004632,0.14928865,0.00121215,0.00032122,-0.00010879,0.002314
 83,0.00186615,0.00403498,0.00057137,0.00021491,0.00001015,-0.06749032,
 -0.09913294,-0.07999039,0.00348623,-0.00487885,0.00062689,0.00021741,0
 .00034630,-0.00001694,-0.02146705,-0.01658198,-0.02175499,-0.00009743,
 -0.00010091,-0.00026388,-0.00027237,0.00013873,0.00041762,-0.00040961,
 -0.00000157,0.00001163,-0.00006022,0.00001244,0.00006795,-0.00006523,0
 .00009476,0.00002509,0.07388299,0.11038021,0.00169194,-0.00036689,-0.0
 0029417,0.00657839,0.00592968,0.00712399,0.00007672,-0.00005317,-0.000
 03639,-0.10430670,-0.08169163,-0.16685866,0.00074319,-0.00037171,0.001
 04059,0.00034271,0.00009004,0.00052710,-0.00037083,0.00091409,-0.00107
 851,0.00021020,0.00004518,0.00043550,-0.00077961,0.00007240,0.00003989
 ,-0.00049797,0.00026886,0.00068480,-0.00002872,-0.00001166,-0.00000062
 ,-0.00004609,0.00003423,-0.00003094,0.11280810,0.08752105,0.17811068,0
 .00194866,-0.00006502,0.00148074,-0.00966784,-0.01441632,0.03082889,-0
 .00029243,0.00006245,0.00016053,-0.04583875,-0.01724053,0.02588955,0.0
 0028076,-0.00048683,-0.00020492,-0.00013085,0.00020004,-0.00003345,0.0
 0094898,0.00582374,-0.00723232,-0.00007056,0.00000481,-0.00091885,0.00
 183233,0.00019549,-0.00042799,-0.00622781,0.00041064,0.00133996,-0.000
 03588,0.00015489,-0.00010309,0.00008844,-0.00006915,-0.00000772,0.0026
 6378,0.00885213,-0.01669949,0.05491256,-0.00016901,-0.00048209,0.00050
 196,0.00119773,0.00266109,-0.00352004,0.00021833,-0.00037969,-0.000284
 03,-0.02151447,-0.09187097,0.09995421,0.00058134,0.00204362,-0.0000625
 4,-0.00003055,0.00011794,-0.00020681,0.00062747,-0.02423270,0.02482216
 ,-0.00027933,-0.00003745,-0.00015258,-0.00047954,0.00046470,-0.0003553
 2,0.00137113,0.00075595,-0.00030042,0.00009945,0.00004832,0.00004991,-
 0.00015456,0.00003392,-0.00001897,0.00233273,0.00683147,-0.01241249,0.
 01636474,0.10550060,-0.00078551,-0.00015948,0.00056103,0.00260765,0.00
 407386,-0.01018279,0.00004183,-0.00011992,0.00013618,0.02986490,0.0866
 8912,-0.22599978,-0.00001534,0.00025053,0.00047731,0.00004133,-0.00009
 109,0.00035699,-0.00291750,0.00458464,0.00469348,0.00036965,0.00036781
 ,0.00061587,-0.00010398,-0.00036968,0.00015630,0.00218548,-0.00040902,
 0.00070308,-0.00006799,-0.00012331,-0.00011397,0.00001461,0.00004078,0
 .00000023,0.00307912,0.00977342,-0.02015383,-0.03517313,-0.10572251,0.
 24896997,0.00155329,-0.00155629,0.00038384,-0.00044730,-0.00015963,0.0
 0008330,-0.00780209,-0.00693388,0.03404752,0.00056112,0.00096909,0.000
 65611,-0.04001812,-0.00239589,0.01593533,-0.00016044,-0.00004972,-0.00
 008434,-0.00186068,0.00159996,-0.02187907,0.00013785,0.00059909,-0.000
 61727,0.00015747,-0.00000065,0.00003276,-0.00009528,-0.00000523,-0.000
 15347,-0.00617209,0.00164545,0.00182224,0.00171672,-0.00058144,-0.0005
 2690,-0.00016678,0.00001974,0.00020544,0.00012944,-0.00074323,0.000450
 56,0.05279901,-0.00009807,0.00059618,-0.00120755,-0.00017192,-0.000194
 48,-0.00016400,0.00115804,0.00070843,-0.00324956,0.00010289,0.00115313
 ,0.00078180,-0.00388502,-0.05875780,0.04596186,0.00008985,0.00010106,-
 0.00000889,-0.00050623,0.00349265,-0.01910700,0.00004635,0.00011970,0.
 00018752,0.00005718,-0.00001767,0.00001678,-0.00001395,-0.00004454,0.0
 0006898,0.00036441,0.00072232,-0.00034824,-0.00029621,0.00002485,0.000
 35812,-0.00017253,0.00010551,0.00033100,0.00002991,-0.00049301,0.00053
 404,0.00651063,0.05994111,-0.00075969,0.00025880,-0.00012188,-0.000159
 53,-0.00024277,0.00010584,0.00257970,0.00324673,-0.01009586,-0.0000420
 2,0.00058878,0.00108744,0.02647079,0.05580153,-0.26493357,0.00007005,-
 0.00017871,0.00040346,-0.00780707,-0.00320988,-0.02022221,0.00020144,-
 0.00083030,0.00025032,0.00007989,-0.00005937,-0.00001721,-0.00002703,0
 .00020407,0.00003828,0.00178381,-0.00043017,0.00068099,0.00013057,0.00
 014079,0.00071177,-0.00014498,-0.00016681,0.00027102,0.00032074,-0.001
 31669,0.00002348,-0.02278331,-0.05475189,0.29664300,-0.00640032,-0.001
 67802,0.00207659,-0.00042263,-0.00036512,-0.00020137,-0.00712203,0.031
 51623,-0.00427497,-0.00235000,-0.00139132,-0.00282846,-0.06452935,0.06
 340556,-0.00751688,0.00004353,0.00212875,0.00003074,0.00656270,-0.0210
 9375,0.00251786,0.00008596,-0.00030095,-0.00012515,0.00016922,0.000079
 26,0.00004187,0.00007058,0.00003320,0.00005218,0.00148474,-0.00036338,
 0.00020374,0.00084377,-0.00037047,-0.00075214,0.00038860,-0.00107341,-
 0.00034286,-0.00005974,0.00030671,0.00011201,0.00055052,-0.00287861,0.
 00041722,0.07073878,0.00068994,0.00137909,-0.00032783,-0.00024153,0.00
 043599,0.00026960,0.00058809,-0.00165385,0.00041564,-0.00351580,-0.000
 01547,-0.00197735,0.06287328,-0.28973318,0.02892214,-0.00021226,-0.000
 28232,0.00000863,0.00545714,-0.01831719,0.00145743,-0.00010637,0.00018
 952,-0.00004092,0.00004530,-0.00000274,0.00003678,0.00004229,-0.000004
 29,-0.00007265,0.00014563,0.00034026,-0.00044060,0.00047171,0.00020241
 ,0.00003616,0.00039238,-0.00100616,-0.00013714,0.00001196,0.00018174,0
 .00014586,0.00181549,-0.00713012,0.00171989,-0.06842710,0.31428522,0.0
 0160453,0.00056152,-0.00017930,-0.00017220,0.00034785,0.00019104,0.002
 50097,-0.00983600,-0.00001969,-0.00271040,-0.00128981,-0.00112545,-0.0
 0807382,0.03094347,-0.04880514,0.00008451,-0.00053052,0.00038995,0.005
 48697,-0.02025863,0.00000527,0.00006713,-0.00043050,0.00028932,0.00000
 731,0.00003575,-0.00001031,0.00002316,0.00002899,-0.00003768,-0.000456
 61,-0.00035433,0.00020377,-0.00040969,0.00041287,0.00001356,0.00007175
 ,-0.00084688,0.00003745,0.00001961,-0.00041286,0.00008774,-0.00803858,
 0.03057081,-0.00407899,0.00947633,-0.02980306,0.05275555,-0.01867873,-
 0.01617757,-0.02121480,-0.00567818,0.00231667,0.00370157,0.00124783,-0
 .00144733,-0.00093066,-0.00074867,-0.00120299,-0.00171201,0.00017180,0
 .00004169,0.00039318,-0.13957875,-0.07948820,-0.09763568,0.00024073,-0
 .00042071,-0.00012655,0.00120830,-0.00032753,0.00031185,0.00016221,-0.
 00004626,0.00018981,0.00017146,0.00022749,0.00001419,-0.00003103,0.000
 07331,0.00003519,0.00017101,0.00104500,0.00042061,-0.00076073,0.000109
 43,0.00020445,0.00001191,-0.00000805,0.00007392,-0.00002093,-0.0000069
 3,0.00004251,0.00006408,0.00002798,0.00002214,0.15409338,0.00266252,0.
 00080514,0.00353256,0.00048242,0.00009227,0.00029904,0.00059621,0.0008
 8531,0.00065269,0.00033263,0.00033743,-0.00021472,-0.00013085,0.000028
 86,0.00005551,-0.07994688,-0.11591958,-0.08348510,-0.00004954,0.000150
 20,0.00004323,-0.00048767,-0.00005904,0.00008383,0.00020777,0.00045522
 ,0.00011768,0.00000765,-0.00006618,-0.00023218,-0.00005429,-0.00002605
 ,0.00011530,0.00001568,0.00013256,-0.00023187,0.00001269,-0.00000362,-
 0.00000298,0.00004522,-0.00001728,0.00000912,-0.00001862,0.00000208,0.
 00003643,-0.00002307,0.00002148,0.00000765,0.08760809,0.12183410,0.006
 35475,0.00551301,0.00583582,0.00129247,-0.00030428,0.00004879,0.000013
 11,0.00031170,0.00011665,0.00056896,-0.00007210,0.00057533,-0.00003685
 ,0.00029686,0.00010797,-0.09837787,-0.08344897,-0.14894183,0.00005590,
 0.00004247,-0.00000542,-0.00065840,0.00038105,0.00056449,0.00006778,-0
 .00010175,-0.00016576,0.00028653,-0.00002585,0.00047676,-0.00009553,-0
 .00012523,-0.00009706,-0.00027871,0.00017532,0.00012811,0.00016916,-0.
 00000761,-0.00003876,-0.00014968,0.00001913,0.00003941,0.00001840,-0.0
 0000178,-0.00002047,-0.00006656,0.00002288,-0.00000051,0.10669587,0.09
 204124,0.15840389,-0.00773954,0.03176459,-0.00262929,0.00165341,0.0014
 8786,0.00015172,-0.00635808,-0.00133325,0.00186821,0.00015132,-0.00027
 893,0.00021565,-0.00010196,0.00215635,-0.00022211,-0.06241619,0.062215
 00,-0.00282644,0.00040237,0.00028628,0.00016035,0.00136570,-0.00043120
 ,0.00012451,-0.00023392,-0.00093509,-0.00026465,-0.00003070,-0.0000666
 3,-0.00006252,0.00000198,-0.00021473,-0.00014960,0.00010647,0.00001042
 ,0.00023713,0.00006242,-0.00005016,-0.00000808,-0.00001487,-0.00000796
 ,0.00002715,0.00000734,-0.00004171,0.00004234,-0.00072510,0.00008858,0
 .00018750,0.00509522,-0.01907794,0.00210173,0.06852458,0.00008177,-0.0
 0334359,-0.00004298,-0.00069487,0.00057169,0.00017502,0.00150788,0.001
 17569,-0.00089638,0.00016754,0.00030217,-0.00004858,-0.00045110,-0.000
 35734,0.00016898,0.06304584,-0.29460769,0.00877192,-0.00010794,-0.0000
 0300,0.00000827,0.00036834,0.00030338,-0.00039143,0.00034732,0.0004161
 1,0.00030923,0.00007619,-0.00007202,-0.00008143,-0.00019843,0.00022884
 ,-0.00006483,-0.00013160,0.00025788,0.00014438,0.00004803,0.00002139,0
 .00001105,0.00001058,0.00001270,-0.00002270,0.00006679,0.00001349,-0.0
 0005583,0.00018255,-0.00001183,-0.00004295,0.00397427,-0.01447737,0.00
 151530,-0.07036120,0.31902572,0.00213775,-0.00965680,-0.00095464,-0.00
 044156,0.00043327,0.00002469,0.00174209,0.00030541,-0.00035473,-0.0000
 4404,-0.00012711,-0.00014486,0.00019569,-0.00061072,0.00062339,-0.0030
 2133,0.00895699,-0.04741629,0.00003594,-0.00000467,-0.00001386,-0.0005
 1521,-0.00030861,0.00004467,-0.00020258,0.00005246,0.00024949,0.000029
 85,0.00016816,-0.00005142,0.00009055,-0.00039214,0.00035122,0.00007712
 ,0.00043039,0.00008732,-0.00003808,0.00002385,0.00000124,0.00003404,0.
 00001957,-0.00003715,-0.00014136,0.00003031,0.00001320,0.00022976,-0.0
 0003995,-0.00006618,0.00619651,-0.01992238,0.00079207,0.00154069,-0.00
 932778,0.04678106,-0.00685475,-0.01122890,0.03178390,0.00196679,0.0000
 1832,0.00167724,0.00151738,-0.00162576,0.00054212,-0.00008022,0.000095
 55,-0.00013561,-0.00007157,0.00000351,-0.00014872,-0.05123964,-0.01287
 842,0.03485304,0.00008986,0.00000176,-0.00000070,-0.00616316,0.0010379
 2,0.00137553,-0.00006347,-0.00006447,-0.00012277,-0.00015741,0.0000605
 3,-0.00099258,0.00009751,0.00070138,-0.00067183,-0.00003602,0.00014863
 ,-0.00009170,-0.00001707,0.00003895,-0.00010082,0.00016131,0.00006654,
 -0.00022982,0.00014282,0.00001918,-0.00021379,-0.00001224,0.00003985,-
 0.00009750,0.00282115,0.00783956,-0.01796055,0.00026972,0.00202276,-0.
 00792334,0.05764082,0.00050906,0.00053641,-0.00404046,-0.00004121,-0.0
 0012293,0.00045389,-0.00007018,0.00085440,-0.00120046,-0.00007620,-0.0
 0003395,-0.00020779,0.00005028,-0.00004335,-0.00011220,-0.01308003,-0.
 07633861,0.08125046,0.00000106,0.00008089,0.00003771,0.00082974,0.0005
 4494,-0.00048561,0.00001389,-0.00006391,0.00014056,-0.00035131,0.00012
 518,-0.00008621,0.00011427,0.00023756,0.00023900,-0.00007927,-0.000048
 44,-0.00008022,-0.00005058,-0.00001088,0.00001148,0.00007626,-0.000021
 13,-0.00004360,0.00002790,-0.00009489,0.00007469,-0.00003144,-0.000012
 75,0.00002328,0.00353034,0.00578982,-0.01626036,-0.00508050,-0.0095419
 7,0.02995673,0.01372182,0.07819405,0.00222897,0.00293628,-0.00966620,-
 0.00080639,-0.00028529,0.00074862,-0.00074116,0.00042795,0.00022069,0.
 00000112,-0.00014841,0.00038173,0.00002923,-0.00024586,0.00038247,0.03
 536070,0.08113062,-0.27245261,0.00000105,0.00003730,0.00000158,0.00189
 971,-0.00060935,0.00095307,0.00008622,-0.00007370,-0.00004268,0.000480
 51,0.00038221,0.00066966,0.00037034,-0.00082317,0.00030237,0.00007582,
 0.00004516,-0.00008560,0.00010177,-0.00002041,0.00000207,-0.00024887,-
 0.00002132,0.00000702,-0.00024117,0.00006337,0.00009927,0.00010483,-0.
 00004042,-0.00000089,0.00327602,0.00709565,-0.01783148,-0.00042453,-0.
 00018256,0.00005174,-0.04157133,-0.08965026,0.29626647,0.00055059,-0.0
 0035410,0.00008599,0.00019906,0.00116651,-0.00023244,-0.00098785,-0.00
 182685,-0.00256315,-0.00014179,-0.00179928,-0.00090802,-0.00887927,0.0
 0621111,-0.00048030,0.00002501,0.00007071,0.00004226,-0.29868241,0.088
 34470,-0.07733811,-0.00000491,0.00001640,-0.00000083,-0.00030233,0.000
 02302,0.00005994,-0.00004901,-0.00002038,0.00006540,-0.00001064,-0.000
 02985,0.00014079,-0.00097177,0.00016500,0.00029088,0.00050224,0.000280
 58,0.00032001,-0.00063944,0.00022051,0.00042506,-0.00101186,-0.0003072
 5,-0.00020162,0.00061894,-0.00018658,0.00040687,0.00003795,-0.00002156
 ,-0.00000051,-0.00002018,0.00004530,0.00001749,-0.00001184,-0.00001392
 ,0.00001715,0.30977951,-0.00027058,-0.00061008,-0.00032940,-0.00079837
 ,-0.00522376,0.00086348,-0.00200615,-0.00172101,-0.00258257,0.02634270
 ,-0.00302030,0.00398267,-0.01614597,0.00772100,-0.00341646,0.00005330,
 0.00031879,0.00016180,0.08519891,-0.07864086,0.01001185,0.00001766,0.0
 0004138,0.00004441,0.00171203,-0.00004111,-0.00052636,-0.00003436,0.00
 009936,-0.00014149,0.00010469,-0.00004027,0.00013838,-0.00122422,0.000
 13517,0.00028310,-0.00055823,0.00138382,-0.00018140,0.00003498,-0.0011
 1774,0.00059212,-0.00080958,-0.00024802,-0.00082931,0.00034438,0.00113
 417,0.00087334,0.00017130,0.00003466,0.00002897,-0.00012975,0.00008574
 ,0.00001303,-0.00001871,-0.00003045,-0.00001780,-0.09198407,0.07973951
 ,-0.00012431,-0.00027976,-0.00002649,0.00182295,-0.00099985,0.00000820
 ,0.00078027,-0.00199369,-0.00230764,0.00018249,-0.00130756,0.00436797,
 -0.01613658,0.00531218,0.00236416,0.00008607,0.00015146,-0.00003688,-0
 .06941736,0.00814208,-0.03379358,-0.00000399,0.00004515,-0.00004813,0.
 00033004,-0.00028366,0.00001172,-0.00007336,0.00007446,-0.00007076,-0.
 00002402,-0.00000591,0.00003050,-0.00073408,0.00021859,0.00050487,0.00
 065674,0.00066405,0.00021755,0.00112543,-0.00058036,-0.00034055,0.0008
 2997,-0.00006567,-0.00083786,0.00084526,-0.00015508,0.00035050,0.00004
 187,-0.00000069,0.00001200,-0.00006975,0.00005328,0.00001905,0.0000292
 2,-0.00002065,-0.00000731,0.07985314,-0.00896835,0.02958267\\0.0000007
 0,0.00000079,-0.00000242,-0.00000061,0.00000042,-0.00000055,-0.0000006
 3,0.00000032,-0.00000059,0.00000022,-0.00000181,0.00000421,0.00000025,
 -0.00000167,0.00000427,0.00000081,0.00000267,-0.00000721,-0.00000103,-
 0.00000228,0.00000636,0.00000484,-0.00000008,-0.00000268,0.00000065,0.
 00000080,-0.00000202,-0.00000408,0.00000118,-0.00000065,-0.00000407,0.
 00000125,-0.00000062,0.00000059,0.00000055,-0.00000211,-0.00000128,-0.
 00000190,0.00000573,0.00000367,-0.00000242,0.00000412,0.00000364,-0.00
 000255,0.00000407,-0.00000130,-0.00000202,0.00000568,0.00000151,0.0000
 0308,-0.00000885,0.00000154,0.00000321,-0.00000880,-0.00000332,0.00000
 372,-0.00000738,-0.00000209,-0.00000326,0.00000945\\\@


 A FOOL CAN ASK MORE QUESTIONS THAN
 A WISE MAN CAN ANSWER.
 Job cpu time:  0 days  7 hours  2 minutes 20.6 seconds.
 File lengths (MBytes):  RWF=   2528 Int=      0 D2E=      0 Chk=     32 Scr=     32
 Normal termination of Gaussian 09 at Tue Mar 14 08:12:50 2017.
