 Entering Gaussian System, Link 0=/shared/apps/gaussian/G09_LINUX_LINDA/g09/g09
 Input=/gss_gpfs_scratch/harms.n/QMscratch/AYBXLWLVBICBEJ-UHFFFAOYSA-u5.gjf
 Output=/gss_gpfs_scratch/harms.n/QMscratch/AYBXLWLVBICBEJ-UHFFFAOYSA-u5.log
 Initial command:
 /shared/apps/gaussian/G09_LINUX_LINDA/g09/l1.exe /gss_gpfs_scratch/harms.n/comparerTST/Gau-48447.inp -scrdir=/gss_gpfs_scratch/harms.n/comparerTST/
 Entering Link 1 = /shared/apps/gaussian/G09_LINUX_LINDA/g09/l1.exe PID=     48448.
  
 Copyright (c) 1988,1990,1992,1993,1995,1998,2003,2009,2010,
            Gaussian, Inc.  All Rights Reserved.
  
 This is part of the Gaussian(R) 09 program.  It is based on
 the Gaussian(R) 03 system (copyright 2003, Gaussian, Inc.),
 the Gaussian(R) 98 system (copyright 1998, Gaussian, Inc.),
 the Gaussian(R) 94 system (copyright 1995, Gaussian, Inc.),
 the Gaussian 92(TM) system (copyright 1992, Gaussian, Inc.),
 the Gaussian 90(TM) system (copyright 1990, Gaussian, Inc.),
 the Gaussian 88(TM) system (copyright 1988, Gaussian, Inc.),
 the Gaussian 86(TM) system (copyright 1986, Carnegie Mellon
 University), and the Gaussian 82(TM) system (copyright 1983,
 Carnegie Mellon University). Gaussian is a federally registered
 trademark of Gaussian, Inc.
  
 This software contains proprietary and confidential information,
 including trade secrets, belonging to Gaussian, Inc.
  
 This software is provided under written license and may be
 used, copied, transmitted, or stored only in accord with that
 written license.
  
 The following legend is applicable only to US Government
 contracts under FAR:
  
                    RESTRICTED RIGHTS LEGEND
  
 Use, reproduction and disclosure by the US Government is
 subject to restrictions as set forth in subparagraphs (a)
 and (c) of the Commercial Computer Software - Restricted
 Rights clause in FAR 52.227-19.
  
 Gaussian, Inc.
 340 Quinnipiac St., Bldg. 40, Wallingford CT 06492
  
  
 ---------------------------------------------------------------
 Warning -- This program may not be used in any manner that
 competes with the business of Gaussian, Inc. or will provide
 assistance to any competitor of Gaussian, Inc.  The licensee
 of this program is prohibited from giving any competitor of
 Gaussian, Inc. access to this program.  By using this program,
 the user acknowledges that Gaussian, Inc. is engaged in the
 business of creating and licensing software in the field of
 computational chemistry and represents and warrants to the
 licensee that it is not a competitor of Gaussian, Inc. and that
 it will not use this program in any manner prohibited above.
 ---------------------------------------------------------------
  

 Cite this work as:
 Gaussian 09, Revision B.01,
 M. J. Frisch, G. W. Trucks, H. B. Schlegel, G. E. Scuseria, 
 M. A. Robb, J. R. Cheeseman, G. Scalmani, V. Barone, B. Mennucci, 
 G. A. Petersson, H. Nakatsuji, M. Caricato, X. Li, H. P. Hratchian, 
 A. F. Izmaylov, J. Bloino, G. Zheng, J. L. Sonnenberg, M. Hada, 
 M. Ehara, K. Toyota, R. Fukuda, J. Hasegawa, M. Ishida, T. Nakajima, 
 Y. Honda, O. Kitao, H. Nakai, T. Vreven, J. A. Montgomery, Jr., 
 J. E. Peralta, F. Ogliaro, M. Bearpark, J. J. Heyd, E. Brothers, 
 K. N. Kudin, V. N. Staroverov, T. Keith, R. Kobayashi, J. Normand, 
 K. Raghavachari, A. Rendell, J. C. Burant, S. S. Iyengar, J. Tomasi, 
 M. Cossi, N. Rega, J. M. Millam, M. Klene, J. E. Knox, J. B. Cross, 
 V. Bakken, C. Adamo, J. Jaramillo, R. Gomperts, R. E. Stratmann, 
 O. Yazyev, A. J. Austin, R. Cammi, C. Pomelli, J. W. Ochterski, 
 R. L. Martin, K. Morokuma, V. G. Zakrzewski, G. A. Voth, 
 P. Salvador, J. J. Dannenberg, S. Dapprich, A. D. Daniels, 
 O. Farkas, J. B. Foresman, J. V. Ortiz, J. Cioslowski, 
 and D. J. Fox, Gaussian, Inc., Wallingford CT, 2010.
 
 ******************************************
 Gaussian 09:  EM64L-G09RevB.01 12-Aug-2010
                20-Sep-2017 
 ******************************************
 %nprocshared=20
 Will use up to   20 processors via shared memory.
 %mem=5GB
 --------------------------------------------------------------
 # m062x/6-311+g(2df,2p) opt=(verytight,gdiis) freq IOP(2/16=3)
 --------------------------------------------------------------

 Warning!  Use of Opt=GDIIS is deprecated since it is seldom a good choice.

 1/7=1,14=-1,18=20,19=11,26=3,38=1/1,3;
 2/9=110,12=2,16=3,17=6,18=5,40=1/2;
 3/5=4,6=6,7=214,11=2,16=1,25=1,30=1,71=1,74=-55/1,2,3;
 4//1;
 5/5=2,38=5/2;
 6/7=2,8=2,9=2,10=2,28=1/1;
 7//1,2,3,16;
 1/7=1,14=-1,18=20,19=11/3(2);
 2/9=110,16=3/2;
 99//99;
 2/9=110,16=3/2;
 3/5=4,6=6,7=214,11=2,16=1,25=1,30=1,71=1,74=-55/1,2,3;
 4/5=5,16=3/1;
 5/5=2,38=5/2;
 7//1,2,3,16;
 1/7=1,14=-1,18=20,19=11/3(-5);
 2/9=110,16=3/2;
 6/7=2,8=2,9=2,10=2,19=2,28=1/1;
 99/9=1/99;
 -------------------------------------------------
 InChI=1S/C6H11O/c1-6(2)4-3-5-7/h6H,3-4H2,1-2H3/u5
 -------------------------------------------------
 Symbolic Z-matrix:
 Charge =  0 Multiplicity = 2
 C                    -0.7135    0.2824    0.2764 
 C                     0.56      0.2757   -0.5994 
 C                     1.8178   -0.1168    0.1859 
 C                    -1.8759    0.9252   -0.4915 
 C                    -1.1072   -1.1326    0.7274 
 C                     3.0318    0.0404   -0.6737 
 H                    -0.5264    0.9006    1.1825 
 H                     0.4246   -0.419    -1.4583 
 H                     0.714     1.2979   -1.013 
 H                     1.7538   -1.1764    0.5108 
 H                     1.9239    0.5328    1.0815 
 H                    -2.1053    0.3458   -1.4118 
 H                    -1.6184    1.9672   -0.7782 
 H                    -2.7853    0.9621    0.1457 
 H                    -0.3397   -1.5554    1.4075 
 H                    -2.0653   -1.1042    1.2891 
 H                    -1.2279   -1.8052   -0.1488 
 O                     4.139    -0.2206   -0.232 
 

 GradGradGradGradGradGradGradGradGradGradGradGradGradGradGradGradGradGrad
 Berny optimization.
 Initialization pass.
                           ----------------------------
                           !    Initial Parameters    !
                           ! (Angstroms and Degrees)  !
 --------------------------                            --------------------------
 ! Name  Definition              Value          Derivative Info.                !
 --------------------------------------------------------------------------------
 ! R1    R(1,2)                  1.5456         estimate D2E/DX2                !
 ! R2    R(1,4)                  1.5343         estimate D2E/DX2                !
 ! R3    R(1,5)                  1.5364         estimate D2E/DX2                !
 ! R4    R(1,7)                  1.1127         estimate D2E/DX2                !
 ! R5    R(2,3)                  1.5339         estimate D2E/DX2                !
 ! R6    R(2,8)                  1.1129         estimate D2E/DX2                !
 ! R7    R(2,9)                  1.1134         estimate D2E/DX2                !
 ! R8    R(3,6)                  1.4958         estimate D2E/DX2                !
 ! R9    R(3,10)                 1.1101         estimate D2E/DX2                !
 ! R10   R(3,11)                 1.1115         estimate D2E/DX2                !
 ! R11   R(4,12)                 1.1114         estimate D2E/DX2                !
 ! R12   R(4,13)                 1.111          estimate D2E/DX2                !
 ! R13   R(4,14)                 1.111          estimate D2E/DX2                !
 ! R14   R(5,15)                 1.1092         estimate D2E/DX2                !
 ! R15   R(5,16)                 1.111          estimate D2E/DX2                !
 ! R16   R(5,17)                 1.1112         estimate D2E/DX2                !
 ! R17   R(6,18)                 1.2203         estimate D2E/DX2                !
 ! A1    A(2,1,4)              110.0266         estimate D2E/DX2                !
 ! A2    A(2,1,5)              111.9298         estimate D2E/DX2                !
 ! A3    A(2,1,7)              108.9825         estimate D2E/DX2                !
 ! A4    A(4,1,5)              109.7931         estimate D2E/DX2                !
 ! A5    A(4,1,7)              107.5885         estimate D2E/DX2                !
 ! A6    A(5,1,7)              108.404          estimate D2E/DX2                !
 ! A7    A(1,2,3)              112.7465         estimate D2E/DX2                !
 ! A8    A(1,2,8)              109.8624         estimate D2E/DX2                !
 ! A9    A(1,2,9)              108.6917         estimate D2E/DX2                !
 ! A10   A(3,2,8)              109.5811         estimate D2E/DX2                !
 ! A11   A(3,2,9)              108.1609         estimate D2E/DX2                !
 ! A12   A(8,2,9)              107.6508         estimate D2E/DX2                !
 ! A13   A(2,3,6)              110.1461         estimate D2E/DX2                !
 ! A14   A(2,3,10)             110.2916         estimate D2E/DX2                !
 ! A15   A(2,3,11)             109.9537         estimate D2E/DX2                !
 ! A16   A(6,3,10)             108.3782         estimate D2E/DX2                !
 ! A17   A(6,3,11)             108.9152         estimate D2E/DX2                !
 ! A18   A(10,3,11)            109.1187         estimate D2E/DX2                !
 ! A19   A(1,4,12)             110.6336         estimate D2E/DX2                !
 ! A20   A(1,4,13)             110.2737         estimate D2E/DX2                !
 ! A21   A(1,4,14)             110.3035         estimate D2E/DX2                !
 ! A22   A(12,4,13)            108.8505         estimate D2E/DX2                !
 ! A23   A(12,4,14)            108.8604         estimate D2E/DX2                !
 ! A24   A(13,4,14)            107.8525         estimate D2E/DX2                !
 ! A25   A(1,5,15)             110.7151         estimate D2E/DX2                !
 ! A26   A(1,5,16)             110.2337         estimate D2E/DX2                !
 ! A27   A(1,5,17)             110.7222         estimate D2E/DX2                !
 ! A28   A(15,5,16)            107.2454         estimate D2E/DX2                !
 ! A29   A(15,5,17)            109.1425         estimate D2E/DX2                !
 ! A30   A(16,5,17)            108.6917         estimate D2E/DX2                !
 ! A31   A(3,6,18)             120.3911         estimate D2E/DX2                !
 ! D1    D(4,1,2,3)            169.6194         estimate D2E/DX2                !
 ! D2    D(4,1,2,8)            -67.8432         estimate D2E/DX2                !
 ! D3    D(4,1,2,9)             49.7095         estimate D2E/DX2                !
 ! D4    D(5,1,2,3)            -68.0179         estimate D2E/DX2                !
 ! D5    D(5,1,2,8)             54.5195         estimate D2E/DX2                !
 ! D6    D(5,1,2,9)            172.0722         estimate D2E/DX2                !
 ! D7    D(7,1,2,3)             51.8765         estimate D2E/DX2                !
 ! D8    D(7,1,2,8)            174.4139         estimate D2E/DX2                !
 ! D9    D(7,1,2,9)            -68.0334         estimate D2E/DX2                !
 ! D10   D(2,1,4,12)            61.3129         estimate D2E/DX2                !
 ! D11   D(2,1,4,13)           -59.1605         estimate D2E/DX2                !
 ! D12   D(2,1,4,14)          -178.1817         estimate D2E/DX2                !
 ! D13   D(5,1,4,12)           -62.3042         estimate D2E/DX2                !
 ! D14   D(5,1,4,13)           177.2224         estimate D2E/DX2                !
 ! D15   D(5,1,4,14)            58.2012         estimate D2E/DX2                !
 ! D16   D(7,1,4,12)           179.9159         estimate D2E/DX2                !
 ! D17   D(7,1,4,13)            59.4424         estimate D2E/DX2                !
 ! D18   D(7,1,4,14)           -59.5787         estimate D2E/DX2                !
 ! D19   D(2,1,5,15)            65.7443         estimate D2E/DX2                !
 ! D20   D(2,1,5,16)          -175.7534         estimate D2E/DX2                !
 ! D21   D(2,1,5,17)           -55.4471         estimate D2E/DX2                !
 ! D22   D(4,1,5,15)          -171.7599         estimate D2E/DX2                !
 ! D23   D(4,1,5,16)           -53.2576         estimate D2E/DX2                !
 ! D24   D(4,1,5,17)            67.0487         estimate D2E/DX2                !
 ! D25   D(7,1,5,15)           -54.4883         estimate D2E/DX2                !
 ! D26   D(7,1,5,16)            64.014          estimate D2E/DX2                !
 ! D27   D(7,1,5,17)          -175.6797         estimate D2E/DX2                !
 ! D28   D(1,2,3,6)           -173.7988         estimate D2E/DX2                !
 ! D29   D(1,2,3,10)            66.6171         estimate D2E/DX2                !
 ! D30   D(1,2,3,11)           -53.7632         estimate D2E/DX2                !
 ! D31   D(8,2,3,6)             63.5063         estimate D2E/DX2                !
 ! D32   D(8,2,3,10)           -56.0778         estimate D2E/DX2                !
 ! D33   D(8,2,3,11)          -176.4582         estimate D2E/DX2                !
 ! D34   D(9,2,3,6)            -53.5833         estimate D2E/DX2                !
 ! D35   D(9,2,3,10)          -173.1674         estimate D2E/DX2                !
 ! D36   D(9,2,3,11)            66.4522         estimate D2E/DX2                !
 ! D37   D(2,3,6,18)           179.9075         estimate D2E/DX2                !
 ! D38   D(10,3,6,18)          -59.3531         estimate D2E/DX2                !
 ! D39   D(11,3,6,18)           59.246          estimate D2E/DX2                !
 --------------------------------------------------------------------------------
 Trust Radius=3.00D-01 FncErr=1.00D-07 GrdErr=1.00D-06
 Number of steps in this run=     97 maximum allowed number of steps=    108.
 GradGradGradGradGradGradGradGradGradGradGradGradGradGradGradGradGradGrad

                          Input orientation:                          
 ---------------------------------------------------------------------
 Center     Atomic      Atomic             Coordinates (Angstroms)
 Number     Number       Type             X           Y           Z
 ---------------------------------------------------------------------
      1          6           0       -0.713500    0.282400    0.276400
      2          6           0        0.560000    0.275700   -0.599400
      3          6           0        1.817800   -0.116800    0.185900
      4          6           0       -1.875900    0.925200   -0.491500
      5          6           0       -1.107200   -1.132600    0.727400
      6          6           0        3.031800    0.040400   -0.673700
      7          1           0       -0.526400    0.900600    1.182500
      8          1           0        0.424600   -0.419000   -1.458300
      9          1           0        0.714000    1.297900   -1.013000
     10          1           0        1.753800   -1.176400    0.510800
     11          1           0        1.923900    0.532800    1.081500
     12          1           0       -2.105300    0.345800   -1.411800
     13          1           0       -1.618400    1.967200   -0.778200
     14          1           0       -2.785300    0.962100    0.145700
     15          1           0       -0.339700   -1.555400    1.407500
     16          1           0       -2.065300   -1.104200    1.289100
     17          1           0       -1.227900   -1.805200   -0.148800
     18          8           0        4.139000   -0.220600   -0.232000
 ---------------------------------------------------------------------
                    Distance matrix (angstroms):
                    1          2          3          4          5
     1  C    0.000000
     2  C    1.545598   0.000000
     3  C    2.564182   1.533888   0.000000
     4  C    1.534287   2.523312   3.897185   0.000000
     5  C    1.536433   2.554068   3.143358   2.512202   0.000000
     6  C    3.871502   2.484086   1.495801   4.990149   4.524415
     7  H    1.112742   2.178516   2.742916   2.150356   2.162949
     8  H    2.190073   1.112947   2.176172   2.834409   2.762774
     9  H    2.175212   1.113406   2.158034   2.668042   3.500442
    10  H    2.875867   2.183185   1.110139   4.312314   2.869522
    11  H    2.768892   2.179851   1.111457   4.131197   3.476566
    12  H    2.188869   2.787244   4.261145   1.111432   2.785327
    13  H    2.183936   2.763796   4.132798   1.110976   3.483808
    14  H    2.184360   3.495333   4.728020   1.111033   2.746300
    15  H    2.190119   2.861824   2.866476   3.481305   1.109212
    16  H    2.185311   3.516071   4.155776   2.706450   1.110977
    17  H    2.191683   2.780247   3.498429   2.827089   1.111164
    18  O    4.904920   3.631878   2.360802   6.128558   5.410620
                    6          7          8          9         10
     6  C    0.000000
     7  H    4.104413   0.000000
     8  H    2.761184   3.101543   0.000000
     9  H    2.658689   2.552775   1.797162   0.000000
    10  H    2.125306   3.156647   2.493548   3.086310   0.000000
    11  H    2.133220   2.479808   3.099098   2.536960   1.809972
    12  H    5.198832   3.087251   2.643383   3.002330   4.572323
    13  H    5.034664   2.484843   3.214084   2.437864   4.787011
    14  H    5.946394   2.486235   3.844959   3.701412   5.030895
    15  H    4.271415   2.473341   3.176219   3.887213   2.308778
    16  H    5.580602   2.529585   3.770585   4.335234   3.898267
    17  H    4.671916   3.096097   2.523311   3.761256   3.117851
    18  O    1.220292   5.002385   3.916624   3.827065   2.674787
                   11         12         13         14         15
    11  H    0.000000
    12  H    4.741937   0.000000
    13  H    4.250162   1.807611   0.000000
    14  H    4.820434   1.807770   1.795960   0.000000
    15  H    3.096892   3.831495   4.338326   3.729733   0.000000
    16  H    4.317011   3.065772   3.729202   2.468878   1.787539
    17  H    4.112630   2.644201   3.844429   3.189071   1.809245
    18  O    2.683200   6.379970   6.183240   7.034726   4.952616
                   16         17         18
    16  H    0.000000
    17  H    1.805601   0.000000
    18  O    6.448863   5.596561   0.000000
 Stoichiometry    C6H11O(2)
 Framework group  C1[X(C6H11O)]
 Deg. of freedom    48
 Full point group                 C1      NOp   1
 Largest Abelian subgroup         C1      NOp   1
 Largest concise Abelian subgroup C1      NOp   1
                         Standard orientation:                         
 ---------------------------------------------------------------------
 Center     Atomic      Atomic             Coordinates (Angstroms)
 Number     Number       Type             X           Y           Z
 ---------------------------------------------------------------------
      1          6           0       -1.430038   -0.005097   -0.337105
      2          6           0       -0.104352   -0.532586    0.257186
      3          6           0        1.120255    0.244137   -0.242667
      4          6           0       -2.574783   -0.972398   -0.008588
      5          6           0       -1.771857    1.400502    0.180658
      6          6           0        2.376404   -0.404488    0.245999
      7          1           0       -1.336798    0.041651   -1.444948
      8          1           0       -0.144826   -0.490137    1.368587
      9          1           0        0.018309   -1.599765   -0.035658
     10          1           0        1.095086    1.287541    0.135596
     11          1           0        1.131704    0.259970   -1.353952
     12          1           0       -2.711433   -1.058447    1.091050
     13          1           0       -2.358298   -1.980058   -0.423343
     14          1           0       -3.524015   -0.614365   -0.461539
     15          1           0       -1.027267    2.141583   -0.175344
     16          1           0       -2.764264    1.720416   -0.202817
     17          1           0       -1.797812    1.414799    1.291427
     18          8           0        3.465730    0.062049   -0.045245
 ---------------------------------------------------------------------
 Rotational constants (GHZ):      6.8414289      1.0748991      0.9763860
 Standard basis: 6-311+G(2df,2p) (5D, 7F)
 There are   337 symmetry adapted basis functions of A   symmetry.
 Integral buffers will be    131072 words long.
 Raffenetti 2 integral format.
 Two-electron integral symmetry is turned on.
   337 basis functions,   485 primitive gaussians,   372 cartesian basis functions
    28 alpha electrons       27 beta electrons
       nuclear repulsion energy       289.1502405036 Hartrees.
 NAtoms=   18 NActive=   18 NUniq=   18 SFac= 1.00D+00 NAtFMM=   50 NAOKFM=F Big=F
 One-electron integrals computed using PRISM.
 NBasis=   337 RedAO= T  NBF=   337
 NBsUse=   337 1.00D-06 NBFU=   337
 Harris functional with IExCor= 1009 diagonalized for initial guess.
 ExpMin= 4.38D-02 ExpMax= 8.59D+03 ExpMxC= 1.30D+03 IAcc=2 IRadAn=         0 AccDes= 0.00D+00
 HarFok:  IExCor= 1009 AccDes= 0.00D+00 IRadAn=         0 IDoV= 1
 ScaDFX=  1.000000  1.000000  1.000000  1.000000
 FoFCou: FMM=F IPFlag=           0 FMFlag=      100000 FMFlg1=           0
         NFxFlg=           0 DoJE=T BraDBF=F KetDBF=T FulRan=T
         Omega=  0.000000  0.000000  1.000000  0.000000  0.000000 ICntrl=     500 IOpCl=  0
         NMat0=    1 NMatS0=    1 NMatT0=    0 NMatD0=    1 NMtDS0=    0 NMtDT0=    0
         I1Cent=           4 NGrid=           0.
 Petite list used in FoFCou.
 Initial guess orbital symmetries:
 Alpha Orbitals:
       Occupied  (A) (A) (A) (A) (A) (A) (A) (A) (A) (A) (A) (A)
                 (A) (A) (A) (A) (A) (A) (A) (A) (A) (A) (A) (A)
                 (A) (A) (A) (A)
       Virtual   (A) (A) (A) (A) (A) (A) (A) (A) (A) (A) (A) (A)
                 (A) (A) (A) (A) (A) (A) (A) (A) (A) (A) (A) (A)
                 (A) (A) (A) (A) (A) (A) (A) (A) (A) (A) (A) (A)
                 (A) (A) (A) (A) (A) (A) (A) (A) (A) (A) (A) (A)
                 (A) (A) (A) (A) (A) (A) (A) (A) (A) (A) (A) (A)
                 (A) (A) (A) (A) (A) (A) (A) (A) (A) (A) (A) (A)
                 (A) (A) (A) (A) (A) (A) (A) (A) (A) (A) (A) (A)
                 (A) (A) (A) (A) (A) (A) (A) (A) (A) (A) (A) (A)
                 (A) (A) (A) (A) (A) (A) (A) (A) (A) (A) (A) (A)
                 (A) (A) (A) (A) (A) (A) (A) (A) (A) (A) (A) (A)
                 (A) (A) (A) (A) (A) (A) (A) (A) (A) (A) (A) (A)
                 (A) (A) (A) (A) (A) (A) (A) (A) (A) (A) (A) (A)
                 (A) (A) (A) (A) (A) (A) (A) (A) (A) (A) (A) (A)
                 (A) (A) (A) (A) (A) (A) (A) (A) (A) (A) (A) (A)
                 (A) (A) (A) (A) (A) (A) (A) (A) (A) (A) (A) (A)
                 (A) (A) (A) (A) (A) (A) (A) (A) (A) (A) (A) (A)
                 (A) (A) (A) (A) (A) (A) (A) (A) (A) (A) (A) (A)
                 (A) (A) (A) (A) (A) (A) (A) (A) (A) (A) (A) (A)
                 (A) (A) (A) (A) (A) (A) (A) (A) (A) (A) (A) (A)
                 (A) (A) (A) (A) (A) (A) (A) (A) (A) (A) (A) (A)
                 (A) (A) (A) (A) (A) (A) (A) (A) (A) (A) (A) (A)
                 (A) (A) (A) (A) (A) (A) (A) (A) (A) (A) (A) (A)
                 (A) (A) (A) (A) (A) (A) (A) (A) (A) (A) (A) (A)
                 (A) (A) (A) (A) (A) (A) (A) (A) (A) (A) (A) (A)
                 (A) (A) (A) (A) (A) (A) (A) (A) (A) (A) (A) (A)
                 (A) (A) (A) (A) (A) (A) (A) (A) (A)
 Beta  Orbitals:
       Occupied  (A) (A) (A) (A) (A) (A) (A) (A) (A) (A) (A) (A)
                 (A) (A) (A) (A) (A) (A) (A) (A) (A) (A) (A) (A)
                 (A) (A) (A)
       Virtual   (A) (A) (A) (A) (A) (A) (A) (A) (A) (A) (A) (A)
                 (A) (A) (A) (A) (A) (A) (A) (A) (A) (A) (A) (A)
                 (A) (A) (A) (A) (A) (A) (A) (A) (A) (A) (A) (A)
                 (A) (A) (A) (A) (A) (A) (A) (A) (A) (A) (A) (A)
                 (A) (A) (A) (A) (A) (A) (A) (A) (A) (A) (A) (A)
                 (A) (A) (A) (A) (A) (A) (A) (A) (A) (A) (A) (A)
                 (A) (A) (A) (A) (A) (A) (A) (A) (A) (A) (A) (A)
                 (A) (A) (A) (A) (A) (A) (A) (A) (A) (A) (A) (A)
                 (A) (A) (A) (A) (A) (A) (A) (A) (A) (A) (A) (A)
                 (A) (A) (A) (A) (A) (A) (A) (A) (A) (A) (A) (A)
                 (A) (A) (A) (A) (A) (A) (A) (A) (A) (A) (A) (A)
                 (A) (A) (A) (A) (A) (A) (A) (A) (A) (A) (A) (A)
                 (A) (A) (A) (A) (A) (A) (A) (A) (A) (A) (A) (A)
                 (A) (A) (A) (A) (A) (A) (A) (A) (A) (A) (A) (A)
                 (A) (A) (A) (A) (A) (A) (A) (A) (A) (A) (A) (A)
                 (A) (A) (A) (A) (A) (A) (A) (A) (A) (A) (A) (A)
                 (A) (A) (A) (A) (A) (A) (A) (A) (A) (A) (A) (A)
                 (A) (A) (A) (A) (A) (A) (A) (A) (A) (A) (A) (A)
                 (A) (A) (A) (A) (A) (A) (A) (A) (A) (A) (A) (A)
                 (A) (A) (A) (A) (A) (A) (A) (A) (A) (A) (A) (A)
                 (A) (A) (A) (A) (A) (A) (A) (A) (A) (A) (A) (A)
                 (A) (A) (A) (A) (A) (A) (A) (A) (A) (A) (A) (A)
                 (A) (A) (A) (A) (A) (A) (A) (A) (A) (A) (A) (A)
                 (A) (A) (A) (A) (A) (A) (A) (A) (A) (A) (A) (A)
                 (A) (A) (A) (A) (A) (A) (A) (A) (A) (A) (A) (A)
                 (A) (A) (A) (A) (A) (A) (A) (A) (A) (A)
 The electronic state of the initial guess is 2-A.
 Initial guess <Sx>= 0.0000 <Sy>= 0.0000 <Sz>= 0.5000 <S**2>= 0.7500 S= 0.5000
 Requested convergence on RMS density matrix=1.00D-08 within 128 cycles.
 Requested convergence on MAX density matrix=1.00D-06.
 Requested convergence on             energy=1.00D-06.
 No special actions if energy rises.
 SCF Done:  E(UM062X) =  -310.378078117     A.U. after   15 cycles
             Convg  =    0.6864D-08             -V/T =  2.0054
 <Sx>= 0.0000 <Sy>= 0.0000 <Sz>= 0.5000 <S**2>= 0.7541 S= 0.5020
 <L.S>= 0.000000000000E+00
 Annihilation of the first spin contaminant:
 S**2 before annihilation     0.7541,   after     0.7500

 **********************************************************************

            Population analysis using the SCF density.

 **********************************************************************

 Orbital symmetries:
 Alpha Orbitals:
       Occupied  (A) (A) (A) (A) (A) (A) (A) (A) (A) (A) (A) (A)
                 (A) (A) (A) (A) (A) (A) (A) (A) (A) (A) (A) (A)
                 (A) (A) (A) (A)
       Virtual   (A) (A) (A) (A) (A) (A) (A) (A) (A) (A) (A) (A)
                 (A) (A) (A) (A) (A) (A) (A) (A) (A) (A) (A) (A)
                 (A) (A) (A) (A) (A) (A) (A) (A) (A) (A) (A) (A)
                 (A) (A) (A) (A) (A) (A) (A) (A) (A) (A) (A) (A)
                 (A) (A) (A) (A) (A) (A) (A) (A) (A) (A) (A) (A)
                 (A) (A) (A) (A) (A) (A) (A) (A) (A) (A) (A) (A)
                 (A) (A) (A) (A) (A) (A) (A) (A) (A) (A) (A) (A)
                 (A) (A) (A) (A) (A) (A) (A) (A) (A) (A) (A) (A)
                 (A) (A) (A) (A) (A) (A) (A) (A) (A) (A) (A) (A)
                 (A) (A) (A) (A) (A) (A) (A) (A) (A) (A) (A) (A)
                 (A) (A) (A) (A) (A) (A) (A) (A) (A) (A) (A) (A)
                 (A) (A) (A) (A) (A) (A) (A) (A) (A) (A) (A) (A)
                 (A) (A) (A) (A) (A) (A) (A) (A) (A) (A) (A) (A)
                 (A) (A) (A) (A) (A) (A) (A) (A) (A) (A) (A) (A)
                 (A) (A) (A) (A) (A) (A) (A) (A) (A) (A) (A) (A)
                 (A) (A) (A) (A) (A) (A) (A) (A) (A) (A) (A) (A)
                 (A) (A) (A) (A) (A) (A) (A) (A) (A) (A) (A) (A)
                 (A) (A) (A) (A) (A) (A) (A) (A) (A) (A) (A) (A)
                 (A) (A) (A) (A) (A) (A) (A) (A) (A) (A) (A) (A)
                 (A) (A) (A) (A) (A) (A) (A) (A) (A) (A) (A) (A)
                 (A) (A) (A) (A) (A) (A) (A) (A) (A) (A) (A) (A)
                 (A) (A) (A) (A) (A) (A) (A) (A) (A) (A) (A) (A)
                 (A) (A) (A) (A) (A) (A) (A) (A) (A) (A) (A) (A)
                 (A) (A) (A) (A) (A) (A) (A) (A) (A) (A) (A) (A)
                 (A) (A) (A) (A) (A) (A) (A) (A) (A) (A) (A) (A)
                 (A) (A) (A) (A) (A) (A) (A) (A) (A)
 Beta  Orbitals:
       Occupied  (A) (A) (A) (A) (A) (A) (A) (A) (A) (A) (A) (A)
                 (A) (A) (A) (A) (A) (A) (A) (A) (A) (A) (A) (A)
                 (A) (A) (A)
       Virtual   (A) (A) (A) (A) (A) (A) (A) (A) (A) (A) (A) (A)
                 (A) (A) (A) (A) (A) (A) (A) (A) (A) (A) (A) (A)
                 (A) (A) (A) (A) (A) (A) (A) (A) (A) (A) (A) (A)
                 (A) (A) (A) (A) (A) (A) (A) (A) (A) (A) (A) (A)
                 (A) (A) (A) (A) (A) (A) (A) (A) (A) (A) (A) (A)
                 (A) (A) (A) (A) (A) (A) (A) (A) (A) (A) (A) (A)
                 (A) (A) (A) (A) (A) (A) (A) (A) (A) (A) (A) (A)
                 (A) (A) (A) (A) (A) (A) (A) (A) (A) (A) (A) (A)
                 (A) (A) (A) (A) (A) (A) (A) (A) (A) (A) (A) (A)
                 (A) (A) (A) (A) (A) (A) (A) (A) (A) (A) (A) (A)
                 (A) (A) (A) (A) (A) (A) (A) (A) (A) (A) (A) (A)
                 (A) (A) (A) (A) (A) (A) (A) (A) (A) (A) (A) (A)
                 (A) (A) (A) (A) (A) (A) (A) (A) (A) (A) (A) (A)
                 (A) (A) (A) (A) (A) (A) (A) (A) (A) (A) (A) (A)
                 (A) (A) (A) (A) (A) (A) (A) (A) (A) (A) (A) (A)
                 (A) (A) (A) (A) (A) (A) (A) (A) (A) (A) (A) (A)
                 (A) (A) (A) (A) (A) (A) (A) (A) (A) (A) (A) (A)
                 (A) (A) (A) (A) (A) (A) (A) (A) (A) (A) (A) (A)
                 (A) (A) (A) (A) (A) (A) (A) (A) (A) (A) (A) (A)
                 (A) (A) (A) (A) (A) (A) (A) (A) (A) (A) (A) (A)
                 (A) (A) (A) (A) (A) (A) (A) (A) (A) (A) (A) (A)
                 (A) (A) (A) (A) (A) (A) (A) (A) (A) (A) (A) (A)
                 (A) (A) (A) (A) (A) (A) (A) (A) (A) (A) (A) (A)
                 (A) (A) (A) (A) (A) (A) (A) (A) (A) (A) (A) (A)
                 (A) (A) (A) (A) (A) (A) (A) (A) (A) (A) (A) (A)
                 (A) (A) (A) (A) (A) (A) (A) (A) (A) (A)
 The electronic state is 2-A.
 Alpha  occ. eigenvalues --  -19.67296 -10.63999 -10.57254 -10.55278 -10.54996
 Alpha  occ. eigenvalues --  -10.53785 -10.53504  -1.20135  -0.93113  -0.87091
 Alpha  occ. eigenvalues --   -0.77881  -0.74992  -0.64912  -0.63706  -0.56527
 Alpha  occ. eigenvalues --   -0.55183  -0.53816  -0.51847  -0.49196  -0.48554
 Alpha  occ. eigenvalues --   -0.46570  -0.45632  -0.43274  -0.42368  -0.39491
 Alpha  occ. eigenvalues --   -0.39132  -0.38644  -0.27880
 Alpha virt. eigenvalues --   -0.00487   0.01060   0.02582   0.02730   0.03380
 Alpha virt. eigenvalues --    0.05276   0.05586   0.05778   0.06019   0.06452
 Alpha virt. eigenvalues --    0.08386   0.08813   0.09456   0.09701   0.10234
 Alpha virt. eigenvalues --    0.11322   0.11659   0.12860   0.13859   0.14168
 Alpha virt. eigenvalues --    0.16247   0.17034   0.18087   0.18464   0.19433
 Alpha virt. eigenvalues --    0.20318   0.20699   0.21416   0.23385   0.23782
 Alpha virt. eigenvalues --    0.25201   0.25609   0.25795   0.26129   0.26608
 Alpha virt. eigenvalues --    0.27572   0.27709   0.28674   0.29500   0.30187
 Alpha virt. eigenvalues --    0.31143   0.32864   0.34532   0.36318   0.38103
 Alpha virt. eigenvalues --    0.38903   0.40043   0.42106   0.44423   0.46566
 Alpha virt. eigenvalues --    0.47321   0.48616   0.48848   0.50593   0.51193
 Alpha virt. eigenvalues --    0.53388   0.53548   0.54436   0.55363   0.56264
 Alpha virt. eigenvalues --    0.57368   0.58232   0.59427   0.60544   0.60865
 Alpha virt. eigenvalues --    0.61662   0.62732   0.64148   0.65149   0.65771
 Alpha virt. eigenvalues --    0.67624   0.67960   0.68408   0.69673   0.70432
 Alpha virt. eigenvalues --    0.71222   0.73985   0.75324   0.77316   0.79739
 Alpha virt. eigenvalues --    0.80080   0.83869   0.84634   0.85114   0.87717
 Alpha virt. eigenvalues --    0.87854   0.91737   0.92727   0.93870   0.96387
 Alpha virt. eigenvalues --    0.98113   1.01903   1.03998   1.04823   1.06023
 Alpha virt. eigenvalues --    1.07774   1.09153   1.10030   1.11842   1.12183
 Alpha virt. eigenvalues --    1.13096   1.13785   1.15075   1.16640   1.18349
 Alpha virt. eigenvalues --    1.18887   1.19332   1.20793   1.21664   1.23434
 Alpha virt. eigenvalues --    1.25185   1.27119   1.27862   1.28969   1.30464
 Alpha virt. eigenvalues --    1.30925   1.32202   1.34498   1.35571   1.36296
 Alpha virt. eigenvalues --    1.37332   1.39057   1.40389   1.42174   1.43426
 Alpha virt. eigenvalues --    1.44444   1.46060   1.46839   1.48659   1.48964
 Alpha virt. eigenvalues --    1.52438   1.53586   1.54208   1.55092   1.56616
 Alpha virt. eigenvalues --    1.58809   1.59916   1.60898   1.61534   1.63278
 Alpha virt. eigenvalues --    1.64124   1.66275   1.67765   1.70246   1.71547
 Alpha virt. eigenvalues --    1.72139   1.77169   1.79954   1.80662   1.82380
 Alpha virt. eigenvalues --    2.03477   2.15979   2.39475   2.41391   2.46262
 Alpha virt. eigenvalues --    2.49424   2.51590   2.55497   2.58175   2.58635
 Alpha virt. eigenvalues --    2.63994   2.68650   2.69971   2.71326   2.72978
 Alpha virt. eigenvalues --    2.75785   2.76243   2.77992   2.79623   2.80665
 Alpha virt. eigenvalues --    2.82618   2.83263   2.87536   2.88086   2.90049
 Alpha virt. eigenvalues --    2.93663   2.94574   2.96353   2.96954   2.99102
 Alpha virt. eigenvalues --    3.01494   3.02057   3.04084   3.05731   3.06255
 Alpha virt. eigenvalues --    3.11283   3.12981   3.14544   3.16513   3.17790
 Alpha virt. eigenvalues --    3.20062   3.20850   3.25431   3.27588   3.28693
 Alpha virt. eigenvalues --    3.29392   3.30767   3.32492   3.33971   3.35026
 Alpha virt. eigenvalues --    3.35693   3.37718   3.39555   3.40823   3.42375
 Alpha virt. eigenvalues --    3.44891   3.46066   3.47675   3.50644   3.51839
 Alpha virt. eigenvalues --    3.54008   3.56215   3.58820   3.59473   3.61472
 Alpha virt. eigenvalues --    3.62880   3.66357   3.67229   3.68793   3.71246
 Alpha virt. eigenvalues --    3.73441   3.74427   3.75221   3.77897   3.80247
 Alpha virt. eigenvalues --    3.81674   3.83361   3.85941   3.90196   3.92018
 Alpha virt. eigenvalues --    3.92537   3.94829   3.95551   3.96552   3.97537
 Alpha virt. eigenvalues --    3.98740   4.00694   4.02927   4.04657   4.09251
 Alpha virt. eigenvalues --    4.10295   4.13507   4.13932   4.16797   4.17406
 Alpha virt. eigenvalues --    4.18997   4.19881   4.21629   4.22026   4.22491
 Alpha virt. eigenvalues --    4.25716   4.28267   4.32892   4.34401   4.36320
 Alpha virt. eigenvalues --    4.41015   4.43378   4.44401   4.46305   4.47692
 Alpha virt. eigenvalues --    4.48866   4.51580   4.52162   4.55314   4.56418
 Alpha virt. eigenvalues --    4.58053   4.59247   4.60799   4.67915   4.70374
 Alpha virt. eigenvalues --    4.70878   4.75444   4.83660   4.86783   4.96364
 Alpha virt. eigenvalues --    5.06099   5.06258   5.13966   5.14430   5.24429
 Alpha virt. eigenvalues --    5.26015   5.34391   5.35239   5.42839   5.43450
 Alpha virt. eigenvalues --    5.44381   5.49207   5.52283   5.53442   5.56417
 Alpha virt. eigenvalues --    5.56812   5.58274   5.60720   5.61844   6.19215
 Alpha virt. eigenvalues --    6.39110   6.78140   6.80859   6.94824   7.17582
 Alpha virt. eigenvalues --    7.26280   7.56976  24.17953  24.25389  24.32539
 Alpha virt. eigenvalues --   24.36733  24.41367  24.56527  50.16713
  Beta  occ. eigenvalues --  -19.66569 -10.63317 -10.57035 -10.55278 -10.54996
  Beta  occ. eigenvalues --  -10.53783 -10.53503  -1.17937  -0.92832  -0.86305
  Beta  occ. eigenvalues --   -0.77874  -0.74332  -0.64812  -0.61466  -0.56191
  Beta  occ. eigenvalues --   -0.53447  -0.52727  -0.50328  -0.48327  -0.46660
  Beta  occ. eigenvalues --   -0.45892  -0.44716  -0.42212  -0.42108  -0.39458
  Beta  occ. eigenvalues --   -0.39057  -0.37938
  Beta virt. eigenvalues --   -0.05348   0.00825   0.01197   0.02363   0.02548
  Beta virt. eigenvalues --    0.03555   0.04954   0.05512   0.05556   0.05895
  Beta virt. eigenvalues --    0.06292   0.08441   0.08510   0.09186   0.09492
  Beta virt. eigenvalues --    0.09896   0.11219   0.11593   0.12529   0.13730
  Beta virt. eigenvalues --    0.13863   0.15783   0.16833   0.17670   0.18457
  Beta virt. eigenvalues --    0.19216   0.20044   0.20645   0.21338   0.23488
  Beta virt. eigenvalues --    0.23782   0.25145   0.25677   0.25801   0.26237
  Beta virt. eigenvalues --    0.26744   0.27603   0.27687   0.28711   0.29397
  Beta virt. eigenvalues --    0.30212   0.31457   0.33098   0.35396   0.36290
  Beta virt. eigenvalues --    0.38180   0.38924   0.40128   0.42204   0.44835
  Beta virt. eigenvalues --    0.46793   0.47619   0.48595   0.48906   0.50588
  Beta virt. eigenvalues --    0.51299   0.53534   0.53872   0.54552   0.55337
  Beta virt. eigenvalues --    0.56208   0.57241   0.58197   0.59456   0.60588
  Beta virt. eigenvalues --    0.61071   0.61523   0.62695   0.64089   0.65158
  Beta virt. eigenvalues --    0.66272   0.67815   0.67931   0.68483   0.69668
  Beta virt. eigenvalues --    0.70526   0.71254   0.73957   0.75231   0.77489
  Beta virt. eigenvalues --    0.79173   0.80263   0.83892   0.84897   0.85374
  Beta virt. eigenvalues --    0.87822   0.87994   0.91721   0.92672   0.93936
  Beta virt. eigenvalues --    0.96496   0.98153   1.01896   1.03850   1.05019
  Beta virt. eigenvalues --    1.06062   1.07902   1.09292   1.10089   1.11920
  Beta virt. eigenvalues --    1.12348   1.13122   1.13929   1.15067   1.16948
  Beta virt. eigenvalues --    1.18506   1.18933   1.19434   1.20848   1.21626
  Beta virt. eigenvalues --    1.23444   1.25236   1.27217   1.27883   1.29080
  Beta virt. eigenvalues --    1.30556   1.31141   1.32297   1.34526   1.35634
  Beta virt. eigenvalues --    1.36283   1.37364   1.39186   1.40361   1.42296
  Beta virt. eigenvalues --    1.43427   1.44545   1.46071   1.46921   1.48700
  Beta virt. eigenvalues --    1.49041   1.52551   1.53632   1.54268   1.55093
  Beta virt. eigenvalues --    1.56690   1.58864   1.59969   1.60955   1.61661
  Beta virt. eigenvalues --    1.63291   1.64143   1.66363   1.68323   1.70333
  Beta virt. eigenvalues --    1.71510   1.72457   1.77386   1.80350   1.81148
  Beta virt. eigenvalues --    1.82786   2.03675   2.16872   2.39698   2.41443
  Beta virt. eigenvalues --    2.46576   2.50155   2.51684   2.55692   2.58410
  Beta virt. eigenvalues --    2.58778   2.64782   2.68810   2.70152   2.71765
  Beta virt. eigenvalues --    2.73201   2.76165   2.76777   2.78672   2.80522
  Beta virt. eigenvalues --    2.81260   2.82982   2.83821   2.88056   2.89440
  Beta virt. eigenvalues --    2.90233   2.94201   2.94888   2.96554   2.97408
  Beta virt. eigenvalues --    2.99215   3.02085   3.02199   3.04717   3.06224
  Beta virt. eigenvalues --    3.07264   3.12432   3.13544   3.15236   3.17256
  Beta virt. eigenvalues --    3.18045   3.20975   3.21636   3.27974   3.28512
  Beta virt. eigenvalues --    3.29729   3.31060   3.31576   3.32794   3.34251
  Beta virt. eigenvalues --    3.35886   3.36989   3.37894   3.40296   3.42170
  Beta virt. eigenvalues --    3.43932   3.45467   3.47380   3.48986   3.52514
  Beta virt. eigenvalues --    3.53575   3.54569   3.56573   3.59220   3.60412
  Beta virt. eigenvalues --    3.62021   3.63791   3.67192   3.67637   3.69021
  Beta virt. eigenvalues --    3.71867   3.73811   3.74619   3.75373   3.78050
  Beta virt. eigenvalues --    3.80758   3.82275   3.83689   3.86478   3.90486
  Beta virt. eigenvalues --    3.92283   3.92835   3.95013   3.95800   3.96897
  Beta virt. eigenvalues --    3.97920   3.99177   4.00960   4.03380   4.04784
  Beta virt. eigenvalues --    4.09315   4.10702   4.13957   4.14106   4.16974
  Beta virt. eigenvalues --    4.17880   4.19193   4.20075   4.21761   4.22266
  Beta virt. eigenvalues --    4.22629   4.26209   4.28501   4.33132   4.34696
  Beta virt. eigenvalues --    4.36466   4.41182   4.43923   4.44609   4.46567
  Beta virt. eigenvalues --    4.47839   4.49065   4.52165   4.53403   4.55475
  Beta virt. eigenvalues --    4.56463   4.58160   4.59372   4.61129   4.67950
  Beta virt. eigenvalues --    4.70634   4.71048   4.75975   4.84015   4.86823
  Beta virt. eigenvalues --    4.97441   5.06690   5.06993   5.14729   5.15146
  Beta virt. eigenvalues --    5.26113   5.26813   5.34723   5.35248   5.43177
  Beta virt. eigenvalues --    5.43785   5.44720   5.49284   5.52979   5.53507
  Beta virt. eigenvalues --    5.56456   5.56977   5.58319   5.60781   5.62279
  Beta virt. eigenvalues --    6.19623   6.40658   6.81062   6.83859   6.96799
  Beta virt. eigenvalues --    7.17568   7.29086   7.57601  24.18003  24.25491
  Beta virt. eigenvalues --   24.32550  24.36911  24.41379  24.57417  50.16079
          Condensed to atoms (all electrons):
              1          2          3          4          5          6
     1  C    5.817993  -0.356134   0.140773   0.084436   0.033854  -0.124587
     2  C   -0.356134   6.401168  -0.672026   0.193931  -0.188185   0.213447
     3  C    0.140773  -0.672026   6.200017  -0.187054   0.218203  -0.167851
     4  C    0.084436   0.193931  -0.187054   5.443907  -0.190530  -0.006638
     5  C    0.033854  -0.188185   0.218203  -0.190530   5.514722   0.012696
     6  C   -0.124587   0.213447  -0.167851  -0.006638   0.012696   5.809140
     7  H    0.491717  -0.027339  -0.022477  -0.030969  -0.058844  -0.001546
     8  H   -0.004545   0.473039  -0.065920  -0.005913  -0.032822   0.002218
     9  H   -0.049027   0.435202  -0.031002   0.007252   0.010084  -0.011460
    10  H   -0.015494  -0.009760   0.382311   0.001938  -0.001960  -0.003498
    11  H    0.007037  -0.008028   0.375973   0.004993  -0.013278  -0.004122
    12  H    0.072765  -0.053448   0.008106   0.360236  -0.012733  -0.000157
    13  H   -0.028908  -0.035046   0.004683   0.408156   0.029583  -0.001107
    14  H   -0.083445   0.053540  -0.001434   0.424990  -0.017329   0.001087
    15  H   -0.027301  -0.025221   0.014301   0.006356   0.409232   0.003636
    16  H   -0.091695   0.050318  -0.004217  -0.006192   0.427653   0.001654
    17  H    0.011138  -0.022471  -0.005606  -0.002071   0.400858  -0.004722
    18  O    0.011899   0.004268  -0.102944   0.000358  -0.002418   0.378180
              7          8          9         10         11         12
     1  C    0.491717  -0.004545  -0.049027  -0.015494   0.007037   0.072765
     2  C   -0.027339   0.473039   0.435202  -0.009760  -0.008028  -0.053448
     3  C   -0.022477  -0.065920  -0.031002   0.382311   0.375973   0.008106
     4  C   -0.030969  -0.005913   0.007252   0.001938   0.004993   0.360236
     5  C   -0.058844  -0.032822   0.010084  -0.001960  -0.013278  -0.012733
     6  C   -0.001546   0.002218  -0.011460  -0.003498  -0.004122  -0.000157
     7  H    0.492267   0.003255  -0.004797  -0.000017   0.000269   0.005595
     8  H    0.003255   0.460346  -0.025737  -0.006682   0.003839   0.000491
     9  H   -0.004797  -0.025737   0.499838   0.004542  -0.005700  -0.001414
    10  H   -0.000017  -0.006682   0.004542   0.505137  -0.024655  -0.000046
    11  H    0.000269   0.003839  -0.005700  -0.024655   0.497210  -0.000040
    12  H    0.005595   0.000491  -0.001414  -0.000046  -0.000040   0.527807
    13  H   -0.006780   0.000224   0.002437  -0.000013   0.000004  -0.029229
    14  H   -0.006144  -0.000295   0.000129   0.000004  -0.000019  -0.027726
    15  H   -0.006319   0.000216  -0.000112  -0.002306  -0.000411  -0.000188
    16  H   -0.003189  -0.000165  -0.000264   0.000192  -0.000016  -0.000720
    17  H    0.004840   0.000707   0.000072  -0.000169   0.000043   0.001076
    18  O   -0.000109   0.000182   0.000583  -0.001897  -0.002268  -0.000001
             13         14         15         16         17         18
     1  C   -0.028908  -0.083445  -0.027301  -0.091695   0.011138   0.011899
     2  C   -0.035046   0.053540  -0.025221   0.050318  -0.022471   0.004268
     3  C    0.004683  -0.001434   0.014301  -0.004217  -0.005606  -0.102944
     4  C    0.408156   0.424990   0.006356  -0.006192  -0.002071   0.000358
     5  C    0.029583  -0.017329   0.409232   0.427653   0.400858  -0.002418
     6  C   -0.001107   0.001087   0.003636   0.001654  -0.004722   0.378180
     7  H   -0.006780  -0.006144  -0.006319  -0.003189   0.004840  -0.000109
     8  H    0.000224  -0.000295   0.000216  -0.000165   0.000707   0.000182
     9  H    0.002437   0.000129  -0.000112  -0.000264   0.000072   0.000583
    10  H   -0.000013   0.000004  -0.002306   0.000192  -0.000169  -0.001897
    11  H    0.000004  -0.000019  -0.000411  -0.000016   0.000043  -0.002268
    12  H   -0.029229  -0.027726  -0.000188  -0.000720   0.001076  -0.000001
    13  H    0.535359  -0.019955  -0.000402   0.000436  -0.000298   0.000001
    14  H   -0.019955   0.528085   0.000389   0.002794   0.000038  -0.000001
    15  H   -0.000402   0.000389   0.533927  -0.022319  -0.028930   0.000048
    16  H    0.000436   0.002794  -0.022319   0.520999  -0.024388   0.000004
    17  H   -0.000298   0.000038  -0.028930  -0.024388   0.511456  -0.000023
    18  O    0.000001  -0.000001   0.000048   0.000004  -0.000023   7.938038
 Mulliken atomic charges:
              1
     1  C    0.109525
     2  C   -0.427257
     3  C   -0.083836
     4  C   -0.507185
     5  C   -0.538786
     6  C   -0.096371
     7  H    0.170589
     8  H    0.197560
     9  H    0.169376
    10  H    0.172371
    11  H    0.169171
    12  H    0.149629
    13  H    0.140855
    14  H    0.145292
    15  H    0.145405
    16  H    0.149114
    17  H    0.158449
    18  O   -0.223901
 Sum of Mulliken atomic charges =   0.00000
 Mulliken charges with hydrogens summed into heavy atoms:
              1
     1  C    0.280114
     2  C   -0.060320
     3  C    0.257706
     4  C   -0.071409
     5  C   -0.085818
     6  C   -0.096371
    18  O   -0.223901
 Sum of Mulliken charges with hydrogens summed into heavy atoms =   0.00000
          Atomic-Atomic Spin Densities.
              1          2          3          4          5          6
     1  C    0.040883  -0.020042  -0.025244  -0.000284  -0.013478   0.036948
     2  C   -0.020042   0.057128  -0.072823  -0.005402  -0.005909   0.076478
     3  C   -0.025244  -0.072823   0.416016  -0.009021   0.014208  -0.198804
     4  C   -0.000284  -0.005402  -0.009021   0.016798  -0.008117   0.009467
     5  C   -0.013478  -0.005909   0.014208  -0.008117   0.021652  -0.011365
     6  C    0.036948   0.076478  -0.198804   0.009467  -0.011365   0.844352
     7  H   -0.003447   0.001646   0.003148  -0.003476   0.002904  -0.001324
     8  H   -0.003143  -0.001578   0.008829  -0.002461   0.001000  -0.003955
     9  H   -0.004048  -0.002455   0.008639  -0.000546   0.001499  -0.003140
    10  H    0.005336   0.010951  -0.028696   0.001246  -0.003215   0.010974
    11  H    0.005284   0.010957  -0.027648   0.001494  -0.003152   0.009914
    12  H   -0.000441   0.000533   0.000903  -0.002065   0.000986  -0.000356
    13  H    0.000086   0.000022   0.000427  -0.000759   0.000156  -0.000074
    14  H    0.000312  -0.000692  -0.000160   0.000404   0.000032  -0.000022
    15  H   -0.000708  -0.000038   0.000244   0.000437   0.001049  -0.000768
    16  H    0.002487  -0.000695  -0.000527   0.000892  -0.002723   0.000235
    17  H   -0.000206  -0.000717   0.000875  -0.000547   0.000526  -0.000012
    18  O    0.000882   0.000047  -0.009084  -0.000035  -0.000552  -0.172190
              7          8          9         10         11         12
     1  C   -0.003447  -0.003143  -0.004048   0.005336   0.005284  -0.000441
     2  C    0.001646  -0.001578  -0.002455   0.010951   0.010957   0.000533
     3  C    0.003148   0.008829   0.008639  -0.028696  -0.027648   0.000903
     4  C   -0.003476  -0.002461  -0.000546   0.001246   0.001494  -0.002065
     5  C    0.002904   0.001000   0.001499  -0.003215  -0.003152   0.000986
     6  C   -0.001324  -0.003955  -0.003140   0.010974   0.009914  -0.000356
     7  H   -0.001175  -0.000055   0.000074  -0.000235  -0.000641   0.000037
     8  H   -0.000055  -0.006869   0.001033  -0.000271  -0.000287   0.000047
     9  H    0.000074   0.001033  -0.008285  -0.000231  -0.000098   0.000002
    10  H   -0.000235  -0.000271  -0.000231   0.000374   0.002076  -0.000015
    11  H   -0.000641  -0.000287  -0.000098   0.002076  -0.000690  -0.000010
    12  H    0.000037   0.000047   0.000002  -0.000015  -0.000010   0.000370
    13  H    0.000023  -0.000009   0.000090  -0.000002  -0.000010   0.000055
    14  H   -0.000019  -0.000005   0.000014   0.000001   0.000000   0.000007
    15  H    0.000007  -0.000010   0.000007  -0.000066  -0.000023   0.000000
    16  H   -0.000074  -0.000015   0.000007   0.000062   0.000023  -0.000032
    17  H   -0.000037  -0.000167  -0.000001  -0.000071  -0.000009   0.000007
    18  O   -0.000045  -0.000058  -0.000029   0.003738   0.003321   0.000000
             13         14         15         16         17         18
     1  C    0.000086   0.000312  -0.000708   0.002487  -0.000206   0.000882
     2  C    0.000022  -0.000692  -0.000038  -0.000695  -0.000717   0.000047
     3  C    0.000427  -0.000160   0.000244  -0.000527   0.000875  -0.009084
     4  C   -0.000759   0.000404   0.000437   0.000892  -0.000547  -0.000035
     5  C    0.000156   0.000032   0.001049  -0.002723   0.000526  -0.000552
     6  C   -0.000074  -0.000022  -0.000768   0.000235  -0.000012  -0.172190
     7  H    0.000023  -0.000019   0.000007  -0.000074  -0.000037  -0.000045
     8  H   -0.000009  -0.000005  -0.000010  -0.000015  -0.000167  -0.000058
     9  H    0.000090   0.000014   0.000007   0.000007  -0.000001  -0.000029
    10  H   -0.000002   0.000001  -0.000066   0.000062  -0.000071   0.003738
    11  H   -0.000010   0.000000  -0.000023   0.000023  -0.000009   0.003321
    12  H    0.000055   0.000007   0.000000  -0.000032   0.000007   0.000000
    13  H    0.000104   0.000003   0.000002  -0.000007   0.000003   0.000000
    14  H    0.000003   0.000051  -0.000001  -0.000002   0.000007   0.000000
    15  H    0.000002  -0.000001  -0.002109   0.000221   0.000101  -0.000017
    16  H   -0.000007  -0.000002   0.000221   0.000309   0.000029   0.000002
    17  H    0.000003   0.000007   0.000101   0.000029  -0.000339  -0.000003
    18  O    0.000000   0.000000  -0.000017   0.000002  -0.000003   0.451907
 Mulliken atomic spin densities:
              1
     1  C    0.021178
     2  C    0.047412
     3  C    0.081283
     4  C   -0.001973
     5  C   -0.004497
     6  C    0.596357
     7  H   -0.002688
     8  H   -0.007974
     9  H   -0.007468
    10  H    0.001957
    11  H    0.000502
    12  H    0.000028
    13  H    0.000108
    14  H   -0.000069
    15  H   -0.001672
    16  H    0.000193
    17  H   -0.000561
    18  O    0.277885
 Sum of Mulliken atomic spin densities =   1.00000
 Electronic spatial extent (au):  <R**2>=           1185.2949
 Charge=              0.0000 electrons
 Dipole moment (field-independent basis, Debye):
    X=             -2.8559    Y=              0.4141    Z=             -0.4571  Tot=              2.9218
 Quadrupole moment (field-independent basis, Debye-Ang):
   XX=            -57.9359   YY=            -45.5977   ZZ=            -44.2306
   XY=              0.4364   XZ=             -0.3211   YZ=              0.7945
 Traceless Quadrupole moment (field-independent basis, Debye-Ang):
   XX=             -8.6811   YY=              3.6570   ZZ=              5.0241
   XY=              0.4364   XZ=             -0.3211   YZ=              0.7945
 Octapole moment (field-independent basis, Debye-Ang**2):
  XXX=            -41.4677  YYY=              1.6727  ZZZ=             -1.4266  XYY=              4.0776
  XXY=              2.5226  XXZ=             -2.4911  XZZ=              3.3727  YZZ=              0.9235
  YYZ=             -1.9909  XYZ=              1.9322
 Hexadecapole moment (field-independent basis, Debye-Ang**3):
 XXXX=          -1428.3887 YYYY=           -252.5056 ZZZZ=            -96.5922 XXXY=             -5.7423
 XXXZ=              5.5344 YYYX=              8.6567 YYYZ=              3.2161 ZZZX=             -6.8239
 ZZZY=              1.0678 XXYY=           -254.7971 XXZZ=           -221.8225 YYZZ=            -60.9433
 XXYZ=              2.6599 YYXZ=             -0.1133 ZZXY=              2.4039
 N-N= 2.891502405036D+02 E-N=-1.941880512659D+03  KE= 4.619661543047D+02
                          Isotropic Fermi Contact Couplings
        Atom                 a.u.       MegaHertz       Gauss      10(-4) cm-1
     1  C(13)             -0.00002      -0.02058      -0.00734      -0.00687
     2  C(13)              0.00315       3.54117       1.26358       1.18121
     3  C(13)              0.14344     161.25945      57.54138      53.79036
     4  C(13)             -0.00004      -0.04362      -0.01557      -0.01455
     5  C(13)              0.00110       1.23824       0.44184       0.41303
     6  C(13)              0.33846     380.49049     135.76846     126.91797
     7  H(1)               0.00015       0.67882       0.24222       0.22643
     8  H(1)               0.00002       0.09899       0.03532       0.03302
     9  H(1)              -0.00004      -0.20092      -0.07169      -0.06702
    10  H(1)               0.00041       1.81522       0.64772       0.60549
    11  H(1)               0.00066       2.93897       1.04870       0.98034
    12  H(1)               0.00001       0.04086       0.01458       0.01363
    13  H(1)               0.00000      -0.01938      -0.00691      -0.00646
    14  H(1)              -0.00004      -0.17125      -0.06111      -0.05712
    15  H(1)               0.00007       0.33028       0.11785       0.11017
    16  H(1)               0.00011       0.47626       0.16994       0.15886
    17  H(1)              -0.00001      -0.06446      -0.02300      -0.02150
    18  O(17)              0.08178     -49.57426     -17.68933     -16.53619
 --------------------------------------------------------
       Center         ----  Spin Dipole Couplings  ----
                      3XX-RR        3YY-RR        3ZZ-RR
 --------------------------------------------------------
     1   Atom        0.003959     -0.002075     -0.001884
     2   Atom        0.013610     -0.006968     -0.006642
     3   Atom        0.114515     -0.040847     -0.073668
     4   Atom        0.002319     -0.001039     -0.001280
     5   Atom        0.003208     -0.001125     -0.002083
     6   Atom       -0.331991      0.331696      0.000295
     7   Atom        0.003168     -0.002092     -0.001077
     8   Atom        0.008816     -0.005902     -0.002915
     9   Atom        0.009237     -0.002541     -0.006696
    10   Atom       -0.003268      0.015285     -0.012016
    11   Atom       -0.003799     -0.011929      0.015728
    12   Atom        0.001845     -0.000936     -0.000910
    13   Atom        0.001778     -0.000727     -0.001050
    14   Atom        0.001331     -0.000662     -0.000669
    15   Atom        0.002070      0.000146     -0.002216
    16   Atom        0.001399     -0.000533     -0.000866
    17   Atom        0.001809     -0.000861     -0.000948
    18   Atom       -0.601732      0.685500     -0.083768
 --------------------------------------------------------
                        XY            XZ            YZ
 --------------------------------------------------------
     1   Atom        0.000111      0.000090     -0.000304
     2   Atom       -0.002598      0.001937      0.000166
     3   Atom       -0.118086      0.087793     -0.052582
     4   Atom        0.000644      0.000004     -0.000154
     5   Atom       -0.001028     -0.000660     -0.000172
     6   Atom        0.006335     -0.005001     -0.445479
     7   Atom       -0.000133      0.002336     -0.000124
     8   Atom       -0.000896     -0.006336     -0.000609
     9   Atom        0.006799      0.003415      0.000650
    10   Atom       -0.013566      0.002650      0.004511
    11   Atom       -0.006808      0.011073     -0.005473
    12   Atom        0.000347     -0.000451     -0.000091
    13   Atom        0.000948      0.000437      0.000111
    14   Atom        0.000099      0.000246     -0.000015
    15   Atom       -0.002674     -0.000068     -0.000250
    16   Atom       -0.000902      0.000166     -0.000114
    17   Atom       -0.001387     -0.001000      0.000326
    18   Atom       -0.477606      0.340387     -1.082585
 --------------------------------------------------------


 ---------------------------------------------------------------------------------
              Anisotropic Spin Dipole Couplings in Principal Axis System
 ---------------------------------------------------------------------------------

       Atom             a.u.   MegaHertz   Gauss  10(-4) cm-1        Axes

              Baa    -0.0023    -0.309    -0.110    -0.103 -0.0228  0.8055  0.5921
     1 C(13)  Bbb    -0.0017    -0.223    -0.080    -0.074 -0.0012 -0.5923  0.8057
              Bcc     0.0040     0.532     0.190     0.177  0.9997  0.0177  0.0144
 
              Baa    -0.0075    -1.009    -0.360    -0.337  0.1506  0.8563 -0.4940
     2 C(13)  Bbb    -0.0066    -0.884    -0.315    -0.295 -0.0184  0.5021  0.8646
              Bcc     0.0141     1.893     0.675     0.631  0.9884 -0.1211  0.0913
 
              Baa    -0.1124   -15.078    -5.380    -5.029 -0.0250  0.5651  0.8247
     3 C(13)  Bbb    -0.1021   -13.701    -4.889    -4.570  0.5613  0.6905 -0.4562
              Bcc     0.2145    28.779    10.269     9.600  0.8272 -0.4515  0.3344
 
              Baa    -0.0014    -0.186    -0.066    -0.062 -0.0971  0.5528  0.8277
     4 C(13)  Bbb    -0.0011    -0.142    -0.051    -0.047 -0.1545  0.8131 -0.5612
              Bcc     0.0024     0.327     0.117     0.109  0.9832  0.1824 -0.0064
 
              Baa    -0.0023    -0.303    -0.108    -0.101  0.1693  0.2964  0.9399
     5 C(13)  Bbb    -0.0012    -0.168    -0.060    -0.056  0.1668  0.9313 -0.3238
              Bcc     0.0035     0.470     0.168     0.157  0.9714 -0.2116 -0.1082
 
              Baa    -0.3321   -44.560   -15.900   -14.864  0.9997  0.0055  0.0224
     6 C(13)  Bbb    -0.3093   -41.504   -14.810   -13.844 -0.0216  0.5707  0.8209
              Bcc     0.6414    86.064    30.710    28.708  0.0083  0.8211 -0.5707
 
              Baa    -0.0022    -1.154    -0.412    -0.385 -0.2860  0.6642  0.6907
     7 H(1)   Bbb    -0.0020    -1.090    -0.389    -0.364  0.2877  0.7471 -0.5993
              Bcc     0.0042     2.244     0.801     0.749  0.9140 -0.0273  0.4047
 
              Baa    -0.0067    -3.589    -1.280    -1.197  0.2860  0.7508  0.5954
     8 H(1)   Bbb    -0.0049    -2.603    -0.929    -0.868  0.2796 -0.6597  0.6976
              Bcc     0.0116     6.191     2.209     2.065  0.9165 -0.0330 -0.3986
 
              Baa    -0.0076    -4.063    -1.450    -1.355 -0.2993  0.2843  0.9108
     9 H(1)   Bbb    -0.0053    -2.833    -1.011    -0.945 -0.3183  0.8701 -0.3762
              Bcc     0.0129     6.896     2.461     2.300  0.8995  0.4025  0.1699
 
              Baa    -0.0159    -8.461    -3.019    -2.822 -0.5336 -0.3443  0.7724
    10 H(1)   Bbb    -0.0068    -3.632    -1.296    -1.211  0.7125  0.3089  0.6300
              Bcc     0.0227    12.093     4.315     4.034 -0.4555  0.8866  0.0805
 
              Baa    -0.0158    -8.439    -3.011    -2.815  0.5149  0.8567 -0.0321
    11 H(1)   Bbb    -0.0067    -3.574    -1.275    -1.192  0.7436 -0.4649 -0.4806
              Bcc     0.0225    12.013     4.286     4.007  0.4266 -0.2236  0.8764
 
              Baa    -0.0010    -0.542    -0.193    -0.181  0.0294  0.6931  0.7202
    12 H(1)   Bbb    -0.0009    -0.505    -0.180    -0.168 -0.1976  0.7104 -0.6755
              Bcc     0.0020     1.047     0.373     0.349  0.9798  0.1225 -0.1578
 
              Baa    -0.0011    -0.601    -0.215    -0.201 -0.2420  0.3195  0.9162
    13 H(1)   Bbb    -0.0010    -0.551    -0.196    -0.184 -0.2432  0.8941 -0.3760
              Bcc     0.0022     1.152     0.411     0.384  0.9393  0.3138  0.1386
 
              Baa    -0.0007    -0.381    -0.136    -0.127 -0.1272  0.4963  0.8588
    14 H(1)   Bbb    -0.0007    -0.348    -0.124    -0.116  0.0183  0.8668 -0.4982
              Bcc     0.0014     0.729     0.260     0.243  0.9917  0.0476  0.1193
 
              Baa    -0.0023    -1.237    -0.441    -0.413  0.2103  0.3217  0.9232
    15 H(1)   Bbb    -0.0016    -0.871    -0.311    -0.291  0.5360  0.7518 -0.3841
              Bcc     0.0040     2.108     0.752     0.703  0.8176 -0.5756  0.0143
 
              Baa    -0.0009    -0.496    -0.177    -0.165  0.2244  0.7034  0.6744
    16 H(1)   Bbb    -0.0008    -0.448    -0.160    -0.149 -0.2997 -0.6087  0.7346
              Bcc     0.0018     0.944     0.337     0.315  0.9273 -0.3670  0.0742
 
              Baa    -0.0015    -0.792    -0.283    -0.264  0.4504  0.8270  0.3364
    17 H(1)   Bbb    -0.0012    -0.649    -0.232    -0.216  0.1036 -0.4227  0.9003
              Bcc     0.0027     1.441     0.514     0.481  0.8868 -0.3707 -0.2761
 
              Baa    -0.8481    61.367    21.897    20.470 -0.0272  0.5708  0.8206
    18 O(17)  Bbb    -0.7575    54.811    19.558    18.283  0.9661  0.2259 -0.1251
              Bcc     1.6056  -116.179   -41.455   -38.753 -0.2568  0.7894 -0.5576
 

 ---------------------------------------------------------------------------------

 Calling FoFJK, ICntrl=      2127 FMM=F ISym2X=0 I1Cent= 0 IOpClX= 1 NMat=1 NMatS=1 NMatT=0.
 ***** Axes restored to original set *****
 -------------------------------------------------------------------
 Center     Atomic                   Forces (Hartrees/Bohr)
 Number     Number              X              Y              Z
 -------------------------------------------------------------------
      1        6          -0.002079925    0.000937254   -0.002846638
      2        6          -0.006434222    0.005828122    0.003273139
      3        6          -0.027778918    0.000701410   -0.001714408
      4        6          -0.003861867    0.005774746   -0.000390584
      5        6           0.000700467   -0.002804437    0.006527015
      6        6           0.082215186   -0.023473810    0.044120929
      7        1           0.000211838   -0.006209253   -0.009153551
      8        1           0.000852823    0.008613039    0.008891710
      9        1          -0.001834556   -0.012570615    0.002989231
     10        1           0.005131514    0.011319427   -0.002017524
     11        1           0.002757852   -0.008090969   -0.009122905
     12        1           0.001847267    0.006995200    0.010138453
     13        1          -0.004200154   -0.012127695    0.001342388
     14        1           0.009498619   -0.000919143   -0.009107066
     15        1          -0.008776247    0.001707224   -0.008149069
     16        1           0.010895170   -0.001583805   -0.007184011
     17        1           0.001169454    0.007023382    0.010011134
     18        8          -0.060314301    0.018879922   -0.037608243
 -------------------------------------------------------------------
 Cartesian Forces:  Max     0.082215186 RMS     0.017933406

 GradGradGradGradGradGradGradGradGradGradGradGradGradGradGradGradGradGrad
 Berny optimization.
 Internal  Forces:  Max     0.072376683 RMS     0.009898351
 Search for a local minimum.
 Step number   1 out of a maximum of   97
 All quantities printed in internal units (Hartrees-Bohrs-Radians)
 Swaping is turned off.
 Second derivative matrix not updated -- first step.
 ITU=  0
     Eigenvalues ---    0.00230   0.00284   0.00312   0.00318   0.00821
     Eigenvalues ---    0.03485   0.03585   0.04551   0.04805   0.04902
     Eigenvalues ---    0.05013   0.05484   0.05552   0.05614   0.05641
     Eigenvalues ---    0.05724   0.08266   0.11271   0.12168   0.13713
     Eigenvalues ---    0.16000   0.16000   0.16000   0.16000   0.16000
     Eigenvalues ---    0.16000   0.16386   0.16776   0.21954   0.22056
     Eigenvalues ---    0.25000   0.28029   0.28837   0.29031   0.29067
     Eigenvalues ---    0.32242   0.32290   0.32311   0.32446   0.32449
     Eigenvalues ---    0.32477   0.32491   0.32497   0.32497   0.32585
     Eigenvalues ---    0.32684   0.32822   0.95254
 Quadratic step=5.655D-01 exceeds max=3.000D-01 adjusted using Lamda=-4.800D-03.
 Angle between NR and scaled steps=  29.07 degrees.
 Angle between quadratic step and forces=  49.75 degrees.
 Linear search not attempted -- option 19 set.
 Iteration  1 RMS(Cart)=  0.04471862 RMS(Int)=  0.00122590
 Iteration  2 RMS(Cart)=  0.00157165 RMS(Int)=  0.00035622
 Iteration  3 RMS(Cart)=  0.00000101 RMS(Int)=  0.00035622
 Iteration  4 RMS(Cart)=  0.00000000 RMS(Int)=  0.00035622
 Variable       Old X    -DE/DX   Delta X   Delta X   Delta X     New X
                                 (Linear)    (Quad)   (Total)
    R1        2.92076  -0.00945   0.00000  -0.03316  -0.03316   2.88759
    R2        2.89938  -0.00360   0.00000  -0.01220  -0.01220   2.88719
    R3        2.90344  -0.00466   0.00000  -0.01589  -0.01589   2.88755
    R4        2.10278  -0.01087   0.00000  -0.03314  -0.03314   2.06963
    R5        2.89863  -0.00143   0.00000  -0.00485  -0.00485   2.89378
    R6        2.10316  -0.01234   0.00000  -0.03767  -0.03767   2.06549
    R7        2.10403  -0.01290   0.00000  -0.03943  -0.03943   2.06460
    R8        2.82665   0.01355   0.00000   0.04069   0.04069   2.86734
    R9        2.09786  -0.01169   0.00000  -0.03536  -0.03536   2.06249
   R10        2.10035  -0.01181   0.00000  -0.03588  -0.03588   2.06447
   R11        2.10030  -0.01242   0.00000  -0.03773  -0.03773   2.06258
   R12        2.09944  -0.01270   0.00000  -0.03851  -0.03851   2.06093
   R13        2.09955  -0.01303   0.00000  -0.03951  -0.03951   2.06004
   R14        2.09611  -0.01172   0.00000  -0.03534  -0.03534   2.06077
   R15        2.09944  -0.01307   0.00000  -0.03964  -0.03964   2.05980
   R16        2.09980  -0.01227   0.00000  -0.03722  -0.03722   2.06257
   R17        2.30602  -0.07238   0.00000  -0.07560  -0.07560   2.23042
    A1        1.92033   0.00025   0.00000   0.00582   0.00585   1.92618
    A2        1.95354  -0.00093   0.00000  -0.00575  -0.00591   1.94763
    A3        1.90210  -0.00079   0.00000  -0.02140  -0.02148   1.88063
    A4        1.91625   0.00127   0.00000   0.01528   0.01527   1.93152
    A5        1.87777   0.00037   0.00000   0.01163   0.01167   1.88945
    A6        1.89201  -0.00014   0.00000  -0.00538  -0.00567   1.88634
    A7        1.96780   0.00324   0.00000   0.01884   0.01863   1.98643
    A8        1.91746  -0.00171   0.00000  -0.01726  -0.01717   1.90029
    A9        1.89703  -0.00018   0.00000   0.01113   0.01073   1.90776
   A10        1.91255  -0.00085   0.00000  -0.00891  -0.00877   1.90378
   A11        1.88776  -0.00028   0.00000   0.01205   0.01167   1.89944
   A12        1.87886  -0.00033   0.00000  -0.01683  -0.01675   1.86211
   A13        1.92241   0.01358   0.00000   0.06456   0.06407   1.98649
   A14        1.92495   0.00122   0.00000   0.02403   0.02411   1.94907
   A15        1.91905   0.00004   0.00000   0.01359   0.01389   1.93294
   A16        1.89156  -0.00724   0.00000  -0.03969  -0.04108   1.85047
   A17        1.90093  -0.00688   0.00000  -0.04055  -0.04150   1.85943
   A18        1.90448  -0.00103   0.00000  -0.02422  -0.02520   1.87928
   A19        1.93092   0.00006   0.00000  -0.00425  -0.00421   1.92671
   A20        1.92464   0.00256   0.00000   0.01833   0.01819   1.94283
   A21        1.92516   0.00189   0.00000   0.01324   0.01309   1.93825
   A22        1.89980  -0.00181   0.00000  -0.01449  -0.01445   1.88535
   A23        1.89997  -0.00168   0.00000  -0.01554  -0.01551   1.88447
   A24        1.88238  -0.00115   0.00000   0.00211   0.00180   1.88418
   A25        1.93234   0.00368   0.00000   0.02534   0.02520   1.95754
   A26        1.92394   0.00119   0.00000   0.00894   0.00876   1.93270
   A27        1.93247  -0.00052   0.00000  -0.00793  -0.00788   1.92458
   A28        1.87179  -0.00132   0.00000   0.00141   0.00107   1.87286
   A29        1.90490  -0.00208   0.00000  -0.01587  -0.01580   1.88910
   A30        1.89703  -0.00108   0.00000  -0.01245  -0.01243   1.88460
   A31        2.10122   0.03011   0.00000   0.11816   0.11816   2.21938
    D1        2.96042   0.00056   0.00000   0.06041   0.06050   3.02092
    D2       -1.18409   0.00048   0.00000   0.04949   0.04947  -1.13462
    D3        0.86759  -0.00101   0.00000   0.02584   0.02577   0.89337
    D4       -1.18714   0.00172   0.00000   0.08011   0.08014  -1.10700
    D5        0.95154   0.00164   0.00000   0.06919   0.06911   1.02065
    D6        3.00323   0.00016   0.00000   0.04554   0.04541   3.04863
    D7        0.90542   0.00044   0.00000   0.05562   0.05577   0.96118
    D8        3.04410   0.00035   0.00000   0.04469   0.04474   3.08883
    D9       -1.18741  -0.00113   0.00000   0.02105   0.02104  -1.16637
   D10        1.07011   0.00025   0.00000   0.00997   0.01000   1.08011
   D11       -1.03255   0.00080   0.00000   0.01886   0.01899  -1.01356
   D12       -3.10986  -0.00058   0.00000  -0.00358  -0.00364  -3.11349
   D13       -1.08741   0.00039   0.00000   0.00294   0.00294  -1.08447
   D14        3.09311   0.00094   0.00000   0.01184   0.01193   3.10504
   D15        1.01580  -0.00043   0.00000  -0.01060  -0.01069   1.00511
   D16        3.14012  -0.00034   0.00000  -0.00567  -0.00570   3.13442
   D17        1.03747   0.00021   0.00000   0.00323   0.00329   1.04075
   D18       -1.03984  -0.00117   0.00000  -0.01921  -0.01934  -1.05918
   D19        1.14746  -0.00153   0.00000  -0.04602  -0.04611   1.10134
   D20       -3.06748  -0.00012   0.00000  -0.02280  -0.02269  -3.09017
   D21       -0.96773  -0.00103   0.00000  -0.03767  -0.03764  -1.00537
   D22       -2.99778  -0.00095   0.00000  -0.03172  -0.03183  -3.02960
   D23       -0.92952   0.00046   0.00000  -0.00851  -0.00841  -0.93793
   D24        1.17022  -0.00044   0.00000  -0.02337  -0.02336   1.14686
   D25       -0.95100   0.00012   0.00000  -0.01230  -0.01242  -0.96342
   D26        1.11726   0.00153   0.00000   0.01092   0.01099   1.12825
   D27       -3.06619   0.00062   0.00000  -0.00395  -0.00395  -3.07014
   D28       -3.03336  -0.00073   0.00000  -0.02782  -0.02778  -3.06114
   D29        1.16269  -0.00113   0.00000  -0.03470  -0.03517   1.12752
   D30       -0.93834  -0.00065   0.00000  -0.02865  -0.02846  -0.96680
   D31        1.10839  -0.00015   0.00000  -0.01218  -0.01207   1.09633
   D32       -0.97874  -0.00055   0.00000  -0.01906  -0.01946  -0.99820
   D33       -3.07978  -0.00007   0.00000  -0.01301  -0.01275  -3.09252
   D34       -0.93521   0.00087   0.00000   0.00601   0.00622  -0.92899
   D35       -3.02234   0.00047   0.00000  -0.00087  -0.00118  -3.02352
   D36        1.15981   0.00095   0.00000   0.00518   0.00554   1.16535
   D37        3.13998  -0.00050   0.00000  -0.01398  -0.01394   3.12604
   D38       -1.03591   0.00469   0.00000   0.02970   0.02808  -1.00783
   D39        1.03404  -0.00458   0.00000  -0.04493  -0.04335   0.99069
         Item               Value     Threshold  Converged?
 Maximum Force            0.072377     0.000002     NO 
 RMS     Force            0.009898     0.000001     NO 
 Maximum Displacement     0.154029     0.000006     NO 
 RMS     Displacement     0.044342     0.000004     NO 
 Predicted change in Energy=-9.183539D-03
 GradGradGradGradGradGradGradGradGradGradGradGradGradGradGradGradGradGrad

                          Input orientation:                          
 ---------------------------------------------------------------------
 Center     Atomic      Atomic             Coordinates (Angstroms)
 Number     Number       Type             X           Y           Z
 ---------------------------------------------------------------------
      1          6           0       -0.730211    0.300744    0.272034
      2          6           0        0.541135    0.315185   -0.575552
      3          6           0        1.795099   -0.128654    0.183089
      4          6           0       -1.893709    0.915439   -0.504301
      5          6           0       -1.079315   -1.112003    0.738010
      6          6           0        3.074146   -0.009310   -0.624435
      7          1           0       -0.546884    0.915774    1.159501
      8          1           0        0.397050   -0.337491   -1.440381
      9          1           0        0.703400    1.322506   -0.966215
     10          1           0        1.730441   -1.173335    0.492393
     11          1           0        1.937533    0.475278    1.082237
     12          1           0       -2.101921    0.331817   -1.402819
     13          1           0       -1.669794    1.937952   -0.810466
     14          1           0       -2.800360    0.936664    0.100602
     15          1           0       -0.311783   -1.531807    1.389068
     16          1           0       -2.015114   -1.113822    1.296918
     17          1           0       -1.198591   -1.774828   -0.120905
     18          8           0        4.168880   -0.270210   -0.268678
 ---------------------------------------------------------------------
                    Distance matrix (angstroms):
                    1          2          3          4          5
     1  C    0.000000
     2  C    1.528048   0.000000
     3  C    2.563101   1.531324   0.000000
     4  C    1.527833   2.508754   3.894860   0.000000
     5  C    1.528025   2.527483   3.088231   2.513383   0.000000
     6  C    3.920833   2.554180   1.517333   5.054620   4.508152
     7  H    1.095203   2.134222   2.743920   2.140602   2.138461
     8  H    2.147191   1.093013   2.152629   2.773744   2.743157
     9  H    2.152324   1.092540   2.149086   2.669090   3.465442
    10  H    2.876851   2.184180   1.091425   4.300097   2.821138
    11  H    2.793520   2.173436   1.092469   4.170043   3.426270
    12  H    2.165107   2.769547   4.232482   1.091468   2.777317
    13  H    2.176022   2.752593   4.154936   1.090600   3.471119
    14  H    2.172395   3.465402   4.718045   1.090126   2.750513
    15  H    2.186571   2.828176   2.803957   3.475105   1.090513
    16  H    2.168492   3.476005   4.090097   2.716069   1.090000
    17  H    2.163742   2.757082   3.429939   2.804945   1.091467
    18  O    4.961799   3.687464   2.420530   6.181930   5.409768
                    6          7          8          9         10
     6  C    0.000000
     7  H    4.141265   0.000000
     8  H    2.817857   3.036622   0.000000
     9  H    2.740618   2.499462   1.753361   0.000000
    10  H    2.099477   3.161585   2.492425   3.067828   0.000000
    11  H    2.106999   2.524349   3.065500   2.537132   1.763158
    12  H    5.245372   3.053626   2.587323   3.006978   4.532583
    13  H    5.131414   2.487277   3.137878   2.456640   4.789482
    14  H    5.994195   2.489952   3.771145   3.682840   5.013357
    15  H    4.223353   2.469540   3.151923   3.837324   2.259027
    16  H    5.550866   2.508753   3.730151   4.295088   3.831446
    17  H    4.650471   3.050164   2.520520   3.731701   3.052402
    18  O    1.180285   5.068006   3.950205   3.877222   2.709400
                   11         12         13         14         15
    11  H    0.000000
    12  H    4.744816   0.000000
    13  H    4.328343   1.765584   0.000000
    14  H    4.860465   1.764634   1.763746   0.000000
    15  H    3.030174   3.804251   4.326820   3.734503   0.000000
    16  H    4.265530   3.063656   3.724733   2.500456   1.756286
    17  H    4.042994   2.626263   3.805556   3.157043   1.767911
    18  O    2.712864   6.400911   6.265750   7.082600   4.941263
                   16         17         18
    16  H    0.000000
    17  H    1.764613   0.000000
    18  O    6.434636   5.576330   0.000000
 Stoichiometry    C6H11O(2)
 Framework group  C1[X(C6H11O)]
 Deg. of freedom    48
 Full point group                 C1      NOp   1
 Largest Abelian subgroup         C1      NOp   1
 Largest concise Abelian subgroup C1      NOp   1
                         Standard orientation:                         
 ---------------------------------------------------------------------
 Center     Atomic      Atomic             Coordinates (Angstroms)
 Number     Number       Type             X           Y           Z
 ---------------------------------------------------------------------
      1          6           0       -1.453216   -0.009047   -0.336647
      2          6           0       -0.135440   -0.554651    0.211729
      3          6           0        1.096298    0.235726   -0.238915
      4          6           0       -2.605550   -0.947777    0.017168
      5          6           0       -1.732539    1.403918    0.173616
      6          6           0        2.412009   -0.369364    0.213931
      7          1           0       -1.368500    0.034160   -1.427713
      8          1           0       -0.179904   -0.554867    1.303837
      9          1           0       -0.018907   -1.595932   -0.097784
     10          1           0        1.084605    1.255920    0.148739
     11          1           0        1.140334    0.295538   -1.328856
     12          1           0       -2.716518   -1.022252    1.100424
     13          1           0       -2.433959   -1.951160   -0.374221
     14          1           0       -3.547514   -0.583521   -0.393195
     15          1           0       -0.980061    2.118523   -0.161548
     16          1           0       -2.699062    1.759239   -0.183707
     17          1           0       -1.751970    1.414932    1.264855
     18          8           0        3.497760    0.034574   -0.012016
 ---------------------------------------------------------------------
 Rotational constants (GHZ):      7.0060351      1.0631454      0.9663536
 Standard basis: 6-311+G(2df,2p) (5D, 7F)
 There are   337 symmetry adapted basis functions of A   symmetry.
 Integral buffers will be    131072 words long.
 Raffenetti 2 integral format.
 Two-electron integral symmetry is turned on.
   337 basis functions,   485 primitive gaussians,   372 cartesian basis functions
    28 alpha electrons       27 beta electrons
       nuclear repulsion energy       290.3382701336 Hartrees.
 NAtoms=   18 NActive=   18 NUniq=   18 SFac= 1.00D+00 NAtFMM=   50 NAOKFM=F Big=F
 One-electron integrals computed using PRISM.
 NBasis=   337 RedAO= T  NBF=   337
 NBsUse=   337 1.00D-06 NBFU=   337
 Initial guess read from the read-write file.
 B after Tr=     0.000000    0.000000    0.000000
         Rot=    1.000000    0.000000    0.000000    0.000000 Ang=   0.00 deg.
 Initial guess orbital symmetries:
 Alpha Orbitals:
       Occupied  (A) (A) (A) (A) (A) (A) (A) (A) (A) (A) (A) (A)
                 (A) (A) (A) (A) (A) (A) (A) (A) (A) (A) (A) (A)
                 (A) (A) (A) (A)
       Virtual   (A) (A) (A) (A) (A) (A) (A) (A) (A) (A) (A) (A)
                 (A) (A) (A) (A) (A) (A) (A) (A) (A) (A) (A) (A)
                 (A) (A) (A) (A) (A) (A) (A) (A) (A) (A) (A) (A)
                 (A) (A) (A) (A) (A) (A) (A) (A) (A) (A) (A) (A)
                 (A) (A) (A) (A) (A) (A) (A) (A) (A) (A) (A) (A)
                 (A) (A) (A) (A) (A) (A) (A) (A) (A) (A) (A) (A)
                 (A) (A) (A) (A) (A) (A) (A) (A) (A) (A) (A) (A)
                 (A) (A) (A) (A) (A) (A) (A) (A) (A) (A) (A) (A)
                 (A) (A) (A) (A) (A) (A) (A) (A) (A) (A) (A) (A)
                 (A) (A) (A) (A) (A) (A) (A) (A) (A) (A) (A) (A)
                 (A) (A) (A) (A) (A) (A) (A) (A) (A) (A) (A) (A)
                 (A) (A) (A) (A) (A) (A) (A) (A) (A) (A) (A) (A)
                 (A) (A) (A) (A) (A) (A) (A) (A) (A) (A) (A) (A)
                 (A) (A) (A) (A) (A) (A) (A) (A) (A) (A) (A) (A)
                 (A) (A) (A) (A) (A) (A) (A) (A) (A) (A) (A) (A)
                 (A) (A) (A) (A) (A) (A) (A) (A) (A) (A) (A) (A)
                 (A) (A) (A) (A) (A) (A) (A) (A) (A) (A) (A) (A)
                 (A) (A) (A) (A) (A) (A) (A) (A) (A) (A) (A) (A)
                 (A) (A) (A) (A) (A) (A) (A) (A) (A) (A) (A) (A)
                 (A) (A) (A) (A) (A) (A) (A) (A) (A) (A) (A) (A)
[...]
 0.0183373,-0.0224962,0.0151135,0.0445727,0.0461132,0.0162878,0.0279604
 ,0.0549822,-0.0114086,0.0024033,0.011722,-0.0064925,-0.0127123,0.04075
 92,0.037116,0.0661332,0.0467905,1.2034536,0.250557,-0.0549386,0.363031
 2,-0.0677423,0.0578199,-0.1317371,0.0389739,0.1447866,-0.0081849,-0.02
 88343,-0.0432564,-0.026191,-0.0533871,-0.0645682,-0.0212787,-0.0660605
 ,-0.0928871,0.0148229,-0.0103092,-0.035431,-0.0013046,0.0009401,-0.088
 1803,-0.0321609,-0.0532783,-0.0561745,0.0017961,-0.0327045,0.0220417,-
 0.0211041,-0.1002489,0.0698186,-0.001012,0.0533377,0.0257693,0.0668138
 ,0.0080811,0.0004188,0.0360808,-0.0284035,0.0210722,0.016196,-0.009213
 9,0.0534245,-0.0430028,-0.0127812,0.0029274,0.0040282,0.0397791,-0.075
 094,0.0103318,-0.0341517,-0.0727174,0.0440885,0.015191,-0.0058335,-0.0
 244404,-0.0145603,-0.1084836,-0.05345,-0.0594803,-0.0546759,0.0391248,
 -0.0598119,0.0099864,-0.0132702,-0.1080789,0.0742089,-0.0140751,0.0645
 572,0.0323661,-0.1151386,0.0309415,0.05394,0.0093594,0.0653474,0.01111
 8,0.0964967,-0.0052076,-0.0050527,-0.0249868,0.0653812,-0.1014288,0.04
 9125,-0.0082162,0.0424523,-0.0954855,0.0565004,-0.0027959,-0.1062812,-
 0.0305547,0.0977395,0.0112383,0.0467974,-0.0074952,0.0790839,0.0109567
 ,0.0265354,0.0670593,-0.0047351,0.0047588,-0.0153117,-0.0191402,-0.039
 6389,-0.0183824,-0.1099027,-0.0670116,-1.2344801,-0.1650137,0.0287007,
 -0.3359928,-0.1914458,-0.0291899,-0.2209096,-0.0714212,-0.2545066\Pola
 r=91.3587208,0.2433975,66.9681143,-0.9756021,-2.2829986,68.7674632\PG=
 C01 [X(C6H11O1)]\NImag=0\\0.48611718,0.01340097,0.52424334,0.01823951,
 0.05007046,0.55897131,-0.14806092,0.00062846,0.05060554,0.46963097,-0.
 00057264,-0.07949745,-0.00281514,0.02446125,0.59134976,0.05326055,-0.0
 0069484,-0.11628107,0.01015061,0.01653437,0.54085486,-0.02698130,0.010
 04464,-0.01402882,-0.13976579,0.03280760,-0.04651241,0.42023517,0.0029
 5268,-0.00107154,-0.00049909,0.03580215,-0.09290518,0.01940137,0.01824
 206,0.53523966,0.01198008,-0.00782212,0.01155199,-0.05284857,0.0209136
 8,-0.11470488,0.04556736,0.03505670,0.49881279,-0.14301345,0.03416059,
 -0.04769288,-0.03210119,0.01313896,-0.01407312,-0.00372880,-0.00002653
 ,0.00344347,0.52404255,0.03228249,-0.09515447,0.02212219,0.00467225,-0
 .00135743,-0.00013899,-0.00096233,0.00023328,0.00001660,0.02992325,0.5
 6302427,-0.04900451,0.02389365,-0.11341106,0.01346355,-0.00728286,0.01
 011710,0.00365330,-0.00032498,-0.00309677,-0.04476631,0.01540842,0.542
 03056,-0.08555466,-0.02721612,0.00916458,-0.01077853,-0.02934383,0.011
 20153,-0.00019761,-0.00113141,0.00102808,0.00574099,0.02517709,-0.0089
 1135,0.57303999,-0.02504702,-0.17751212,0.03139102,-0.00515909,-0.0012
 5945,0.00251294,-0.00040691,0.00049982,-0.00039215,-0.00009244,-0.0193
 5836,0.00910982,-0.02803793,0.48561002,0.00641931,0.02843916,-0.089163
 12,0.00793603,0.01841977,-0.00797157,0.00101023,-0.00042347,-0.0006783
 2,0.00257552,0.02194691,-0.00888318,0.00711930,0.02084735,0.56631122,-
 0.00156310,0.00145467,-0.00166399,-0.03602461,0.00026320,0.00899094,-0
 .09504805,0.00223037,0.04004541,-0.00011928,0.00018664,0.00033686,0.00
 093195,0.00054154,-0.00104819,0.97133341,0.00055644,-0.00114556,0.0030
 7460,0.00712700,-0.00056158,-0.01121629,-0.00163783,-0.03244054,-0.001
 67559,0.00078230,0.00036735,-0.00088917,0.00023361,-0.00010450,0.00006
 404,0.24640522,0.11058781,-0.00197814,0.00151685,-0.00329796,-0.008456
 65,-0.00365269,0.01348317,0.02336666,-0.01037997,-0.10480013,-0.001137
 85,0.00019591,0.00122951,-0.00011024,0.00022577,0.00019576,0.21013652,
 0.09335425,0.25477102,-0.05398948,-0.02408551,-0.03221191,0.00173442,0
 .01706053,0.02406165,0.00176585,0.00039051,0.00110826,-0.00628028,-0.0
 1398405,-0.02229513,-0.00159699,-0.00513196,-0.00640283,0.00003587,-0.
 00012443,-0.00008979,0.06365967,-0.02383467,-0.13167014,-0.11707591,0.
 00029959,-0.00047338,-0.00047972,-0.00028587,-0.00018503,-0.00026053,0
 .00315018,0.00778493,0.01210640,-0.00530174,-0.02147304,-0.02393398,0.
 00018800,0.00003215,0.00033414,0.02521186,0.14682779,-0.03238695,-0.11
 715148,-0.20827272,-0.00112142,-0.01114697,-0.01738380,-0.00101846,0.0
 0056860,0.00050324,-0.00433041,-0.00898681,-0.01496515,0.00183722,0.00
 750156,0.00915345,0.00009250,-0.00010749,0.00035843,0.03482657,0.12493
 110,0.22934989,0.00174377,0.01589864,0.02344231,-0.05168442,-0.0214037
 1,-0.03087728,-0.00635050,-0.01476156,-0.02385593,0.00181407,0.0001435
 8,0.00108575,0.00117586,0.00136474,-0.00034156,0.00071796,-0.00133193,
 -0.00098741,-0.00433380,0.00002562,0.00316374,0.06105301,0.00022786,-0
 .00126516,-0.00045070,-0.02300719,-0.13121579,-0.11845232,0.00286618,0
 .00715020,0.01200985,-0.00021484,0.00002004,-0.00013753,0.00035534,0.0
 0104878,0.00122088,-0.00001967,-0.00024611,-0.00008462,0.00032683,0.00
 102885,0.00054758,0.02149449,0.13894388,-0.00109766,-0.01118313,-0.017
 57408,-0.03247813,-0.11749822,-0.21726596,-0.00387671,-0.00816352,-0.0
 1440783,-0.00108440,0.00043387,0.00074076,-0.00103816,-0.00070406,0.00
 046915,0.00074816,0.00010755,0.00026524,0.00308802,0.00041260,-0.00113
 418,0.03502683,0.12879348,0.23906666,-0.00704685,-0.02619619,0.0072228
 5,-0.05587625,-0.04798810,0.01415705,0.00213471,0.02861943,-0.00843540
 ,0.00105170,-0.00161805,0.00043983,-0.00495100,0.00147460,0.00306272,0
 .00175431,-0.00001316,-0.00041898,0.00094073,0.00046760,-0.00022178,-0
 .00163244,-0.00443737,0.00175609,0.06790542,0.00042318,-0.00002907,-0.
 00044688,-0.04768571,-0.27429625,0.07141701,0.00022382,-0.00992439,0.0
 0253614,0.00060688,0.00052411,-0.00061964,0.00003357,0.00125702,0.0001
 9513,-0.00124342,0.00005849,0.00061500,-0.00034701,0.00048772,0.000362
 91,-0.00356596,-0.01670649,0.00551195,0.04868769,0.29632892,0.00533615
 ,0.01879703,-0.00690357,0.01359998,0.07085449,-0.07173945,0.00163362,0
 .01535977,-0.00465191,-0.00128145,-0.00000511,0.00046919,0.00307099,-0
 .00149761,-0.00133491,0.00104360,0.00073580,0.00014824,-0.00070191,0.0
 0011057,0.00017962,-0.00490397,-0.02489784,0.00857524,-0.01541528,-0.0
 8070909,0.07579019,0.00149094,0.00014924,0.00066732,0.00448062,0.02857
 293,-0.00778493,-0.04295705,-0.04011154,0.00869825,0.00002026,-0.00015
 228,-0.00019120,-0.00030079,-0.00003921,0.00035379,-0.00833129,-0.0224
 5543,0.00507707,-0.00010050,-0.00005684,0.00001526,0.00131082,-0.00071
 267,0.00051834,-0.00475258,0.00170792,-0.00265166,0.05400092,-0.000629
 50,-0.00034761,0.00028089,-0.00027558,-0.01082201,0.00313285,-0.030605
 21,-0.29781285,0.04869365,0.00007751,0.00001837,0.00000244,-0.00018234
 ,0.00005484,0.00076226,-0.00530270,-0.00224589,0.00094250,0.00003422,0
 .00000188,0.00004445,0.00007009,0.00088908,-0.00016244,0.00183976,0.00
 079983,0.00116647,0.03566492,0.32236320,0.00029506,-0.00062918,0.00025
 896,0.00019069,0.01686235,-0.00514449,0.00784907,0.05498816,-0.0565793
 0,0.00017440,0.00013841,-0.00010705,0.00040505,-0.00004833,0.00035239,
 0.00384218,0.01258286,-0.00508423,0.00002406,-0.00004782,-0.00001978,0
 .00065536,0.00012274,0.00033728,-0.00307794,0.00094618,-0.00072526,-0.
 00732038,-0.05897787,0.05979339,0.00153309,-0.00097651,-0.00149145,-0.
 00444595,-0.01439630,-0.02179820,-0.05128184,-0.01794992,-0.03629027,-
 0.00010938,0.00015483,0.00014519,-0.00008481,0.00005056,0.00007127,-0.
 00039623,0.01047858,0.02863890,-0.00032721,0.00053165,0.00066970,-0.00
 408230,0.00253433,-0.00238583,0.00090109,0.00030904,0.00069454,-0.0007
 4915,-0.00186220,-0.00439993,0.05736316,-0.00047302,0.00056581,0.00015
 295,0.00204936,0.00709527,0.01065102,-0.01956033,-0.11386583,-0.108820
 67,-0.00005589,0.00000092,0.00020164,-0.00016659,0.00006532,-0.0001836
 2,-0.00245555,0.00343008,0.00131944,-0.00020909,-0.00003799,-0.0002118
 6,0.00247942,0.00003510,0.00129967,-0.00080053,0.00042351,-0.00004244,
 -0.00386756,-0.01333244,-0.02626866,0.02072835,0.11667053,0.00079556,-
 0.00000465,0.00055156,-0.00243265,-0.00752830,-0.01221937,-0.03874419,
 -0.11158732,-0.23298777,0.00004884,0.00020512,0.00032511,-0.00018802,-
 0.00006676,0.00015148,0.00185370,-0.00819827,-0.02324676,-0.00054203,0
 .00007970,0.00049603,-0.00173713,0.00144694,-0.00060136,0.00042508,0.0
 0013699,0.00006126,0.00071237,0.00380361,0.00732046,0.03986972,0.12018
 323,0.25457924,-0.00661811,-0.01477704,-0.02136314,0.00146622,-0.00123
 654,-0.00131511,-0.00001841,0.00020288,0.00008842,-0.05623098,-0.02870
 107,-0.03879291,0.00061926,-0.00107521,0.00075958,-0.00005017,-0.00000
 537,0.00012384,-0.00340349,0.00232246,-0.00242767,-0.00044107,0.000540
 76,0.00049766,-0.00004674,-0.00002408,0.00005424,0.00000001,0.00000129
 ,-0.00000977,0.00013859,0.00001448,0.00021152,0.06066524,0.00265291,0.
 00705237,0.01125173,-0.00054172,0.00032998,0.00045581,-0.00005372,0.00
 011992,0.00029758,-0.02897270,-0.13354443,-0.11970300,0.00003657,0.001
 64826,0.00063501,-0.00001975,-0.00001679,-0.00011626,0.00221212,-0.000
 20032,0.00189350,-0.00028636,0.00005770,-0.00018284,0.00002157,-0.0000
 6837,-0.00019421,0.00001499,-0.00000299,0.00000134,0.00007073,-0.00007
 303,-0.00004869,0.02966168,0.14169096,-0.00427831,-0.01027010,-0.01651
 530,0.00111638,0.00000043,0.00049020,0.00006882,0.00027768,0.00030632,
 -0.03888373,-0.11943054,-0.21266338,0.00047663,-0.00099277,0.00059579,
 0.00002368,0.00006583,0.00001970,-0.00280373,0.00209149,-0.00065404,-0
 .00042118,0.00001527,0.00061817,-0.00007687,0.00012271,-0.00002877,-0.
 00004089,0.00001164,-0.00002063,0.00021604,-0.00006751,0.00005924,0.04
 663143,0.13065660,0.23210214,0.00578581,0.02398040,-0.00638678,0.00140
 426,0.00112236,-0.00064564,0.00024200,-0.00024218,-0.00007247,-0.06316
 537,-0.05985582,0.02058465,-0.00395236,0.00135073,-0.00234863,-0.00010
 625,-0.00009009,0.00006985,0.00088554,-0.00068035,0.00046135,-0.000056
 80,-0.00004804,0.00015483,-0.00055083,-0.00036803,0.00013773,0.0001269
 8,-0.00001147,-0.00000261,0.00002765,0.00001726,0.00000085,-0.00251289
 ,-0.00466194,0.00212728,0.06695294,-0.00367507,-0.01146071,0.00265824,
 -0.00112945,0.00001967,-0.00015971,0.00021397,0.00041929,-0.00009821,-
 0.05859929,-0.27138455,0.07573890,0.00315415,0.00027048,0.00202199,-0.
 00000024,0.00003822,-0.00000180,0.00019359,0.00058825,0.00016736,0.000
 05764,-0.00012118,0.00007021,0.00068518,0.00041758,-0.00030819,-0.0002
 1974,0.00011452,-0.00006292,-0.00002030,-0.00003808,-0.00000990,-0.004
 12263,-0.01593743,0.00630322,0.06330187,0.29401345,0.00531155,0.016475
 65,-0.00634801,0.00092371,-0.00037052,0.00027714,0.00002260,-0.0002206
 2,-0.00005890,0.02012996,0.07533735,-0.07294808,-0.00326940,0.00078903
 ,-0.00180055,0.00004118,0.00000485,0.00001096,0.00065612,-0.00027041,0
 .00008992,-0.00011357,-0.00013270,-0.00001523,-0.00015209,-0.00020807,
 0.00050854,0.00011160,-0.00006475,0.00000205,-0.00002492,0.00003528,-0
 .00004343,-0.00653314,-0.02439364,0.00951244,-0.01999045,-0.08519464,0
 .07627018,-0.02053695,0.00087162,0.01462321,-0.00278313,0.00210544,-0.
 00437228,-0.00092064,0.00006205,0.00144282,-0.22795804,0.01211770,0.12
 276402,0.00068919,-0.00107362,0.00093135,0.00011851,0.00040773,-0.0004
 8406,0.00061700,-0.00064248,-0.00003964,0.00021803,0.00007881,-0.00000
 043,0.00033044,0.00003160,-0.00022396,-0.00003536,0.00008598,0.0000044
 6,-0.00004649,-0.00004732,-0.00003737,0.00615206,0.00002662,-0.0041596
 7,-0.00566761,0.00057516,0.00322933,0.24945192,0.00988407,-0.00237771,
 -0.00782657,0.00136220,-0.00111780,0.00182651,0.00068796,0.00054308,-0
 .00041670,0.01154870,-0.04797364,-0.00795000,0.00071695,0.00066415,-0.
 00111311,0.00008936,-0.00009609,0.00020170,-0.00060197,0.00030529,0.00
 011299,-0.00023718,0.00006400,0.00034964,0.00025055,0.00036205,-0.0001
 8581,-0.00012263,0.00003228,-0.00009536,0.00006639,-0.00001179,0.00003
 538,0.01643004,-0.00131481,-0.00986508,-0.02524170,0.00323457,0.016915
 91,-0.01470423,0.04790557,-0.01611136,0.00157596,0.01032678,-0.0022103
 0,0.00161124,-0.00171674,-0.00090156,0.00020821,0.00088690,0.12399482,
 -0.00849274,-0.12997217,-0.00042512,-0.00074348,0.00072322,-0.00022133
 ,0.00014128,-0.00021774,0.00065434,-0.00055331,0.00086705,-0.00019522,
 0.00030713,0.00022280,-0.00010373,-0.00006603,-0.00019500,0.00008454,-
 0.00003063,0.00004995,0.00008323,-0.00006002,0.00001956,0.02148467,0.0
 0001033,-0.01400857,0.00675425,-0.00125530,-0.00583885,-0.13301007,0.0
 0753887,0.13879793,0.00679068,-0.00253856,0.00652147,0.00056713,0.0007
 8984,-0.00017618,-0.00175632,-0.00001131,0.00097184,-0.00003034,-0.000
 83502,0.00066104,-0.17425548,0.06791077,-0.11493223,0.00011274,-0.0001
 2239,-0.00002145,0.00047032,0.00071007,-0.00017950,-0.00006521,-0.0000
 4001,0.00007648,0.00011792,-0.00000108,-0.00021051,-0.00205192,-0.0008
 0067,0.00112514,0.00012085,0.00006991,-0.00029761,-0.00007162,-0.00010
 394,0.00013577,0.00043845,-0.00031739,0.00004667,0.00031169,-0.0002761
 4,-0.00005891,0.19009091,0.02302642,-0.00974722,0.01817770,0.00086832,
 0.00050184,-0.00025089,-0.00010580,0.00035128,-0.00002986,-0.00319434,
 -0.00580850,0.00149589,0.06730444,-0.08323710,0.06063260,-0.00040888,0
 .00008620,-0.00019655,0.00037139,0.00107649,-0.00074948,-0.00009584,-0
 .00003453,-0.00001477,0.00002468,-0.00003907,-0.00013870,-0.00018728,0
 .00040646,0.00008494,-0.00014056,-0.00016229,-0.00010637,-0.00005672,0
 .00013133,0.00018861,0.00142841,-0.00078227,0.00133297,-0.00022352,0.0
 0012726,-0.00023305,-0.07449913,0.09026729,-0.00608013,0.00150973,-0.0
 0631061,-0.00094760,0.00017293,-0.00033622,-0.00019978,0.00032061,0.00
 052636,0.00146457,0.00198975,0.00011768,-0.11415312,0.06125127,-0.1516
 7319,0.00062364,-0.00025584,-0.00007460,0.00040042,-0.00000344,0.00062
 537,0.00000980,0.00007574,0.00002340,0.00014554,0.00000218,0.00010482,
 0.00091201,-0.00027893,-0.00015204,0.00003228,-0.00003707,-0.00008699,
 0.00029875,-0.00012781,0.00041837,-0.00064914,0.00038940,0.00007656,-0
 .00026673,0.00000088,0.00008740,0.12516705,-0.06863412,0.16089344,-0.0
 0731338,0.00064586,0.00339511,0.00068294,-0.00162507,-0.00066141,0.000
 02538,-0.00001004,0.00044903,0.00082895,0.00102728,-0.00068890,-0.2508
 9703,0.00646656,0.11291654,0.00053262,0.00011426,-0.00010823,-0.000115
 73,-0.00024235,-0.00022946,0.00005845,0.00010351,0.00002524,-0.0003187
 8,0.00001892,0.00037326,0.00021138,-0.00024549,-0.00003601,-0.00000326
 ,-0.00000034,-0.00002064,-0.00002757,-0.00018054,0.00001793,0.00016637
 ,-0.00010511,-0.00028301,0.00056795,-0.00007246,0.00019615,-0.01889375
 ,0.00057113,0.01107994,0.27119868,-0.02739511,0.00080456,0.01651901,-0
 .00042792,-0.00633530,0.00137341,0.00073575,-0.00028790,0.00011770,-0.
 00123029,0.00159336,-0.00025329,0.00769887,-0.04554235,-0.00518368,-0.
 00009557,0.00025657,-0.00005958,0.00016880,0.00097429,-0.00077589,0.00
 007194,0.00001201,0.00019030,-0.00165395,0.00001910,0.00114935,-0.0001
 3740,0.00025611,-0.00012163,-0.00003014,0.00003004,-0.00003335,0.00020
 898,-0.00003603,0.00001465,-0.00001511,0.00017691,-0.00038021,0.000574
 55,-0.00036289,0.00006463,0.00981804,-0.00113155,-0.00652273,-0.006533
 44,0.05058636,0.00800848,-0.00072834,-0.00612255,-0.00010217,0.0028761
 9,0.00001481,-0.00055587,0.00005842,0.00019098,0.00068097,-0.00072361,
 0.00014263,0.11211720,-0.00445698,-0.10895180,0.00011153,-0.00010046,0
 .00003329,-0.00033034,0.00019792,0.00032981,-0.00030558,-0.00002679,0.
 00045190,0.00088496,0.00019388,-0.00011386,-0.00001321,-0.00029648,-0.
 00011621,0.00010977,0.00006019,-0.00000735,0.00008034,-0.00003097,-0.0
 0016146,-0.00028082,-0.00014707,0.00017540,-0.00036238,0.00054979,-0.0
 0002271,-0.01860528,0.00014940,0.01084216,-0.12398411,0.00227954,0.115
 23168,-0.00241427,-0.00644406,-0.00662378,0.00053573,-0.00041401,-0.00
 137846,0.00005963,-0.00002123,-0.00009160,0.00005143,0.00072041,0.0005
 6340,-0.04927207,-0.01326029,-0.01852923,-0.00019938,0.00006975,0.0001
 1271,0.00014265,-0.00181303,0.00077588,0.00011758,0.00001696,0.0003216
 5,0.00008720,0.00021142,0.00008844,-0.00011229,0.00009714,-0.00019562,
 0.00018027,0.00011892,0.00003945,0.00033381,0.00015585,-0.00006606,-0.
 00012417,-0.00005297,-0.00005231,0.00000246,0.00004313,0.00012478,-0.0
 0189801,-0.01495677,-0.01740696,0.00373261,0.01824047,0.02255188,0.048
 62803,-0.00385980,-0.02196839,-0.02487985,0.00115096,0.00135571,-0.001
 25893,-0.00020110,0.00008932,0.00010313,-0.00057503,0.00116236,-0.0014
 3214,-0.01309575,-0.14270378,-0.12450907,-0.00006659,0.00003421,-0.000
 02314,-0.00140545,-0.00510679,0.00279658,-0.00048576,0.00029794,0.0007
 6642,0.00034879,0.00037263,0.00025824,-0.00023625,-0.00016018,-0.00007
 097,0.00016925,-0.00003614,0.00006760,0.00057570,0.00016690,0.00090444
 ,-0.00003878,0.00042805,0.00037278,0.00000600,-0.00005855,0.00007491,0
 .00025616,0.00798583,0.01018401,0.00021227,-0.00091714,0.00012272,0.01
 726602,0.15906783,0.00072687,0.00637142,0.00753533,-0.00002350,0.00050
 122,0.00140285,-0.00010569,-0.00013383,0.00001892,0.00048395,0.0001025
 6,0.00116743,-0.01821823,-0.12464552,-0.20751364,0.00003217,0.00004364
 ,0.00002957,0.00070483,0.00245660,0.00053001,-0.00050918,-0.00033226,0
 .00007242,-0.00016714,-0.00001563,0.00015932,-0.00019171,-0.00016813,-
 0.00017482,0.00002572,0.00012431,-0.00001352,0.00022409,-0.00044668,-0
 .00004889,0.00008506,-0.00011376,0.00014922,-0.00010756,-0.00002811,-0
 .00007781,-0.00023452,-0.01178644,-0.01504017,-0.00239249,-0.00840198,
 -0.01190909,0.01974156,0.13650718,0.22371180,-0.00036901,0.00099890,-0
 .00241915,0.00101850,-0.00334192,0.00777269,-0.05545643,-0.01423641,0.
 00677121,-0.00081284,-0.00029690,0.00095271,-0.00035591,0.00016418,0.0
 0044704,-0.83369902,-0.24039426,-0.25373274,-0.00010460,-0.00004971,0.
 00011306,0.00043697,-0.00006526,-0.00025198,-0.00004804,0.00098124,-0.
 00064382,-0.00225102,0.00204426,0.00047680,0.00126192,0.00215850,0.000
 04254,0.00004586,-0.00003237,-0.00008353,0.00010628,0.00006066,-0.0000
 5382,-0.00051105,0.00017696,-0.00013918,0.00000197,0.00027407,-0.00043
 054,-0.00043585,0.00000153,-0.00000537,0.00014881,-0.00002065,-0.00007
 425,0.89102348,0.00007982,0.00058107,-0.00170463,-0.00019489,-0.000810
 61,0.00534640,-0.01200288,0.00384742,-0.00022920,-0.00042702,-0.000147
 60,0.00063545,-0.00023489,0.00007200,0.00016183,-0.24174665,-0.0780340
 0,-0.08419095,-0.00008038,0.00003904,0.00020334,0.00056216,0.00004168,
 -0.00002671,0.00028750,0.00001268,-0.00045271,0.00218883,-0.00021259,0
 .00059577,0.00028223,-0.00075900,0.00162503,0.00004037,-0.00000322,-0.
 00002656,0.00005249,0.00000322,-0.00002826,-0.00025206,0.00007505,-0.0
 0009800,-0.00000914,0.00000853,-0.00003658,-0.00014496,-0.00009616,0.0
 0002265,0.00002228,-0.00000980,-0.00003459,0.25157718,0.07539229,0.000
 56394,-0.00016608,0.00100410,0.00263452,0.00154801,-0.00187659,0.02277
 182,0.00549328,0.01916834,0.00025365,-0.00011930,-0.00029313,-0.000106
 93,-0.00008111,0.00001782,-0.26498857,-0.08773157,-0.13382345,-0.00014
 661,-0.00009539,-0.00005315,0.00086422,-0.00002485,0.00015561,-0.00002
 492,0.00002528,-0.00030368,0.00104341,0.00113845,0.00000930,-0.0041657
 6,0.00166413,0.00564263,-0.00001281,0.00004219,-0.00002131,0.00000071,
 0.00000217,-0.00001935,0.00006898,-0.00005092,0.00006799,0.00001072,0.
 00007814,-0.00004174,-0.00004894,0.00002377,-0.00000762,0.00002426,0.0
 0001609,0.00000106,0.24125832,0.07823770,0.11037317\\-0.00000071,-0.00
 000297,0.00000143,-0.00000114,0.00000342,0.00000058,0.00000084,0.00000
 436,-0.00000177,-0.00000293,-0.00000362,0.00000407,0.00000358,-0.00000
 563,-0.00000291,-0.00000006,0.00001091,-0.00000232,-0.00000201,-0.0000
 0532,0.00000336,0.00000002,0.00000590,-0.00000120,-0.00000429,0.000005
 10,0.00000384,0.00000394,0.00000341,-0.00000518,-0.00000019,0.00000191
 ,-0.00000019,-0.00000168,-0.00000140,0.00000221,-0.00000600,-0.0000017
 9,0.00000719,-0.00000276,-0.00000817,0.00000481,0.00000515,-0.00000570
 ,-0.00000470,0.00000384,-0.00001007,-0.00000230,0.00000502,-0.00000314
 ,-0.00000506,-0.00000061,0.00001282,-0.00000185\\\@


 LIFE CAN ONLY BE UNDERSTOOD BACKWARD, BUT MUST
 BE LIVED FORWARD. -- KIRKEGAARD
 Job cpu time:  0 days  6 hours 20 minutes 54.0 seconds.
 File lengths (MBytes):  RWF=   2640 Int=      0 D2E=      0 Chk=     32 Scr=     32
 Normal termination of Gaussian 09 at Wed Sep 20 16:22:52 2017.
