 Entering Gaussian System, Link 0=/shared/apps/gaussian/G09_LINUX_LINDA/g09/g09
 Input=/gss_gpfs_scratch/westgroup/QMscratch/AYDHKVDAFIGYJU-UHFFFAOYSA-u1.gjf
 Output=/gss_gpfs_scratch/westgroup/QMscratch/AYDHKVDAFIGYJU-UHFFFAOYSA-u1.log
 Initial command:
 /shared/apps/gaussian/G09_LINUX_LINDA/g09/l1.exe /gss_gpfs_scratch/westgroup/rwest-autotst-1/Gau-17708.inp -scrdir=/gss_gpfs_scratch/westgroup/rwest-autotst-1/
 Entering Link 1 = /shared/apps/gaussian/G09_LINUX_LINDA/g09/l1.exe PID=     17709.
  
 Copyright (c) 1988,1990,1992,1993,1995,1998,2003,2009,2010,
            Gaussian, Inc.  All Rights Reserved.
  
 This is part of the Gaussian(R) 09 program.  It is based on
 the Gaussian(R) 03 system (copyright 2003, Gaussian, Inc.),
 the Gaussian(R) 98 system (copyright 1998, Gaussian, Inc.),
 the Gaussian(R) 94 system (copyright 1995, Gaussian, Inc.),
 the Gaussian 92(TM) system (copyright 1992, Gaussian, Inc.),
 the Gaussian 90(TM) system (copyright 1990, Gaussian, Inc.),
 the Gaussian 88(TM) system (copyright 1988, Gaussian, Inc.),
 the Gaussian 86(TM) system (copyright 1986, Carnegie Mellon
 University), and the Gaussian 82(TM) system (copyright 1983,
 Carnegie Mellon University). Gaussian is a federally registered
 trademark of Gaussian, Inc.
  
 This software contains proprietary and confidential information,
 including trade secrets, belonging to Gaussian, Inc.
  
 This software is provided under written license and may be
 used, copied, transmitted, or stored only in accord with that
 written license.
  
 The following legend is applicable only to US Government
 contracts under FAR:
  
                    RESTRICTED RIGHTS LEGEND
  
 Use, reproduction and disclosure by the US Government is
 subject to restrictions as set forth in subparagraphs (a)
 and (c) of the Commercial Computer Software - Restricted
 Rights clause in FAR 52.227-19.
  
 Gaussian, Inc.
 340 Quinnipiac St., Bldg. 40, Wallingford CT 06492
  
  
 ---------------------------------------------------------------
 Warning -- This program may not be used in any manner that
 competes with the business of Gaussian, Inc. or will provide
 assistance to any competitor of Gaussian, Inc.  The licensee
 of this program is prohibited from giving any competitor of
 Gaussian, Inc. access to this program.  By using this program,
 the user acknowledges that Gaussian, Inc. is engaged in the
 business of creating and licensing software in the field of
 computational chemistry and represents and warrants to the
 licensee that it is not a competitor of Gaussian, Inc. and that
 it will not use this program in any manner prohibited above.
 ---------------------------------------------------------------
  

 Cite this work as:
 Gaussian 09, Revision B.01,
 M. J. Frisch, G. W. Trucks, H. B. Schlegel, G. E. Scuseria, 
 M. A. Robb, J. R. Cheeseman, G. Scalmani, V. Barone, B. Mennucci, 
 G. A. Petersson, H. Nakatsuji, M. Caricato, X. Li, H. P. Hratchian, 
 A. F. Izmaylov, J. Bloino, G. Zheng, J. L. Sonnenberg, M. Hada, 
 M. Ehara, K. Toyota, R. Fukuda, J. Hasegawa, M. Ishida, T. Nakajima, 
 Y. Honda, O. Kitao, H. Nakai, T. Vreven, J. A. Montgomery, Jr., 
 J. E. Peralta, F. Ogliaro, M. Bearpark, J. J. Heyd, E. Brothers, 
 K. N. Kudin, V. N. Staroverov, T. Keith, R. Kobayashi, J. Normand, 
 K. Raghavachari, A. Rendell, J. C. Burant, S. S. Iyengar, J. Tomasi, 
 M. Cossi, N. Rega, J. M. Millam, M. Klene, J. E. Knox, J. B. Cross, 
 V. Bakken, C. Adamo, J. Jaramillo, R. Gomperts, R. E. Stratmann, 
 O. Yazyev, A. J. Austin, R. Cammi, C. Pomelli, J. W. Ochterski, 
 R. L. Martin, K. Morokuma, V. G. Zakrzewski, G. A. Voth, 
 P. Salvador, J. J. Dannenberg, S. Dapprich, A. D. Daniels, 
 O. Farkas, J. B. Foresman, J. V. Ortiz, J. Cioslowski, 
 and D. J. Fox, Gaussian, Inc., Wallingford CT, 2010.
 
 ******************************************
 Gaussian 09:  EM64L-G09RevB.01 12-Aug-2010
                 9-Mar-2017 
 ******************************************
 %nprocshared=20
 Will use up to   20 processors via shared memory.
 %mem=5GB
 --------------------------------------------------------------
 # m062x/6-311+g(2df,2p) opt=(verytight,gdiis) freq IOP(2/16=3)
 --------------------------------------------------------------

 Warning!  Use of Opt=GDIIS is deprecated since it is seldom a good choice.

 1/7=1,14=-1,18=20,19=11,26=3,38=1/1,3;
 2/9=110,12=2,16=3,17=6,18=5,40=1/2;
 3/5=4,6=6,7=214,11=2,16=1,25=1,30=1,71=1,74=-55/1,2,3;
 4//1;
 5/5=2,38=5/2;
 6/7=2,8=2,9=2,10=2,28=1/1;
 7//1,2,3,16;
 1/7=1,14=-1,18=20,19=11/3(2);
 2/9=110,16=3/2;
 99//99;
 2/9=110,16=3/2;
 3/5=4,6=6,7=214,11=2,16=1,25=1,30=1,71=1,74=-55/1,2,3;
 4/5=5,16=3/1;
 5/5=2,38=5/2;
 7//1,2,3,16;
 1/7=1,14=-1,18=20,19=11/3(-5);
 2/9=110,16=3/2;
 6/7=2,8=2,9=2,10=2,19=2,28=1/1;
 99/9=1/99;
 -----------------------------------------
 InChI=1S/C4H5O2/c1-3-4(5)6-2/h1,3H,2H3/u1
 -----------------------------------------
 Symbolic Z-matrix:
 Charge =  0 Multiplicity = 2
 C                     1.9449    0.0493   -0.6758 
 C                    -0.2162   -0.2637    0.4896 
 C                    -1.667    -0.0536    0.53 
 O                     0.5361    0.224    -0.5848 
 C                    -2.29      0.5979   -0.444 
 H                     2.1933   -1.033    -0.6962 
 H                     2.3111    0.5201   -1.611 
 H                     2.4446    0.5327    0.1903 
 H                    -2.2392   -0.4355    1.3667 
 O                     0.3431   -0.8871    1.4321 
 H                    -3.3609    0.7489   -0.4071 
 

 GradGradGradGradGradGradGradGradGradGradGradGradGradGradGradGradGradGrad
 Berny optimization.
 Initialization pass.
                           ----------------------------
                           !    Initial Parameters    !
                           ! (Angstroms and Degrees)  !
 --------------------------                            --------------------------
 ! Name  Definition              Value          Derivative Info.                !
 --------------------------------------------------------------------------------
 ! R1    R(1,4)                  1.4225         estimate D2E/DX2                !
 ! R2    R(1,6)                  1.1106         estimate D2E/DX2                !
 ! R3    R(1,7)                  1.1092         estimate D2E/DX2                !
 ! R4    R(1,8)                  1.1106         estimate D2E/DX2                !
 ! R5    R(2,3)                  1.4665         estimate D2E/DX2                !
 ! R6    R(2,4)                  1.3993         estimate D2E/DX2                !
 ! R7    R(2,10)                 1.2609         estimate D2E/DX2                !
 ! R8    R(3,5)                  1.3271         estimate D2E/DX2                !
 ! R9    R(3,9)                  1.0832         estimate D2E/DX2                !
 ! R10   R(5,11)                 1.0821         estimate D2E/DX2                !
 ! A1    A(4,1,6)              110.0205         estimate D2E/DX2                !
 ! A2    A(4,1,7)              109.1943         estimate D2E/DX2                !
 ! A3    A(4,1,8)              110.014          estimate D2E/DX2                !
 ! A4    A(6,1,7)              108.9228         estimate D2E/DX2                !
 ! A5    A(6,1,8)              109.7454         estimate D2E/DX2                !
 ! A6    A(7,1,8)              108.9176         estimate D2E/DX2                !
 ! A7    A(3,2,4)              120.204          estimate D2E/DX2                !
 ! A8    A(3,2,10)             119.2804         estimate D2E/DX2                !
 ! A9    A(4,2,10)             120.5156         estimate D2E/DX2                !
 ! A10   A(2,3,5)              120.9658         estimate D2E/DX2                !
 ! A11   A(2,3,9)              119.562          estimate D2E/DX2                !
 ! A12   A(5,3,9)              119.4722         estimate D2E/DX2                !
 ! A13   A(1,4,2)              122.5984         estimate D2E/DX2                !
 ! A14   A(3,5,11)             120.5336         estimate D2E/DX2                !
 ! D1    D(6,1,4,2)             60.504          estimate D2E/DX2                !
 ! D2    D(7,1,4,2)            179.9969         estimate D2E/DX2                !
 ! D3    D(8,1,4,2)            -60.5204         estimate D2E/DX2                !
 ! D4    D(4,2,3,5)              0.0084         estimate D2E/DX2                !
 ! D5    D(4,2,3,9)           -179.995          estimate D2E/DX2                !
 ! D6    D(10,2,3,5)           179.9984         estimate D2E/DX2                !
 ! D7    D(10,2,3,9)            -0.005          estimate D2E/DX2                !
 ! D8    D(3,2,4,1)           -179.9999         estimate D2E/DX2                !
 ! D9    D(10,2,4,1)             0.0103         estimate D2E/DX2                !
 ! D10   D(2,3,5,11)           179.996          estimate D2E/DX2                !
 ! D11   D(9,3,5,11)            -0.0006         estimate D2E/DX2                !
 --------------------------------------------------------------------------------
 Trust Radius=3.00D-01 FncErr=1.00D-07 GrdErr=1.00D-06
 Number of steps in this run=     45 maximum allowed number of steps=    100.
 GradGradGradGradGradGradGradGradGradGradGradGradGradGradGradGradGradGrad

                          Input orientation:                          
 ---------------------------------------------------------------------
 Center     Atomic      Atomic             Coordinates (Angstroms)
 Number     Number       Type             X           Y           Z
 ---------------------------------------------------------------------
      1          6           0        1.944900    0.049300   -0.675800
      2          6           0       -0.216200   -0.263700    0.489600
      3          6           0       -1.667000   -0.053600    0.530000
      4          8           0        0.536100    0.224000   -0.584800
      5          6           0       -2.290000    0.597900   -0.444000
      6          1           0        2.193300   -1.033000   -0.696200
      7          1           0        2.311100    0.520100   -1.611000
      8          1           0        2.444600    0.532700    0.190300
      9          1           0       -2.239200   -0.435500    1.366700
     10          8           0        0.343100   -0.887100    1.432100
     11          1           0       -3.360900    0.748900   -0.407100
 ---------------------------------------------------------------------
                    Distance matrix (angstroms):
                    1          2          3          4          5
     1  C    0.000000
     2  C    2.475173   0.000000
     3  C    3.809247   1.466491   0.000000
     4  O    1.422504   1.399336   2.484651   0.000000
     5  C    4.276572   2.431997   1.327124   2.854202   0.000000
     6  H    1.110627   2.793499   4.167098   2.082972   4.777386
     7  H    1.109213   3.378477   4.553932   2.071566   4.747427
     8  H    1.110633   2.793509   4.167061   2.082894   4.777345
     9  H    4.681189   2.211639   1.083202   3.456238   2.085457
    10  O    2.808176   1.260853   2.355633   2.310774   3.557835
    11  H    5.358466   3.423239   2.095581   3.936205   1.082123
                    6          7          8          9         10
     6  H    0.000000
     7  H    1.806338   0.000000
     8  H    1.816714   1.806284   0.000000
     9  H    4.925405   5.521331   4.925374   0.000000
    10  O    2.823860   3.887633   2.823863   2.622307   0.000000
    11  H    5.840196   5.802871   5.840159   2.409851   4.447333
                   11
    11  H    0.000000
 Stoichiometry    C4H5O2(2)
 Framework group  C1[X(C4H5O2)]
 Deg. of freedom    27
 Full point group                 C1      NOp   1
 Largest Abelian subgroup         C1      NOp   1
 Largest concise Abelian subgroup C1      NOp   1
                         Standard orientation:                         
 ---------------------------------------------------------------------
 Center     Atomic      Atomic             Coordinates (Angstroms)
 Number     Number       Type             X           Y           Z
 ---------------------------------------------------------------------
      1          6           0       -2.129956   -0.568014   -0.000024
      2          6           0        0.141261    0.415883   -0.000048
      3          6           0        1.595487    0.226617    0.000016
      4          8           0       -0.712910   -0.692510    0.000036
      5          6           0        2.125749   -0.989968   -0.000012
      6          1           0       -2.463732   -0.023014   -0.908352
      7          1           0       -2.584916   -1.579630    0.000008
      8          1           0       -2.463696   -0.023075    0.908362
      9          1           0        2.247031    1.091959    0.000032
     10          8           0       -0.328310    1.586034    0.000012
     11          1           0        3.199844   -1.121529   -0.000029
 ---------------------------------------------------------------------
 Rotational constants (GHZ):      6.9456000      2.7261752      1.9833062
 Standard basis: 6-311+G(2df,2p) (5D, 7F)
 There are   249 symmetry adapted basis functions of A   symmetry.
 Integral buffers will be    131072 words long.
 Raffenetti 2 integral format.
 Two-electron integral symmetry is turned on.
   249 basis functions,   367 primitive gaussians,   279 cartesian basis functions
    23 alpha electrons       22 beta electrons
       nuclear repulsion energy       214.5212535013 Hartrees.
 NAtoms=   11 NActive=   11 NUniq=   11 SFac= 1.00D+00 NAtFMM=   50 NAOKFM=F Big=F
 One-electron integrals computed using PRISM.
 NBasis=   249 RedAO= T  NBF=   249
 NBsUse=   249 1.00D-06 NBFU=   249
 Harris functional with IExCor= 1009 diagonalized for initial guess.
 ExpMin= 4.38D-02 ExpMax= 8.59D+03 ExpMxC= 1.30D+03 IAcc=2 IRadAn=         0 AccDes= 0.00D+00
 HarFok:  IExCor= 1009 AccDes= 0.00D+00 IRadAn=         0 IDoV= 1
 ScaDFX=  1.000000  1.000000  1.000000  1.000000
 FoFCou: FMM=F IPFlag=           0 FMFlag=      100000 FMFlg1=           0
         NFxFlg=           0 DoJE=T BraDBF=F KetDBF=T FulRan=T
         Omega=  0.000000  0.000000  1.000000  0.000000  0.000000 ICntrl=     500 IOpCl=  0
         NMat0=    1 NMatS0=    1 NMatT0=    0 NMatD0=    1 NMtDS0=    0 NMtDT0=    0
         I1Cent=           4 NGrid=           0.
 Petite list used in FoFCou.
 Initial guess orbital symmetries:
 Alpha Orbitals:
       Occupied  (A) (A) (A) (A) (A) (A) (A) (A) (A) (A) (A) (A)
                 (A) (A) (A) (A) (A) (A) (A) (A) (A) (A) (A)
       Virtual   (A) (A) (A) (A) (A) (A) (A) (A) (A) (A) (A) (A)
                 (A) (A) (A) (A) (A) (A) (A) (A) (A) (A) (A) (A)
                 (A) (A) (A) (A) (A) (A) (A) (A) (A) (A) (A) (A)
                 (A) (A) (A) (A) (A) (A) (A) (A) (A) (A) (A) (A)
                 (A) (A) (A) (A) (A) (A) (A) (A) (A) (A) (A) (A)
                 (A) (A) (A) (A) (A) (A) (A) (A) (A) (A) (A) (A)
                 (A) (A) (A) (A) (A) (A) (A) (A) (A) (A) (A) (A)
                 (A) (A) (A) (A) (A) (A) (A) (A) (A) (A) (A) (A)
                 (A) (A) (A) (A) (A) (A) (A) (A) (A) (A) (A) (A)
                 (A) (A) (A) (A) (A) (A) (A) (A) (A) (A) (A) (A)
                 (A) (A) (A) (A) (A) (A) (A) (A) (A) (A) (A) (A)
                 (A) (A) (A) (A) (A) (A) (A) (A) (A) (A) (A) (A)
                 (A) (A) (A) (A) (A) (A) (A) (A) (A) (A) (A) (A)
                 (A) (A) (A) (A) (A) (A) (A) (A) (A) (A) (A) (A)
                 (A) (A) (A) (A) (A) (A) (A) (A) (A) (A) (A) (A)
                 (A) (A) (A) (A) (A) (A) (A) (A) (A) (A) (A) (A)
                 (A) (A) (A) (A) (A) (A) (A) (A) (A) (A) (A) (A)
                 (A) (A) (A) (A) (A) (A) (A) (A) (A) (A) (A) (A)
                 (A) (A) (A) (A) (A) (A) (A) (A) (A) (A)
 Beta  Orbitals:
       Occupied  (A) (A) (A) (A) (A) (A) (A) (A) (A) (A) (A) (A)
                 (A) (A) (A) (A) (A) (A) (A) (A) (A) (A)
       Virtual   (A) (A) (A) (A) (A) (A) (A) (A) (A) (A) (A) (A)
                 (A) (A) (A) (A) (A) (A) (A) (A) (A) (A) (A) (A)
                 (A) (A) (A) (A) (A) (A) (A) (A) (A) (A) (A) (A)
                 (A) (A) (A) (A) (A) (A) (A) (A) (A) (A) (A) (A)
                 (A) (A) (A) (A) (A) (A) (A) (A) (A) (A) (A) (A)
                 (A) (A) (A) (A) (A) (A) (A) (A) (A) (A) (A) (A)
                 (A) (A) (A) (A) (A) (A) (A) (A) (A) (A) (A) (A)
                 (A) (A) (A) (A) (A) (A) (A) (A) (A) (A) (A) (A)
                 (A) (A) (A) (A) (A) (A) (A) (A) (A) (A) (A) (A)
                 (A) (A) (A) (A) (A) (A) (A) (A) (A) (A) (A) (A)
                 (A) (A) (A) (A) (A) (A) (A) (A) (A) (A) (A) (A)
                 (A) (A) (A) (A) (A) (A) (A) (A) (A) (A) (A) (A)
                 (A) (A) (A) (A) (A) (A) (A) (A) (A) (A) (A) (A)
                 (A) (A) (A) (A) (A) (A) (A) (A) (A) (A) (A) (A)
                 (A) (A) (A) (A) (A) (A) (A) (A) (A) (A) (A) (A)
                 (A) (A) (A) (A) (A) (A) (A) (A) (A) (A) (A) (A)
                 (A) (A) (A) (A) (A) (A) (A) (A) (A) (A) (A) (A)
                 (A) (A) (A) (A) (A) (A) (A) (A) (A) (A) (A) (A)
                 (A) (A) (A) (A) (A) (A) (A) (A) (A) (A) (A)
 The electronic state of the initial guess is 2-A.
 Initial guess <Sx>= 0.0000 <Sy>= 0.0000 <Sz>= 0.5000 <S**2>= 0.7500 S= 0.5000
 Requested convergence on RMS density matrix=1.00D-08 within 128 cycles.
 Requested convergence on MAX density matrix=1.00D-06.
 Requested convergence on             energy=1.00D-06.
 No special actions if energy rises.
 DSYEVD returned Info=       31436 IAlg= 4 N=   249 NDim=   249 NE2=     2693775 trying DSYEV.
 SCF Done:  E(UM062X) =  -305.738439244     A.U. after   17 cycles
             Convg  =    0.7655D-08             -V/T =  2.0050
 <Sx>= 0.0000 <Sy>= 0.0000 <Sz>= 0.5000 <S**2>= 0.7725 S= 0.5112
 <L.S>= 0.000000000000E+00
 Annihilation of the first spin contaminant:
 S**2 before annihilation     0.7725,   after     0.7501

 **********************************************************************

            Population analysis using the SCF density.

 **********************************************************************

 Orbital symmetries:
 Alpha Orbitals:
       Occupied  (A) (A) (A) (A) (A) (A) (A) (A) (A) (A) (A) (A)
                 (A) (A) (A) (A) (A) (A) (A) (A) (A) (A) (A)
       Virtual   (A) (A) (A) (A) (A) (A) (A) (A) (A) (A) (A) (A)
                 (A) (A) (A) (A) (A) (A) (A) (A) (A) (A) (A) (A)
                 (A) (A) (A) (A) (A) (A) (A) (A) (A) (A) (A) (A)
                 (A) (A) (A) (A) (A) (A) (A) (A) (A) (A) (A) (A)
                 (A) (A) (A) (A) (A) (A) (A) (A) (A) (A) (A) (A)
                 (A) (A) (A) (A) (A) (A) (A) (A) (A) (A) (A) (A)
                 (A) (A) (A) (A) (A) (A) (A) (A) (A) (A) (A) (A)
                 (A) (A) (A) (A) (A) (A) (A) (A) (A) (A) (A) (A)
                 (A) (A) (A) (A) (A) (A) (A) (A) (A) (A) (A) (A)
                 (A) (A) (A) (A) (A) (A) (A) (A) (A) (A) (A) (A)
                 (A) (A) (A) (A) (A) (A) (A) (A) (A) (A) (A) (A)
                 (A) (A) (A) (A) (A) (A) (A) (A) (A) (A) (A) (A)
                 (A) (A) (A) (A) (A) (A) (A) (A) (A) (A) (A) (A)
                 (A) (A) (A) (A) (A) (A) (A) (A) (A) (A) (A) (A)
                 (A) (A) (A) (A) (A) (A) (A) (A) (A) (A) (A) (A)
                 (A) (A) (A) (A) (A) (A) (A) (A) (A) (A) (A) (A)
                 (A) (A) (A) (A) (A) (A) (A) (A) (A) (A) (A) (A)
                 (A) (A) (A) (A) (A) (A) (A) (A) (A) (A) (A) (A)
                 (A) (A) (A) (A) (A) (A) (A) (A) (A) (A)
 Beta  Orbitals:
       Occupied  (A) (A) (A) (A) (A) (A) (A) (A) (A) (A) (A) (A)
                 (A) (A) (A) (A) (A) (A) (A) (A) (A) (A)
       Virtual   (A) (A) (A) (A) (A) (A) (A) (A) (A) (A) (A) (A)
                 (A) (A) (A) (A) (A) (A) (A) (A) (A) (A) (A) (A)
                 (A) (A) (A) (A) (A) (A) (A) (A) (A) (A) (A) (A)
                 (A) (A) (A) (A) (A) (A) (A) (A) (A) (A) (A) (A)
                 (A) (A) (A) (A) (A) (A) (A) (A) (A) (A) (A) (A)
                 (A) (A) (A) (A) (A) (A) (A) (A) (A) (A) (A) (A)
                 (A) (A) (A) (A) (A) (A) (A) (A) (A) (A) (A) (A)
                 (A) (A) (A) (A) (A) (A) (A) (A) (A) (A) (A) (A)
                 (A) (A) (A) (A) (A) (A) (A) (A) (A) (A) (A) (A)
                 (A) (A) (A) (A) (A) (A) (A) (A) (A) (A) (A) (A)
                 (A) (A) (A) (A) (A) (A) (A) (A) (A) (A) (A) (A)
                 (A) (A) (A) (A) (A) (A) (A) (A) (A) (A) (A) (A)
                 (A) (A) (A) (A) (A) (A) (A) (A) (A) (A) (A) (A)
                 (A) (A) (A) (A) (A) (A) (A) (A) (A) (A) (A) (A)
                 (A) (A) (A) (A) (A) (A) (A) (A) (A) (A) (A) (A)
                 (A) (A) (A) (A) (A) (A) (A) (A) (A) (A) (A) (A)
                 (A) (A) (A) (A) (A) (A) (A) (A) (A) (A) (A) (A)
                 (A) (A) (A) (A) (A) (A) (A) (A) (A) (A) (A) (A)
                 (A) (A) (A) (A) (A) (A) (A) (A) (A) (A) (A)
 The electronic state is 2-A.
 Alpha  occ. eigenvalues --  -19.67206 -19.61836 -10.69358 -10.60565 -10.60084
 Alpha  occ. eigenvalues --  -10.57810  -1.21156  -1.12213  -0.92141  -0.81868
 Alpha  occ. eigenvalues --   -0.72612  -0.64434  -0.58184  -0.56592  -0.55856
 Alpha  occ. eigenvalues --   -0.53534  -0.49485  -0.47130  -0.42197  -0.37561
 Alpha  occ. eigenvalues --   -0.36857  -0.36674  -0.34894
 Alpha virt. eigenvalues --   -0.03695   0.01280   0.01949   0.03980   0.04589
 Alpha virt. eigenvalues --    0.04675   0.06050   0.07581   0.08122   0.08658
 Alpha virt. eigenvalues --    0.09753   0.10642   0.10925   0.13586   0.14300
 Alpha virt. eigenvalues --    0.15172   0.16434   0.17319   0.18226   0.19449
 Alpha virt. eigenvalues --    0.19930   0.21240   0.23009   0.24862   0.26362
 Alpha virt. eigenvalues --    0.28691   0.28931   0.29718   0.30417   0.32070
 Alpha virt. eigenvalues --    0.33862   0.34825   0.36729   0.39334   0.40783
 Alpha virt. eigenvalues --    0.44914   0.47410   0.47979   0.51636   0.53139
 Alpha virt. eigenvalues --    0.53872   0.53901   0.54598   0.55043   0.58950
 Alpha virt. eigenvalues --    0.59248   0.59721   0.62120   0.62575   0.64097
 Alpha virt. eigenvalues --    0.66263   0.67542   0.67987   0.70125   0.70182
 Alpha virt. eigenvalues --    0.73972   0.76508   0.77216   0.80163   0.84130
 Alpha virt. eigenvalues --    0.86769   0.88073   0.88152   0.88983   0.93582
 Alpha virt. eigenvalues --    0.99777   1.02723   1.06005   1.06052   1.09131
 Alpha virt. eigenvalues --    1.09556   1.12623   1.13026   1.14918   1.15980
 Alpha virt. eigenvalues --    1.16039   1.18426   1.20474   1.21354   1.21855
 Alpha virt. eigenvalues --    1.23457   1.27771   1.30077   1.33589   1.34310
 Alpha virt. eigenvalues --    1.35671   1.37909   1.39546   1.42465   1.42990
 Alpha virt. eigenvalues --    1.43543   1.49338   1.53161   1.55032   1.59330
 Alpha virt. eigenvalues --    1.61697   1.63166   1.67422   1.72065   1.78151
 Alpha virt. eigenvalues --    1.81514   1.84903   1.90503   2.00991   2.12508
 Alpha virt. eigenvalues --    2.15434   2.29075   2.36849   2.40496   2.43325
 Alpha virt. eigenvalues --    2.47607   2.53105   2.55371   2.59300   2.61880
 Alpha virt. eigenvalues --    2.67138   2.70890   2.71598   2.73552   2.77412
 Alpha virt. eigenvalues --    2.77675   2.80936   2.83921   2.85958   2.91672
 Alpha virt. eigenvalues --    2.93483   2.95105   3.01421   3.05903   3.09019
 Alpha virt. eigenvalues --    3.09390   3.09694   3.10569   3.14187   3.14288
 Alpha virt. eigenvalues --    3.17304   3.18311   3.20562   3.22530   3.23038
 Alpha virt. eigenvalues --    3.24965   3.28326   3.31893   3.33288   3.34811
 Alpha virt. eigenvalues --    3.34935   3.38842   3.39026   3.41712   3.47662
 Alpha virt. eigenvalues --    3.51477   3.52634   3.53340   3.54142   3.55455
 Alpha virt. eigenvalues --    3.65710   3.66739   3.69100   3.71781   3.72172
 Alpha virt. eigenvalues --    3.77766   3.81993   3.82024   3.83429   3.94854
 Alpha virt. eigenvalues --    4.00496   4.04341   4.07069   4.09224   4.10669
 Alpha virt. eigenvalues --    4.19236   4.22884   4.24464   4.26925   4.27445
 Alpha virt. eigenvalues --    4.30849   4.34735   4.35400   4.36971   4.49978
 Alpha virt. eigenvalues --    4.59143   4.59971   4.74426   4.89849   5.06394
 Alpha virt. eigenvalues --    5.07861   5.09481   5.13081   5.13173   5.18397
 Alpha virt. eigenvalues --    5.19629   5.20942   5.27967   5.36120   5.38268
 Alpha virt. eigenvalues --    5.46948   5.47667   5.47886   5.54880   5.61162
 Alpha virt. eigenvalues --    5.67499   5.69185   5.76718   5.87861   6.00070
 Alpha virt. eigenvalues --    6.13808   6.35823   6.61690   6.81484   6.85926
 Alpha virt. eigenvalues --    6.92174   6.99886   7.06323   7.14538   7.18450
 Alpha virt. eigenvalues --    7.28625   7.47829   7.61955   7.76159   7.82780
 Alpha virt. eigenvalues --   23.95223  24.33660  24.62676  24.83837  50.13074
 Alpha virt. eigenvalues --   50.22137
  Beta  occ. eigenvalues --  -19.67188 -19.61897 -10.69294 -10.60085 -10.59448
  Beta  occ. eigenvalues --  -10.57890  -1.21136  -1.12323  -0.90596  -0.81451
  Beta  occ. eigenvalues --   -0.70932  -0.63790  -0.57019  -0.55880  -0.55381
  Beta  occ. eigenvalues --   -0.52650  -0.49091  -0.47260  -0.42106  -0.37374
  Beta  occ. eigenvalues --   -0.35894  -0.35425
  Beta virt. eigenvalues --   -0.08238  -0.02345   0.01372   0.01986   0.04145
  Beta virt. eigenvalues --    0.04585   0.04675   0.06089   0.07514   0.08067
  Beta virt. eigenvalues --    0.09024   0.09514   0.10676   0.11057   0.13177
  Beta virt. eigenvalues --    0.14659   0.15107   0.16179   0.17542   0.18257
  Beta virt. eigenvalues --    0.19297   0.20101   0.21402   0.22828   0.24593
  Beta virt. eigenvalues --    0.26103   0.28401   0.28806   0.29654   0.30267
  Beta virt. eigenvalues --    0.31829   0.33369   0.34704   0.36744   0.39455
  Beta virt. eigenvalues --    0.40681   0.44906   0.47264   0.48129   0.51442
  Beta virt. eigenvalues --    0.53214   0.53559   0.54255   0.54608   0.54945
  Beta virt. eigenvalues --    0.56964   0.59753   0.59862   0.62048   0.63045
  Beta virt. eigenvalues --    0.63941   0.66381   0.67163   0.68406   0.69838
  Beta virt. eigenvalues --    0.70935   0.74117   0.76480   0.77126   0.79905
  Beta virt. eigenvalues --    0.83637   0.86511   0.87771   0.88085   0.88966
  Beta virt. eigenvalues --    0.93914   0.99528   1.02887   1.05893   1.05983
  Beta virt. eigenvalues --    1.08970   1.09524   1.12275   1.12855   1.14516
  Beta virt. eigenvalues --    1.15943   1.16095   1.17660   1.19648   1.21409
  Beta virt. eigenvalues --    1.21684   1.23436   1.27330   1.29568   1.33503
  Beta virt. eigenvalues --    1.34012   1.35314   1.37484   1.39484   1.42227
  Beta virt. eigenvalues --    1.42890   1.43480   1.49544   1.52064   1.54787
  Beta virt. eigenvalues --    1.59255   1.60948   1.63073   1.66440   1.71679
  Beta virt. eigenvalues --    1.77946   1.81524   1.84729   1.90468   2.00944
  Beta virt. eigenvalues --    2.12555   2.15263   2.29077   2.37010   2.40488
  Beta virt. eigenvalues --    2.43849   2.48638   2.53404   2.55499   2.59538
  Beta virt. eigenvalues --    2.62397   2.67782   2.71893   2.71992   2.73667
  Beta virt. eigenvalues --    2.77535   2.79004   2.80816   2.85366   2.87122
  Beta virt. eigenvalues --    2.92447   2.94784   2.95112   3.02606   3.06161
  Beta virt. eigenvalues --    3.09086   3.10042   3.10489   3.11311   3.14888
  Beta virt. eigenvalues --    3.15172   3.18583   3.21118   3.21568   3.22891
  Beta virt. eigenvalues --    3.23952   3.26405   3.29523   3.32578   3.34555
  Beta virt. eigenvalues --    3.35891   3.37277   3.38854   3.39760   3.45034
  Beta virt. eigenvalues --    3.47967   3.51448   3.52949   3.53028   3.54216
  Beta virt. eigenvalues --    3.57251   3.65923   3.67095   3.71010   3.72106
  Beta virt. eigenvalues --    3.72962   3.78175   3.81995   3.82218   3.83507
  Beta virt. eigenvalues --    3.95267   4.00590   4.04481   4.08255   4.09540
  Beta virt. eigenvalues --    4.10803   4.19517   4.22034   4.25919   4.27080
  Beta virt. eigenvalues --    4.27493   4.30850   4.34720   4.35479   4.36951
  Beta virt. eigenvalues --    4.50680   4.60363   4.60588   4.75106   4.89887
  Beta virt. eigenvalues --    5.07745   5.07807   5.11395   5.13135   5.13375
  Beta virt. eigenvalues --    5.18203   5.19598   5.21594   5.28495   5.36102
  Beta virt. eigenvalues --    5.38144   5.46934   5.47593   5.47880   5.55057
  Beta virt. eigenvalues --    5.61165   5.67204   5.69179   5.80071   5.87838
  Beta virt. eigenvalues --    6.00203   6.13699   6.35823   6.61694   6.81023
  Beta virt. eigenvalues --    6.85856   6.91769   6.99834   7.06292   7.14502
  Beta virt. eigenvalues --    7.18179   7.28518   7.47741   7.61784   7.76246
  Beta virt. eigenvalues --    7.82744  23.95952  24.33660  24.62933  24.84412
  Beta virt. eigenvalues --   50.13071  50.22211
          Condensed to atoms (all electrons):
              1          2          3          4          5          6
     1  C    4.951882  -0.059154  -0.112787   0.139962   0.001037   0.429056
     2  C   -0.059154   5.364276  -0.373191   0.289227   0.111086   0.001200
     3  C   -0.112787  -0.373191   6.026898  -0.233859   0.410520   0.000589
     4  O    0.139962   0.289227  -0.233859   8.171023  -0.002966  -0.040037
     5  C    0.001037   0.111086   0.410520  -0.002966   5.353834  -0.001913
     6  H    0.429056   0.001200   0.000589  -0.040037  -0.001913   0.538932
     7  H    0.416602   0.008263   0.006996  -0.053381   0.002601  -0.026714
     8  H    0.429067   0.001193   0.000588  -0.040047  -0.001913  -0.033755
     9  H   -0.000420  -0.041512   0.408934   0.006853  -0.009223   0.000004
    10  O   -0.017003   0.522144  -0.182676  -0.075004   0.006355  -0.002010
    11  H    0.000087   0.033785  -0.053921  -0.000190   0.375303   0.000002
              7          8          9         10         11
     1  C    0.416602   0.429067  -0.000420  -0.017003   0.000087
     2  C    0.008263   0.001193  -0.041512   0.522144   0.033785
     3  C    0.006996   0.000588   0.408934  -0.182676  -0.053921
     4  O   -0.053381  -0.040047   0.006853  -0.075004  -0.000190
     5  C    0.002601  -0.001913  -0.009223   0.006355   0.375303
     6  H   -0.026714  -0.033755   0.000004  -0.002010   0.000002
     7  H    0.538085  -0.026721   0.000007   0.001497  -0.000003
     8  H   -0.026721   0.538951   0.000004  -0.002010   0.000002
     9  H    0.000007   0.000004   0.470035   0.001054  -0.008376
    10  O    0.001497  -0.002010   0.001054   8.141405  -0.000679
    11  H   -0.000003   0.000002  -0.008376  -0.000679   0.495575
 Mulliken atomic charges:
              1
     1  C   -0.178330
     2  C    0.142684
     3  C    0.101909
     4  O   -0.161581
     5  C   -0.244722
     6  H    0.134646
     7  H    0.132769
     8  H    0.134643
     9  H    0.172642
    10  O   -0.393074
    11  H    0.158414
 Sum of Mulliken atomic charges =   0.00000
 Mulliken charges with hydrogens summed into heavy atoms:
              1
     1  C    0.223728
     2  C    0.142684
     3  C    0.274551
     4  O   -0.161581
     5  C   -0.086308
    10  O   -0.393074
 Sum of Mulliken charges with hydrogens summed into heavy atoms =   0.00000
          Atomic-Atomic Spin Densities.
              1          2          3          4          5          6
     1  C    0.001191   0.005737  -0.007343   0.001901  -0.002119   0.000441
     2  C    0.005737   0.193742  -0.125111  -0.002740  -0.022606  -0.000087
     3  C   -0.007343  -0.125111   0.008958   0.008178  -0.029241  -0.000338
     4  O    0.001901  -0.002740   0.008178   0.003344  -0.013314   0.000463
     5  C   -0.002119  -0.022606  -0.029241  -0.013314   1.144248  -0.000354
     6  H    0.000441  -0.000087  -0.000338   0.000463  -0.000354  -0.000215
     7  H   -0.000742   0.000033   0.000303  -0.001270   0.000834   0.000157
     8  H    0.000441  -0.000087  -0.000337   0.000463  -0.000354  -0.000429
     9  H   -0.001014  -0.045840   0.051958  -0.000315  -0.005666   0.000000
    10  O    0.000337   0.000545   0.007981  -0.001797  -0.000324   0.000117
    11  H    0.000364   0.019463  -0.010213   0.000170  -0.017268   0.000000
              7          8          9         10         11
     1  C   -0.000742   0.000441  -0.001014   0.000337   0.000364
     2  C    0.000033  -0.000087  -0.045840   0.000545   0.019463
     3  C    0.000303  -0.000337   0.051958   0.007981  -0.010213
     4  O   -0.001270   0.000463  -0.000315  -0.001797   0.000170
     5  C    0.000834  -0.000354  -0.005666  -0.000324  -0.017268
     6  H    0.000157  -0.000429   0.000000   0.000117   0.000000
     7  H    0.000883   0.000157   0.000000  -0.000095   0.000000
     8  H    0.000157  -0.000215   0.000000   0.000117   0.000000
     9  H    0.000000   0.000000   0.047821   0.000686  -0.004369
    10  O   -0.000095   0.000117   0.000686  -0.040308  -0.000045
    11  H    0.000000   0.000000  -0.004369  -0.000045   0.025696
 Mulliken atomic spin densities:
              1
     1  C   -0.000807
     2  C    0.023050
     3  C   -0.095204
     4  O   -0.004918
     5  C    1.053837
     6  H   -0.000245
     7  H    0.000259
     8  H   -0.000245
     9  H    0.043260
    10  O   -0.032785
    11  H    0.013797
 Sum of Mulliken atomic spin densities =   1.00000
 Electronic spatial extent (au):  <R**2>=            605.1411
 Charge=              0.0000 electrons
 Dipole moment (field-independent basis, Debye):
    X=              1.0159    Y=             -1.8105    Z=             -0.0002  Tot=              2.0760
 Quadrupole moment (field-independent basis, Debye-Ang):
   XX=            -23.8421   YY=            -40.7549   ZZ=            -36.1418
   XY=              2.4311   XZ=              0.0001   YZ=              0.0000
 Traceless Quadrupole moment (field-independent basis, Debye-Ang):
   XX=              9.7375   YY=             -7.1753   ZZ=             -2.5622
   XY=              2.4311   XZ=              0.0001   YZ=              0.0000
 Octapole moment (field-independent basis, Debye-Ang**2):
  XXX=              3.5834  YYY=             -5.4692  ZZZ=              0.0002  XYY=              0.7091
  XXY=             -5.1578  XXZ=             -0.0003  XZZ=             -5.8974  YZZ=              2.2111
  YYZ=              0.0002  XYZ=              0.0005
 Hexadecapole moment (field-independent basis, Debye-Ang**3):
 XXXX=           -466.0625 YYYY=           -225.4380 ZZZZ=            -44.3282 XXXY=              3.0510
 XXXZ=              0.0003 YYYX=             14.4454 YYYZ=              0.0001 ZZZX=             -0.0002
 ZZZY=              0.0000 XXYY=           -114.7177 XXZZ=           -104.9848 YYZZ=            -43.6894
 XXYZ=             -0.0002 YYXZ=             -0.0003 ZZXY=              0.8387
 N-N= 2.145212535013D+02 E-N=-1.710537499481D+03  KE= 4.556307778454D+02
                          Isotropic Fermi Contact Couplings
        Atom                 a.u.       MegaHertz       Gauss      10(-4) cm-1
     1  C(13)             -0.00032      -0.35891      -0.12807      -0.11972
     2  C(13)              0.04345      48.84748      17.43000      16.29377
     3  C(13)             -0.01422     -15.98355      -5.70333      -5.33154
     4  O(17)              0.00474      -2.87142      -1.02459      -0.95780
     5  C(13)              0.53586     602.40868     214.95439     200.94191
     6  H(1)              -0.00002      -0.10321      -0.03683      -0.03443
     7  H(1)               0.00019       0.86336       0.30807       0.28799
     8  H(1)              -0.00002      -0.10318      -0.03682      -0.03442
     9  H(1)               0.02550     113.99989      40.67799      38.02627
    10  O(17)             -0.00836       5.06942       1.80889       1.69098
    11  H(1)               0.01706      76.27764      27.21776      25.44348
 --------------------------------------------------------
       Center         ----  Spin Dipole Couplings  ----
                      3XX-RR        3YY-RR        3ZZ-RR
 --------------------------------------------------------
     1   Atom        0.004617     -0.002076     -0.002541
     2   Atom        0.020316     -0.014115     -0.006200
     3   Atom        0.032963      0.152539     -0.185502
     4   Atom       -0.002943      0.031493     -0.028550
     5   Atom       -0.061328      0.394503     -0.333175
     6   Atom        0.002428     -0.001188     -0.001240
     7   Atom        0.003385     -0.001722     -0.001662
     8   Atom        0.002428     -0.001188     -0.001240
     9   Atom       -0.003892      0.015550     -0.011658
    10   Atom        0.072327      0.068232     -0.140560
    11   Atom        0.082197     -0.026139     -0.056057
 --------------------------------------------------------
                        XY            XZ            YZ
 --------------------------------------------------------
     1   Atom       -0.001692      0.000000      0.000000
     2   Atom       -0.024242      0.000000      0.000000
     3   Atom       -0.034087      0.000010      0.000002
     4   Atom       -0.012435     -0.000002      0.000001
     5   Atom        0.713363      0.000036      0.000038
     6   Atom       -0.001402      0.000789     -0.000296
     7   Atom        0.000278      0.000000      0.000000
     8   Atom       -0.001402     -0.000789      0.000296
     9   Atom       -0.004489      0.000000      0.000001
    10   Atom       -0.008855     -0.000008      0.000007
    11   Atom       -0.016183     -0.000002      0.000002
 --------------------------------------------------------


 ---------------------------------------------------------------------------------
              Anisotropic Spin Dipole Couplings in Principal Axis System
 ---------------------------------------------------------------------------------

       Atom             a.u.   MegaHertz   Gauss  10(-4) cm-1        Axes

              Baa    -0.0025    -0.341    -0.122    -0.114  0.0003  0.0011  1.0000
     1 C(13)  Bbb    -0.0025    -0.333    -0.119    -0.111  0.2320  0.9727 -0.0012
              Bcc     0.0050     0.674     0.240     0.225  0.9727 -0.2320  0.0000
 
              Baa    -0.0266    -3.574    -1.275    -1.192  0.4588  0.8885  0.0000
     2 C(13)  Bbb    -0.0062    -0.832    -0.297    -0.278  0.0000  0.0000  1.0000
              Bcc     0.0328     4.406     1.572     1.470  0.8885 -0.4588  0.0000
 
              Baa    -0.1855   -24.893    -8.882    -8.303  0.0000  0.0000  1.0000
     3 C(13)  Bbb     0.0239     3.211     1.146     1.071  0.9666  0.2562  0.0000
              Bcc     0.1616    21.682     7.737     7.232 -0.2562  0.9666  0.0000
 
              Baa    -0.0285     2.066     0.737     0.689  0.0001  0.0000  1.0000
     4 O(17)  Bbb    -0.0070     0.504     0.180     0.168  0.9515  0.3077 -0.0001
              Bcc     0.0355    -2.570    -0.917    -0.857 -0.3077  0.9515  0.0000
 
              Baa    -0.5823   -78.139   -27.882   -26.064  0.8076 -0.5898  0.0000
     5 C(13)  Bbb    -0.3332   -44.709   -15.953   -14.913  0.0000  0.0000  1.0000
              Bcc     0.9155   122.848    43.835    40.978  0.5898  0.8076  0.0000
 
              Baa    -0.0017    -0.891    -0.318    -0.297  0.3072  0.9475  0.0882
     6 H(1)   Bbb    -0.0014    -0.748    -0.267    -0.250 -0.2098 -0.0230  0.9775
              Bcc     0.0031     1.639     0.585     0.547  0.9282 -0.3188  0.1917
 
              Baa    -0.0017    -0.927    -0.331    -0.309 -0.0542  0.9985  0.0000
     7 H(1)   Bbb    -0.0017    -0.887    -0.316    -0.296  0.0000  0.0000  1.0000
              Bcc     0.0034     1.814     0.647     0.605  0.9985  0.0542  0.0000
 
              Baa    -0.0017    -0.891    -0.318    -0.297  0.3072  0.9475 -0.0882
     8 H(1)   Bbb    -0.0014    -0.748    -0.267    -0.250  0.2098  0.0229  0.9775
              Bcc     0.0031     1.639     0.585     0.547  0.9282 -0.3188 -0.1917
 
              Baa    -0.0117    -6.220    -2.220    -2.075 -0.0001  0.0000  1.0000
     9 H(1)   Bbb    -0.0049    -2.603    -0.929    -0.868  0.9767  0.2146  0.0001
              Bcc     0.0165     8.823     3.148     2.943 -0.2146  0.9767  0.0000
 
              Baa    -0.1406    10.171     3.629     3.393  0.0000  0.0000  1.0000
    10 O(17)  Bbb     0.0612    -4.428    -1.580    -1.477  0.6224  0.7827  0.0000
              Bcc     0.0794    -5.743    -2.049    -1.916  0.7827 -0.6224  0.0000
 
              Baa    -0.0561   -29.909   -10.672    -9.977  0.0000 -0.0001  1.0000
    11 H(1)   Bbb    -0.0285   -15.209    -5.427    -5.073  0.1447  0.9895  0.0001
              Bcc     0.0846    45.118    16.099    15.050  0.9895 -0.1447  0.0000
 

 ---------------------------------------------------------------------------------

 Calling FoFJK, ICntrl=      2127 FMM=F ISym2X=0 I1Cent= 0 IOpClX= 1 NMat=1 NMatS=1 NMatT=0.
 ***** Axes restored to original set *****
 -------------------------------------------------------------------
 Center     Atomic                   Forces (Hartrees/Bohr)
 Number     Number              X              Y              Z
 -------------------------------------------------------------------
      1        6           0.009908441   -0.009753357    0.014453229
      2        6           0.085442169   -0.041770233    0.049605677
      3        6           0.005482059    0.021903126   -0.040254981
      4        8          -0.047197427   -0.001427498    0.015867925
      5        6          -0.008070035   -0.014906095    0.028611441
      6        1          -0.002225692    0.013097086    0.002430458
      7        1          -0.012649081   -0.004348629    0.011254781
      8        1          -0.005584884   -0.007879174   -0.009442614
      9        1           0.006888746   -0.002456944    0.002387313
     10        8          -0.031067838    0.039612933   -0.061176713
     11        1          -0.000926459    0.007928785   -0.013736514
 -------------------------------------------------------------------
 Cartesian Forces:  Max     0.085442169 RMS     0.027460530

 GradGradGradGradGradGradGradGradGradGradGradGradGradGradGradGradGradGrad
 Berny optimization.
 Internal  Forces:  Max     0.079095545 RMS     0.020925307
 Search for a local minimum.
 Step number   1 out of a maximum of   45
 All quantities printed in internal units (Hartrees-Bohrs-Radians)
 Swaping is turned off.
 Second derivative matrix not updated -- first step.
 ITU=  0
     Eigenvalues ---    0.01209   0.01376   0.01394   0.01701   0.01823
     Eigenvalues ---    0.03053   0.10268   0.10397   0.16000   0.16000
     Eigenvalues ---    0.16000   0.16000   0.16000   0.22000   0.25000
     Eigenvalues ---    0.25000   0.25000   0.32533   0.32534   0.32683
     Eigenvalues ---    0.35610   0.35739   0.36164   0.42085   0.45731
     Eigenvalues ---    0.60190   0.79352
 Quadratic step=3.731D-01 exceeds max=3.000D-01 adjusted using Lamda=-5.729D-02.
 Angle between NR and scaled steps=   4.55 degrees.
 Angle between quadratic step and forces=  26.93 degrees.
 Linear search not attempted -- option 19 set.
 Iteration  1 RMS(Cart)=  0.10650369 RMS(Int)=  0.00340430
 Iteration  2 RMS(Cart)=  0.00330505 RMS(Int)=  0.00002585
 Iteration  3 RMS(Cart)=  0.00001010 RMS(Int)=  0.00002557
 Iteration  4 RMS(Cart)=  0.00000000 RMS(Int)=  0.00002557
 Variable       Old X    -DE/DX   Delta X   Delta X   Delta X     New X
                                 (Linear)    (Quad)   (Total)
    R1        2.68814  -0.01056   0.00000  -0.02209  -0.02209   2.66605
    R2        2.09878  -0.01331   0.00000  -0.03478  -0.03478   2.06400
    R3        2.09611  -0.01550   0.00000  -0.04036  -0.04036   2.05575
    R4        2.09879  -0.01331   0.00000  -0.03479  -0.03479   2.06401
    R5        2.77127  -0.00219   0.00000  -0.00523  -0.00523   2.76604
    R6        2.64436  -0.06115   0.00000  -0.11884  -0.11884   2.52552
    R7        2.38267  -0.07910   0.00000  -0.09296  -0.09296   2.28970
    R8        2.50790  -0.01014   0.00000  -0.01538  -0.01538   2.49253
    R9        2.04696  -0.00092   0.00000  -0.00224  -0.00224   2.04472
   R10        2.04492   0.00156   0.00000   0.00375   0.00375   2.04867
    A1        1.92022   0.00262   0.00000   0.01240   0.01235   1.93257
    A2        1.90580  -0.01245   0.00000  -0.05797  -0.05797   1.84783
    A3        1.92011   0.00264   0.00000   0.01250   0.01245   1.93256
    A4        1.90106   0.00444   0.00000   0.01976   0.01976   1.92082
    A5        1.91542  -0.00172   0.00000  -0.00661  -0.00670   1.90872
    A6        1.90097   0.00445   0.00000   0.01980   0.01981   1.92078
    A7        2.09795  -0.02960   0.00000  -0.09634  -0.09634   2.00162
    A8        2.08184   0.02022   0.00000   0.06579   0.06579   2.14763
    A9        2.10339   0.00939   0.00000   0.03054   0.03054   2.13394
   A10        2.11125   0.01006   0.00000   0.03628   0.03628   2.14753
   A11        2.08675  -0.01286   0.00000  -0.05415  -0.05415   2.03260
   A12        2.08518   0.00280   0.00000   0.01788   0.01788   2.10306
   A13        2.13975  -0.04011   0.00000  -0.13054  -0.13054   2.00921
   A14        2.10371   0.03231   0.00000   0.14868   0.14868   2.25239
    D1        1.05599   0.00063   0.00000   0.00393   0.00400   1.05999
    D2        3.14154  -0.00001   0.00000  -0.00004  -0.00004   3.14150
    D3       -1.05628  -0.00062   0.00000  -0.00389  -0.00396  -1.06024
    D4        0.00015  -0.00001   0.00000  -0.00009  -0.00009   0.00006
    D5       -3.14151   0.00000   0.00000  -0.00006  -0.00006  -3.14156
    D6        3.14156   0.00000   0.00000   0.00006   0.00006  -3.14156
    D7       -0.00009   0.00001   0.00000   0.00009   0.00009   0.00000
    D8       -3.14159   0.00000   0.00000   0.00006   0.00005  -3.14154
    D9        0.00018  -0.00001   0.00000  -0.00010  -0.00009   0.00008
   D10        3.14152   0.00000   0.00000   0.00003   0.00003   3.14155
   D11       -0.00001   0.00000   0.00000   0.00001   0.00001  -0.00001
         Item               Value     Threshold  Converged?
 Maximum Force            0.079096     0.000002     NO 
 RMS     Force            0.020925     0.000001     NO 
 Maximum Displacement     0.223154     0.000006     NO 
 RMS     Displacement     0.107182     0.000004     NO 
 Predicted change in Energy=-1.917862D-02
 GradGradGradGradGradGradGradGradGradGradGradGradGradGradGradGradGradGrad

                          Input orientation:                          
 ---------------------------------------------------------------------
 Center     Atomic      Atomic             Coordinates (Angstroms)
 Number     Number       Type             X           Y           Z
 ---------------------------------------------------------------------
      1          6           0        1.861399    0.038967   -0.633834
      2          6           0       -0.147714   -0.270323    0.482000
      3          6           0       -1.595490   -0.057675    0.516907
      4          8           0        0.465469    0.238779   -0.590809
      5          6           0       -2.251219    0.584118   -0.430642
      6          1           0        2.099176   -1.026999   -0.644926
      7          1           0        2.200609    0.506463   -1.555685
      8          1           0        2.345841    0.509115    0.224788
      9          1           0       -2.121112   -0.458408    1.373587
     10          8           0        0.454759   -0.859902    1.352367
     11          1           0       -3.311918    0.795866   -0.503953
 ---------------------------------------------------------------------
                    Distance matrix (angstroms):
                    1          2          3          4          5
     1  C    0.000000
     2  C    2.318897   0.000000
     3  C    3.644670   1.463725   0.000000
     4  O    1.410814   1.336450   2.358489   0.000000
     5  C    4.153565   2.446981   1.318988   2.743229   0.000000
     6  H    1.092220   2.625078   3.992492   2.067394   4.644087
     7  H    1.087854   3.204712   4.361680   2.003335   4.592442
     8  H    1.092225   2.625167   3.992578   2.067385   4.644155
     9  H    4.487483   2.173614   1.082019   3.321945   2.087829
    10  O    2.594532   1.211658   2.354800   2.232296   3.547765
    11  H    5.230006   3.481529   2.171822   3.819233   1.084109
                    6          7          8          9         10
     6  H    0.000000
     7  H    1.786414   0.000000
     8  H    1.782384   1.786389   0.000000
     9  H    4.712591   5.309320   4.712696   0.000000
    10  O    2.592529   3.656735   2.592650   2.607060   0.000000
    11  H    5.711623   5.619416   5.711701   2.552719   4.513906
                   11
    11  H    0.000000
 Stoichiometry    C4H5O2(2)
 Framework group  C1[X(C4H5O2)]
 Deg. of freedom    27
 Full point group                 C1      NOp   1
 Largest Abelian subgroup         C1      NOp   1
 Largest concise Abelian subgroup C1      NOp   1
                         Standard orientation:                         
 ---------------------------------------------------------------------
 Center     Atomic      Atomic             Coordinates (Angstroms)
 Number     Number       Type             X           Y           Z
 ---------------------------------------------------------------------
      1          6           0        1.999800   -0.613150    0.000029
      2          6           0       -0.071271    0.429897   -0.000005
      3          6           0       -1.529068    0.298287   -0.000008
      4          8           0        0.593778   -0.729331   -0.000047
      5          6           0       -2.145967   -0.867545    0.000017
      6          1           0        2.343896   -0.083669    0.891203
      7          1           0        2.382492   -1.631469    0.000079
      8          1           0        2.343982   -0.083774   -0.891181
      9          1           0       -2.096320    1.219694   -0.000002
     10          8           0        0.495540    1.500803    0.000004
     11          1           0       -3.209552   -1.077498    0.000050
 ---------------------------------------------------------------------
 Rotational constants (GHZ):      7.4112475      2.9008867      2.1127494
 Standard basis: 6-311+G(2df,2p) (5D, 7F)
 There are   249 symmetry adapted basis functions of A   symmetry.
 Integral buffers will be    131072 words long.
 Raffenetti 2 integral format.
 Two-electron integral symmetry is turned on.
   249 basis functions,   367 primitive gaussians,   279 cartesian basis functions
    23 alpha electrons       22 beta electrons
       nuclear repulsion energy       220.5122415555 Hartrees.
 NAtoms=   11 NActive=   11 NUniq=   11 SFac= 1.00D+00 NAtFMM=   50 NAOKFM=F Big=F
 One-electron integrals computed using PRISM.
 NBasis=   249 RedAO= T  NBF=   249
 NBsUse=   249 1.00D-06 NBFU=   249
 Initial guess read from the read-write file.
 B after Tr=     0.000000    0.000000    0.000000
         Rot=    1.000000    0.000000    0.000000    0.000000 Ang=   0.00 deg.
 Initial guess orbital symmetries:
 Alpha Orbitals:
       Occupied  (A) (A) (A) (A) (A) (A) (A) (A) (A) (A) (A) (A)
                 (A) (A) (A) (A) (A) (A) (A) (A) (A) (A) (A)
       Virtual   (A) (A) (A) (A) (A) (A) (A) (A) (A) (A) (A) (A)
                 (A) (A) (A) (A) (A) (A) (A) (A) (A) (A) (A) (A)
                 (A) (A) (A) (A) (A) (A) (A) (A) (A) (A) (A) (A)
                 (A) (A) (A) (A) (A) (A) (A) (A) (A) (A) (A) (A)
                 (A) (A) (A) (A) (A) (A) (A) (A) (A) (A) (A) (A)
                 (A) (A) (A) (A) (A) (A) (A) (A) (A) (A) (A) (A)
                 (A) (A) (A) (A) (A) (A) (A) (A) (A) (A) (A) (A)
                 (A) (A) (A) (A) (A) (A) (A) (A) (A) (A) (A) (A)
                 (A) (A) (A) (A) (A) (A) (A) (A) (A) (A) (A) (A)
                 (A) (A) (A) (A) (A) (A) (A) (A) (A) (A) (A) (A)
                 (A) (A) (A) (A) (A) (A) (A) (A) (A) (A) (A) (A)
                 (A) (A) (A) (A) (A) (A) (A) (A) (A) (A) (A) (A)
                 (A) (A) (A) (A) (A) (A) (A) (A) (A) (A) (A) (A)
                 (A) (A) (A) (A) (A) (A) (A) (A) (A) (A) (A) (A)
                 (A) (A) (A) (A) (A) (A) (A) (A) (A) (A) (A) (A)
                 (A) (A) (A) (A) (A) (A) (A) (A) (A) (A) (A) (A)
                 (A) (A) (A) (A) (A) (A) (A) (A) (A) (A) (A) (A)
                 (A) (A) (A) (A) (A) (A) (A) (A) (A) (A) (A) (A)
                 (A) (A) (A) (A) (A) (A) (A) (A) (A) (A)
 Beta  Orbitals:
       Occupied  (A) (A) (A) (A) (A) (A) (A) (A) (A) (A) (A) (A)
                 (A) (A) (A) (A) (A) (A) (A) (A) (A) (A)
       Virtual   (A) (A) (A) (A) (A) (A) (A) (A) (A) (A) (A) (A)
                 (A) (A) (A) (A) (A) (A) (A) (A) (A) (A) (A) (A)
                 (A) (A) (A) (A) (A) (A) (A) (A) (A) (A) (A) (A)
                 (A) (A) (A) (A) (A) (A) (A) (A) (A) (A) (A) (A)
                 (A) (A) (A) (A) (A) (A) (A) (A) (A) (A) (A) (A)
                 (A) (A) (A) (A) (A) (A) (A) (A) (A) (A) (A) (A)
                 (A) (A) (A) (A) (A) (A) (A) (A) (A) (A) (A) (A)
                 (A) (A) (A) (A) (A) (A) (A) (A) (A) (A) (A) (A)
                 (A) (A) (A) (A) (A) (A) (A) (A) (A) (A) (A) (A)
                 (A) (A) (A) (A) (A) (A) (A) (A) (A) (A) (A) (A)
                 (A) (A) (A) (A) (A) (A) (A) (A) (A) (A) (A) (A)
                 (A) (A) (A) (A) (A) (A) (A) (A) (A) (A) (A) (A)
                 (A) (A) (A) (A) (A) (A) (A) (A) (A) (A) (A) (A)
                 (A) (A) (A) (A) (A) (A) (A) (A) (A) (A) (A) (A)
                 (A) (A) (A) (A) (A) (A) (A) (A) (A) (A) (A) (A)
                 (A) (A) (A) (A) (A) (A) (A) (A) (A) (A) (A) (A)
                 (A) (A) (A) (A) (A) (A) (A) (A) (A) (A) (A) (A)
                 (A) (A) (A) (A) (A) (A) (A) (A) (A) (A) (A) (A)
                 (A) (A) (A) (A) (A) (A) (A) (A) (A) (A) (A)
 Initial guess <Sx>= 0.0000 <Sy>= 0.0000 <Sz>= 0.5000 <S**2>= 0.8048 S= 0.5270
 Harris functional with IExCor= 1009 diagonalized for initial guess.
 ExpMin= 4.38D-02 ExpMax= 8.59D+03 ExpMxC= 1.30D+03 IAcc=2 IRadAn=         0 AccDes= 0.00D+00
 HarFok:  IExCor= 1009 AccDes= 0.00D+00 IRadAn=         0 IDoV= 1
 ScaDFX=  1.000000  1.000000  1.000000  1.000000
 FoFCou: FMM=F IPFlag=           0 FMFlag=      100000 FMFlg1=           0
         NFxFlg=           0 DoJE=T BraDBF=F KetDBF=T FulRan=T
         Omega=  0.000000  0.000000  1.000000  0.000000  0.000000 ICntrl=     500 IOpCl=  0
         NMat0=    1 NMatS0=    1 NMatT0=    0 NMatD0=    1 NMtDS0=    0 NMtDT0=    0
         I1Cent=           4 NGrid=           0.
 Petite list used in FoFCou.
 DSYEVD returned Info=         499 IAlg= 4 N=   249 NDim=   249 NE2=     2694502 trying DSYEV.
 Requested convergence on RMS density matrix=1.00D-08 within 128 cycles.
 Requested convergence on MAX density matrix=1.00D-06.
 Requested convergence on             energy=1.00D-06.
 No special actions if energy rises.
 SCF Done:  E(UM062X) =  -305.757866515     A.U. after   18 cycles
             Convg  =    0.4299D-08             -V/T =  2.0034
 <Sx>= 0.0000 <Sy>= 0.0000 <Sz>= 0.5000 <S**2>= 0.7709 S= 0.5104
 <L.S>= 0.000000000000E+00
 Annihilation of the first spin contaminant:
 S**2 before annihilation     0.7709,   after     0.7501
 Calling FoFJK, ICntrl=      2127 FMM=F ISym2X=0 I1Cent= 0 IOpClX= 1 NMat=1 NMatS=1 NMatT=0.
 ***** Axes restored to original set *****
 -------------------------------------------------------------------
 Center     Atomic                   Forces (Hartrees/Bohr)
 Number     Number              X              Y              Z
 -------------------------------------------------------------------
      1        6           0.010687195   -0.000249340   -0.002575300
      2        6           0.022215737   -0.011680921    0.014342874
      3        6          -0.010777528    0.011279595   -0.016868759
      4        8          -0.012758317    0.002388924   -0.000610607
      5        6          -0.003356951   -0.007804182    0.014732596
      6        1          -0.000490526    0.002287804    0.001161594
      7        1          -0.000533815   -0.000657044    0.001307356
      8        1          -0.001174689   -0.001973820   -0.001249896
      9        1           0.001214617   -0.001685965    0.002633921
     10        8          -0.008317307    0.005655431   -0.007634233
     11        1           0.003291585    0.002439518   -0.005239546
 -------------------------------------------------------------------
 Cartesian Forces:  Max     0.022215737 RMS     0.008115929

 GradGradGradGradGradGradGradGradGradGradGradGradGradGradGradGradGradGrad
 Berny optimization.
 Using GDIIS optimizer.
 Internal  Forces:  Max     0.012678997 RMS     0.004612526
 Search for a local minimum.
 Step number   2 out of a maximum of   45
 All quantities printed in internal units (Hartrees-Bohrs-Radians)
 Swaping is turned off.
 Update second derivatives using D2CorX and points    1    2
 DE= -1.94D-02 DEPred=-1.92D-02 R= 1.01D+00
 SS=  1.41D+00  RLast= 3.01D-01 DXNew= 5.0454D-01 9.0184D-01
 Trust test= 1.01D+00 RLast= 3.01D-01 DXMaxT set to 5.05D-01
 ITU=  1  0
     Eigenvalues ---    0.01209   0.01371   0.01394   0.01701   0.01855
     Eigenvalues ---    0.03053   0.10190   0.10674   0.15009   0.16000
     Eigenvalues ---    0.16000   0.16000   0.16205   0.21908   0.24079
     Eigenvalues ---    0.25000   0.27052   0.32353   0.32533   0.32688
     Eigenvalues ---    0.35622   0.35759   0.36467   0.42207   0.49914
     Eigenvalues ---    0.59938   0.76065
 DIIS coeff's:      1.14534     -0.14534
 Cosine:  1.000 >  0.970
 Length:  1.000
 GDIIS step was calculated using  2 of the last  2 vectors.
 Iteration  1 RMS(Cart)=  0.03791063 RMS(Int)=  0.00158489
 Iteration  2 RMS(Cart)=  0.00167125 RMS(Int)=  0.00001582
 Iteration  3 RMS(Cart)=  0.00000021 RMS(Int)=  0.00001582
 Variable       Old X    -DE/DX   Delta X   Delta X   Delta X     New X
                                  (DIIS)     (GDIIS)  (Total)
    R1        2.66605   0.00851  -0.00321   0.02541   0.02220   2.68825
    R2        2.06400  -0.00236  -0.00506  -0.00456  -0.00962   2.05438
    R3        2.05575  -0.00155  -0.00587  -0.00109  -0.00696   2.04879
    R4        2.06401  -0.00236  -0.00506  -0.00457  -0.00962   2.05438
    R5        2.76604   0.01002  -0.00076   0.03228   0.03152   2.79756
    R6        2.52552   0.00034  -0.01727   0.01274  -0.00453   2.52100
    R7        2.28970  -0.01237  -0.01351  -0.00927  -0.02278   2.26692
    R8        2.49253  -0.00942  -0.00223  -0.01645  -0.01869   2.47384
    R9        2.04472   0.00213  -0.00033   0.00707   0.00675   2.05147
   R10        2.04867  -0.00239   0.00055  -0.00805  -0.00750   2.04117
    A1        1.93257  -0.00030   0.00180  -0.00507  -0.00331   1.92927
    A2        1.84783   0.00048  -0.00842   0.01356   0.00513   1.85296
    A3        1.93256  -0.00030   0.00181  -0.00505  -0.00328   1.92928
    A4        1.92082   0.00061   0.00287   0.00412   0.00698   1.92781
    A5        1.90872  -0.00103  -0.00097  -0.01084  -0.01187   1.89685
    A6        1.92078   0.00061   0.00288   0.00415   0.00702   1.92779
    A7        2.00162  -0.00802  -0.01400  -0.02566  -0.03966   1.96196
    A8        2.14763   0.00113   0.00956  -0.00242   0.00715   2.15478
    A9        2.13394   0.00690   0.00444   0.02807   0.03251   2.16645
   A10        2.14753   0.00255   0.00527   0.00895   0.01423   2.16175
   A11        2.03260  -0.00395  -0.00787  -0.01877  -0.02664   2.00595
   A12        2.10306   0.00139   0.00260   0.00982   0.01242   2.11548
   A13        2.00921   0.00214  -0.01897   0.02485   0.00587   2.01508
   A14        2.25239   0.01268   0.02161   0.07085   0.09246   2.34485
    D1        1.05999  -0.00085   0.00058  -0.01025  -0.00963   1.05036
    D2        3.14150   0.00000  -0.00001   0.00000   0.00000   3.14150
    D3       -1.06024   0.00085  -0.00058   0.01029   0.00968  -1.05056
    D4        0.00006   0.00000  -0.00001  -0.00006  -0.00007  -0.00001
    D5       -3.14156   0.00000  -0.00001  -0.00002  -0.00003   3.14159
    D6       -3.14156   0.00000   0.00001   0.00002   0.00003  -3.14153
    D7        0.00000   0.00000   0.00001   0.00006   0.00007   0.00007
    D8       -3.14154   0.00000   0.00001  -0.00003  -0.00002  -3.14156
    D9        0.00008   0.00000  -0.00001  -0.00011  -0.00012  -0.00004
   D10        3.14155   0.00000   0.00000   0.00004   0.00004  -3.14159
   D11       -0.00001   0.00000   0.00000   0.00000   0.00000  -0.00001
         Item               Value     Threshold  Converged?
 Maximum Force            0.012679     0.000002     NO 
 RMS     Force            0.004613     0.000001     NO 
 Maximum Displacement     0.136342     0.000006     NO 
 RMS     Displacement     0.038147     0.000004     NO 
 Predicted change in Energy=-1.492478D-03
 GradGradGradGradGradGradGradGradGradGradGradGradGradGradGradGradGradGrad

                          Input orientation:                          
 ---------------------------------------------------------------------
 Center     Atomic      Atomic             Coordinates (Angstroms)
 Number     Number       Type             X           Y           Z
 ---------------------------------------------------------------------
      1          6           0        1.857445    0.046438   -0.645880
      2          6           0       -0.136408   -0.290379    0.514232
      3          6           0       -1.599229   -0.063289    0.527854
      4          8           0        0.448717    0.227865   -0.566857
      5          6           0       -2.247179    0.574186   -0.414231
      6          1           0        2.105668   -1.011916   -0.657148
      7          1           0        2.171322    0.519083   -1.569740
      8          1           0        2.350113    0.510615    0.204811
      9          1           0       -2.117310   -0.469033    1.391260
     10          8           0        0.450145   -0.875764    1.381602
     11          1           0       -3.283485    0.832193   -0.576103
 ---------------------------------------------------------------------
                    Distance matrix (angstroms):
                    1          2          3          4          5
     1  C    0.000000
     2  C    2.331256   0.000000
     3  C    3.652162   1.480405   0.000000
     4  O    1.422559   1.334054   2.340351   0.000000
     5  C    4.144890   2.462696   1.309099   2.722331   0.000000
     6  H    1.087131   2.630523   4.003796   2.071400   4.639181
     7  H    1.084172   3.213064   4.353862   2.014436   4.567427
     8  H    1.087133   2.630612   4.003876   2.071407   4.639218
     9  H    4.496035   2.173723   1.085590   3.302179   2.089251
    10  O    2.634698   1.199605   2.364092   2.239306   3.550060
    11  H    5.201099   3.514696   2.203935   3.780824   1.080139
                    6          7          8          9         10
     6  H    0.000000
     7  H    1.783561   0.000000
     8  H    1.766586   1.783555   0.000000
     9  H    4.724854   5.304362   4.724960   0.000000
    10  O    2.629791   3.690321   2.629974   2.599491   0.000000
    11  H    5.696514   5.553402   5.696549   2.631286   4.548595
                   11
    11  H    0.000000
 Stoichiometry    C4H5O2(2)
 Framework group  C1[X(C4H5O2)]
 Deg. of freedom    27
 Full point group                 C1      NOp   1
 Largest Abelian subgroup         C1      NOp   1
 Largest concise Abelian subgroup C1      NOp   1
                         Standard orientation:                         
 ---------------------------------------------------------------------
 Center     Atomic      Atomic             Coordinates (Angstroms)
 Number     Number       Type             X           Y           Z
 ---------------------------------------------------------------------
      1          6           0       -2.001009   -0.637900   -0.000009
      2          6           0        0.059350    0.452823    0.000030
      3          6           0        1.530932    0.291441    0.000005
      4          8           0       -0.580688   -0.717670    0.000014
      5          6           0        2.137452   -0.868677   -0.000013
      6          1           0       -2.353421   -0.111085   -0.883257
      7          1           0       -2.360791   -1.660634   -0.000118
      8          1           0       -2.353471   -0.111268    0.883329
      9          1           0        2.093152    1.220104    0.000015
     10          8           0       -0.489010    1.519759   -0.000016
     11          1           0        3.171768   -1.179949   -0.000030
 ---------------------------------------------------------------------
 Rotational constants (GHZ):      7.2469165      2.9173555      2.1072934
 Standard basis: 6-311+G(2df,2p) (5D, 7F)
 There are   249 symmetry adapted basis functions of A   symmetry.
 Integral buffers will be    131072 words long.
 Raffenetti 2 integral format.
 Two-electron integral symmetry is turned on.
   249 basis functions,   367 primitive gaussians,   279 cartesian basis functions
    23 alpha electrons       22 beta electrons
       nuclear repulsion energy       220.3295494888 Hartrees.
 NAtoms=   11 NActive=   11 NUniq=   11 SFac= 1.00D+00 NAtFMM=   50 NAOKFM=F Big=F
 One-electron integrals computed using PRISM.
 NBasis=   249 RedAO= T  NBF=   249
 NBsUse=   249 1.00D-06 NBFU=   249
 Initial guess read from the read-write file.
 B after Tr=     0.000000    0.000000    0.000000
         Rot=    1.000000    0.000000    0.000000    0.000000 Ang=   0.00 deg.
 Initial guess orbital symmetries:
 Alpha Orbitals:
       Occupied  (A) (A) (A) (A) (A) (A) (A) (A) (A) (A) (A) (A)
                 (A) (A) (A) (A) (A) (A) (A) (A) (A) (A) (A)
       Virtual   (A) (A) (A) (A) (A) (A) (A) (A) (A) (A) (A) (A)
                 (A) (A) (A) (A) (A) (A) (A) (A) (A) (A) (A) (A)
                 (A) (A) (A) (A) (A) (A) (A) (A) (A) (A) (A) (A)
                 (A) (A) (A) (A) (A) (A) (A) (A) (A) (A) (A) (A)
                 (A) (A) (A) (A) (A) (A) (A) (A) (A) (A) (A) (A)
                 (A) (A) (A) (A) (A) (A) (A) (A) (A) (A) (A) (A)
                 (A) (A) (A) (A) (A) (A) (A) (A) (A) (A) (A) (A)
                 (A) (A) (A) (A) (A) (A) (A) (A) (A) (A) (A) (A)
                 (A) (A) (A) (A) (A) (A) (A) (A) (A) (A) (A) (A)
                 (A) (A) (A) (A) (A) (A) (A) (A) (A) (A) (A) (A)
                 (A) (A) (A) (A) (A) (A) (A) (A) (A) (A) (A) (A)
                 (A) (A) (A) (A) (A) (A) (A) (A) (A) (A) (A) (A)
                 (A) (A) (A) (A) (A) (A) (A) (A) (A) (A) (A) (A)
                 (A) (A) (A) (A) (A) (A) (A) (A) (A) (A) (A) (A)
                 (A) (A) (A) (A) (A) (A) (A) (A) (A) (A) (A) (A)
                 (A) (A) (A) (A) (A) (A) (A) (A) (A) (A) (A) (A)
                 (A) (A) (A) (A) (A) (A) (A) (A) (A) (A) (A) (A)
                 (A) (A) (A) (A) (A) (A) (A) (A) (A) (A) (A) (A)
                 (A) (A) (A) (A) (A) (A) (A) (A) (A) (A)
 Beta  Orbitals:
       Occupied  (A) (A) (A) (A) (A) (A) (A) (A) (A) (A) (A) (A)
                 (A) (A) (A) (A) (A) (A) (A) (A) (A) (A)
       Virtual   (A) (A) (A) (A) (A) (A) (A) (A) (A) (A) (A) (A)
                 (A) (A) (A) (A) (A) (A) (A) (A) (A) (A) (A) (A)
                 (A) (A) (A) (A) (A) (A) (A) (A) (A) (A) (A) (A)
                 (A) (A) (A) (A) (A) (A) (A) (A) (A) (A) (A) (A)
                 (A) (A) (A) (A) (A) (A) (A) (A) (A) (A) (A) (A)
                 (A) (A) (A) (A) (A) (A) (A) (A) (A) (A) (A) (A)
                 (A) (A) (A) (A) (A) (A) (A) (A) (A) (A) (A) (A)
                 (A) (A) (A) (A) (A) (A) (A) (A) (A) (A) (A) (A)
                 (A) (A) (A) (A) (A) (A) (A) (A) (A) (A) (A) (A)
                 (A) (A) (A) (A) (A) (A) (A) (A) (A) (A) (A) (A)
                 (A) (A) (A) (A) (A) (A) (A) (A) (A) (A) (A) (A)
                 (A) (A) (A) (A) (A) (A) (A) (A) (A) (A) (A) (A)
                 (A) (A) (A) (A) (A) (A) (A) (A) (A) (A) (A) (A)
                 (A) (A) (A) (A) (A) (A) (A) (A) (A) (A) (A) (A)
                 (A) (A) (A) (A) (A) (A) (A) (A) (A) (A) (A) (A)
                 (A) (A) (A) (A) (A) (A) (A) (A) (A) (A) (A) (A)
                 (A) (A) (A) (A) (A) (A) (A) (A) (A) (A) (A) (A)
                 (A) (A) (A) (A) (A) (A) (A) (A) (A) (A) (A) (A)
                 (A) (A) (A) (A) (A) (A) (A) (A) (A) (A) (A)
 Initial guess <Sx>= 0.0000 <Sy>= 0.0000 <Sz>= 0.5000 <S**2>= 0.8065 S= 0.5278
 Harris functional with IExCor= 1009 diagonalized for initial guess.
 ExpMin= 4.38D-02 ExpMax= 8.59D+03 ExpMxC= 1.30D+03 IAcc=2 IRadAn=         0 AccDes= 0.00D+00
 HarFok:  IExCor= 1009 AccDes= 0.00D+00 IRadAn=         0 IDoV= 1
 ScaDFX=  1.000000  1.000000  1.000000  1.000000
 FoFCou: FMM=F IPFlag=           0 FMFlag=      100000 FMFlg1=           0
         NFxFlg=           0 DoJE=T BraDBF=F KetDBF=T FulRan=T
         Omega=  0.000000  0.000000  1.000000  0.000000  0.000000 ICntrl=     500 IOpCl=  0
         NMat0=    1 NMatS0=    1 NMatT0=    0 NMatD0=    1 NMtDS0=    0 NMtDT0=    0
         I1Cent=           4 NGrid=           0.
 Petite list used in FoFCou.
 Requested convergence on RMS density matrix=1.00D-08 within 128 cycles.
 Requested convergence on MAX density matrix=1.00D-06.
 Requested convergence on             energy=1.00D-06.
 No special actions if energy rises.
 SCF Done:  E(UM062X) =  -305.759504123     A.U. after   18 cycles
             Convg  =    0.3489D-08             -V/T =  2.0033
 <Sx>= 0.0000 <Sy>= 0.0000 <Sz>= 0.5000 <S**2>= 0.7697 S= 0.5098
 <L.S>= 0.000000000000E+00
 Annihilation of the first spin contaminant:
 S**2 before annihilation     0.7697,   after     0.7501
 Calling FoFJK, ICntrl=      2127 FMM=F ISym2X=0 I1Cent= 0 IOpClX= 1 NMat=1 NMatS=1 NMatT=0.
 ***** Axes restored to original set *****
 -------------------------------------------------------------------
 Center     Atomic                   Forces (Hartrees/Bohr)
 Number     Number              X              Y              Z
 -------------------------------------------------------------------
      1        6           0.001632542   -0.000266520    0.000007629
      2        6           0.000390507   -0.000044063   -0.000055075
      3        6          -0.005324725    0.002569702   -0.003019989
      4        8           0.000816993    0.001008023   -0.002003968
      5        6          -0.001015066   -0.001704295    0.003297671
      6        1          -0.000247851   -0.001124641   -0.000058513
      7        1          -0.000406541    0.000303871   -0.000421818
      8        1           0.000036614    0.000653864    0.000948798
      9        1           0.000718416   -0.000748215    0.001116581
     10        8           0.001755723   -0.001012027    0.001298547
     11        1           0.001643388    0.000364300   -0.001109864
 -------------------------------------------------------------------
 Cartesian Forces:  Max     0.005324725 RMS     0.001583575

 GradGradGradGradGradGradGradGradGradGradGradGradGradGradGradGradGradGrad
 Berny optimization.
 Using GDIIS optimizer.
 Internal  Forces:  Max     0.004006781 RMS     0.001340151
 Search for a local minimum.
 Step number   3 out of a maximum of   45
 All quantities printed in internal units (Hartrees-Bohrs-Radians)
 Swaping is turned off.
 Update second derivatives using D2CorX and points    1    2    3
 DE= -1.64D-03 DEPred=-1.49D-03 R= 1.10D+00
 SS=  1.41D+00  RLast= 1.25D-01 DXNew= 8.4853D-01 3.7367D-01
 Trust test= 1.10D+00 RLast= 1.25D-01 DXMaxT set to 5.05D-01
 ITU=  1  1  0
     Eigenvalues ---    0.01209   0.01375   0.01394   0.01701   0.01873
     Eigenvalues ---    0.03053   0.10242   0.10633   0.11903   0.16000
     Eigenvalues ---    0.16000   0.16111   0.16196   0.21975   0.24994
     Eigenvalues ---    0.25934   0.27770   0.32533   0.32605   0.32854
     Eigenvalues ---    0.35485   0.35655   0.35796   0.42480   0.50345
     Eigenvalues ---    0.58931   0.80290
 DIIS coeff's:      1.12676     -0.13198      0.00523
 Cosine:  1.000 >  0.840
 Length:  1.009
 GDIIS step was calculated using  3 of the last  3 vectors.
 Iteration  1 RMS(Cart)=  0.01084301 RMS(Int)=  0.00010711
 Iteration  2 RMS(Cart)=  0.00012546 RMS(Int)=  0.00000469
 Iteration  3 RMS(Cart)=  0.00000000 RMS(Int)=  0.00000469
 Variable       Old X    -DE/DX   Delta X   Delta X   Delta X     New X
                                  (DIIS)     (GDIIS)  (Total)
    R1        2.68825   0.00103   0.00293   0.00105   0.00398   2.69223
    R2        2.05438   0.00104  -0.00104   0.00354   0.00250   2.05688
    R3        2.04879   0.00037  -0.00067   0.00100   0.00033   2.04912
    R4        2.05438   0.00104  -0.00104   0.00354   0.00250   2.05688
    R5        2.79756   0.00401   0.00402   0.01041   0.01443   2.81199
    R6        2.52100   0.00227   0.00005   0.00379   0.00384   2.52483
    R7        2.26692   0.00229  -0.00240   0.00300   0.00060   2.26753
    R8        2.47384  -0.00254  -0.00229  -0.00386  -0.00615   2.46769
    R9        2.05147   0.00083   0.00087   0.00215   0.00302   2.05448
   R10        2.04117  -0.00132  -0.00097  -0.00362  -0.00459   2.03657
    A1        1.92927  -0.00048  -0.00048  -0.00285  -0.00335   1.92592
    A2        1.85296  -0.00063   0.00095  -0.00590  -0.00495   1.84800
    A3        1.92928  -0.00048  -0.00048  -0.00287  -0.00336   1.92592
    A4        1.92781   0.00048   0.00078   0.00313   0.00390   1.93171
    A5        1.89685   0.00060  -0.00147   0.00512   0.00363   1.90048
    A6        1.92779   0.00048   0.00079   0.00313   0.00391   1.93170
    A7        1.96196   0.00198  -0.00452   0.00955   0.00503   1.96699
    A8        2.15478  -0.00016   0.00056   0.00001   0.00057   2.15534
    A9        2.16645  -0.00183   0.00396  -0.00956  -0.00560   2.16085
   A10        2.16175   0.00002   0.00161  -0.00013   0.00149   2.16324
   A11        2.00595  -0.00132  -0.00309  -0.00858  -0.01167   1.99428
   A12        2.11548   0.00131   0.00148   0.00871   0.01019   2.12567
   A13        2.01508  -0.00144   0.00143  -0.00901  -0.00758   2.00750
   A14        2.34485   0.00310   0.01094   0.01875   0.02969   2.37453
    D1        1.05036   0.00006  -0.00124   0.00136   0.00012   1.05048
    D2        3.14150   0.00000   0.00000   0.00002   0.00002   3.14152
    D3       -1.05056  -0.00006   0.00125  -0.00131  -0.00006  -1.05062
    D4       -0.00001   0.00000  -0.00001   0.00022   0.00022   0.00020
    D5        3.14159   0.00000   0.00000   0.00018   0.00018  -3.14142
    D6       -3.14153   0.00000   0.00000  -0.00020  -0.00020   3.14146
    D7        0.00007   0.00000   0.00001  -0.00025  -0.00024  -0.00016
    D8       -3.14156   0.00000   0.00000  -0.00018  -0.00018   3.14144
    D9       -0.00004   0.00000  -0.00002   0.00025   0.00023   0.00019
   D10       -3.14159   0.00000   0.00001  -0.00003  -0.00003   3.14157
   D11       -0.00001   0.00000   0.00000   0.00001   0.00001   0.00000
         Item               Value     Threshold  Converged?
 Maximum Force            0.004007     0.000002     NO 
 RMS     Force            0.001340     0.000001     NO 
 Maximum Displacement     0.024347     0.000006     NO 
 RMS     Displacement     0.010808     0.000004     NO 
 Predicted change in Energy=-1.317500D-04
 GradGradGradGradGradGradGradGradGradGradGradGradGradGradGradGradGradGrad

                          Input orientation:                          
 ---------------------------------------------------------------------
 Center     Atomic      Atomic             Coordinates (Angstroms)
 Number     Number       Type             X           Y           Z
 ---------------------------------------------------------------------
      1          6           0        1.861080    0.045103   -0.644551
      2          6           0       -0.134965   -0.287680    0.508719
      3          6           0       -1.605841   -0.063281    0.529712
      4          8           0        0.450434    0.231650   -0.574205
      5          6           0       -2.260063    0.571256   -0.405480
      6          1           0        2.102520   -1.016201   -0.653264
      7          1           0        2.177173    0.517304   -1.568089
      8          1           0        2.347463    0.510128    0.210972
      9          1           0       -2.108333   -0.475884    1.401052
     10          8           0        0.458097   -0.871989    1.372825
     11          1           0       -3.287766    0.839595   -0.587891
 ---------------------------------------------------------------------
                    Distance matrix (angstroms):
                    1          2          3          4          5
     1  C    0.000000
     2  C    2.329157   0.000000
     3  C    3.661992   1.488043   0.000000
     4  O    1.424666   1.336084   2.352420   0.000000
     5  C    4.161468   2.467706   1.305844   2.736894   0.000000
     6  H    1.088455   2.624364   4.007421   2.071900   4.649037
     7  H    1.084348   3.210469   4.364520   2.012717   4.587334
     8  H    1.088455   2.624424   4.007369   2.071901   4.648983
     9  H    4.495793   2.173904   1.087186   3.309007   2.093582
    10  O    2.622828   1.199924   2.371642   2.238080   3.554394
    11  H    5.210091   3.523274   2.212034   3.787337   1.077708
                    6          7          8          9         10
     6  H    0.000000
     7  H    1.787208   0.000000
     8  H    1.771039   1.787206   0.000000
     9  H    4.716295   5.307332   4.716209   0.000000
    10  O    2.613419   3.678903   2.613399   2.596971   0.000000
    11  H    5.701178   5.561494   5.701100   2.660346   4.561296
                   11
    11  H    0.000000
 Stoichiometry    C4H5O2(2)
 Framework group  C1[X(C4H5O2)]
 Deg. of freedom    27
 Full point group                 C1      NOp   1
 Largest Abelian subgroup         C1      NOp   1
 Largest concise Abelian subgroup C1      NOp   1
                         Standard orientation:                         
 ---------------------------------------------------------------------
 Center     Atomic      Atomic             Coordinates (Angstroms)
 Number     Number       Type             X           Y           Z
 ---------------------------------------------------------------------
      1          6           0       -2.004370   -0.634638    0.000035
      2          6           0        0.057436    0.448843   -0.000125
      3          6           0        1.537548    0.295416    0.000022
      4          8           0       -0.582510   -0.724013   -0.000025
      5          6           0        2.151137   -0.857293    0.000005
      6          1           0       -2.350297   -0.104582   -0.885465
      7          1           0       -2.365967   -1.656919    0.000040
      8          1           0       -2.350226   -0.104602    0.885575
      9          1           0        2.084127    1.235216    0.000120
     10          8           0       -0.498002    1.512472    0.000029
     11          1           0        3.175956   -1.190758    0.000072
 ---------------------------------------------------------------------
 Rotational constants (GHZ):      7.2935906      2.8961424      2.1002287
 Standard basis: 6-311+G(2df,2p) (5D, 7F)
 There are   249 symmetry adapted basis functions of A   symmetry.
 Integral buffers will be    131072 words long.
 Raffenetti 2 integral format.
 Two-electron integral symmetry is turned on.
   249 basis functions,   367 primitive gaussians,   279 cartesian basis functions
    23 alpha electrons       22 beta electrons
       nuclear repulsion energy       220.0971822730 Hartrees.
 NAtoms=   11 NActive=   11 NUniq=   11 SFac= 1.00D+00 NAtFMM=   50 NAOKFM=F Big=F
 One-electron integrals computed using PRISM.
 NBasis=   249 RedAO= T  NBF=   249
 NBsUse=   249 1.00D-06 NBFU=   249
 Initial guess read from the read-write file.
 B after Tr=     0.000000    0.000000    0.000000
         Rot=    1.000000    0.000000    0.000000    0.000000 Ang=   0.00 deg.
 Initial guess orbital symmetries:
 Alpha Orbitals:
       Occupied  (A) (A) (A) (A) (A) (A) (A) (A) (A) (A) (A) (A)
                 (A) (A) (A) (A) (A) (A) (A) (A) (A) (A) (A)
       Virtual   (A) (A) (A) (A) (A) (A) (A) (A) (A) (A) (A) (A)
[...]
     8   1     0.21  -0.35  -0.57    -0.09   0.13   0.26     0.00   0.00   0.00
     9   1     0.00   0.00   0.00     0.00   0.00   0.00    -0.04  -0.07   0.00
    10   8     0.00   0.00   0.00     0.00   0.00   0.00     0.00   0.00   0.00
    11   1     0.00   0.00   0.00     0.00   0.00   0.00    -0.93   0.34   0.00

 -------------------
 - Thermochemistry -
 -------------------
 Temperature   298.150 Kelvin.  Pressure   1.00000 Atm.
 Atom     1 has atomic number  6 and mass  12.00000
 Atom     2 has atomic number  6 and mass  12.00000
 Atom     3 has atomic number  6 and mass  12.00000
 Atom     4 has atomic number  8 and mass  15.99491
 Atom     5 has atomic number  6 and mass  12.00000
 Atom     6 has atomic number  1 and mass   1.00783
 Atom     7 has atomic number  1 and mass   1.00783
 Atom     8 has atomic number  1 and mass   1.00783
 Atom     9 has atomic number  1 and mass   1.00783
 Atom    10 has atomic number  8 and mass  15.99491
 Atom    11 has atomic number  1 and mass   1.00783
 Molecular mass:    85.02895 amu.
 Principal axes and moments of inertia in atomic units:
                           1         2         3
     Eigenvalues --   247.92783 622.34641 858.97713
           X            0.99954   0.03024   0.00000
           Y           -0.03024   0.99954   0.00000
           Z            0.00000   0.00000   1.00000
 This molecule is an asymmetric top.
 Rotational symmetry number  1.
 Rotational temperatures (Kelvin)      0.34935     0.13917     0.10083
 Rotational constants (GHZ):           7.27930     2.89990     2.10104
 Zero-point vibrational energy     215897.8 (Joules/Mol)
                                   51.60081 (Kcal/Mol)
 Warning -- explicit consideration of   7 degrees of freedom as
           vibrations may cause significant error
 Vibrational temperatures:    145.92   220.68   264.38   307.90   491.95
          (Kelvin)            770.66   806.32   900.00  1191.91  1205.62
                             1294.39  1317.42  1604.77  1711.33  1753.12
                             1786.77  1912.32  2133.67  2146.61  2175.62
                             2420.29  2641.12  4426.34  4498.22  4534.34
                             4583.76  4687.60
 
 Zero-point correction=                           0.082231 (Hartree/Particle)
 Thermal correction to Energy=                    0.088801
 Thermal correction to Enthalpy=                  0.089745
 Thermal correction to Gibbs Free Energy=         0.051287
 Sum of electronic and zero-point Energies=           -305.677436
 Sum of electronic and thermal Energies=              -305.670867
 Sum of electronic and thermal Enthalpies=            -305.669923
 Sum of electronic and thermal Free Energies=         -305.708380
 
                     E (Thermal)             CV                S
                      KCal/Mol        Cal/Mol-Kelvin    Cal/Mol-Kelvin
 Total                   55.723             21.799             80.941
 Electronic               0.000              0.000              1.377
 Translational            0.889              2.981             39.235
 Rotational               0.889              2.981             26.386
 Vibrational             53.946             15.837             13.943
 Vibration     1          0.604              1.948              3.427
 Vibration     2          0.619              1.899              2.630
 Vibration     3          0.631              1.862              2.290
 Vibration     4          0.644              1.820              2.009
 Vibration     5          0.721              1.592              1.203
 Vibration     6          0.891              1.171              0.575
 Vibration     7          0.916              1.117              0.523
                       Q            Log10(Q)             Ln(Q)
 Total Bot       0.256771D-23        -23.590454        -54.319028
 Total V=0       0.171064D+15         14.233158         32.773057
 Vib (Bot)       0.319664D-36        -36.495306        -84.033547
 Vib (Bot)    1  0.202301D+01          0.305997          0.704584
 Vib (Bot)    2  0.132068D+01          0.120798          0.278147
 Vib (Bot)    3  0.109160D+01          0.038065          0.087647
 Vib (Bot)    4  0.926597D+00         -0.033109         -0.076237
 Vib (Bot)    5  0.542397D+00         -0.265682         -0.611756
 Vib (Bot)    6  0.297010D+00         -0.527229         -1.213990
 Vib (Bot)    7  0.277220D+00         -0.557175         -1.282942
 Vib (V=0)       0.212964D+02          1.328306          3.058538
 Vib (V=0)    1  0.258388D+01          0.412272          0.949292
 Vib (V=0)    2  0.191216D+01          0.281524          0.648234
 Vib (V=0)    3  0.170067D+01          0.230619          0.531020
 Vib (V=0)    4  0.155289D+01          0.191141          0.440119
 Vib (V=0)    5  0.123770D+01          0.092614          0.213251
 Vib (V=0)    6  0.108156D+01          0.034052          0.078407
 Vib (V=0)    7  0.107171D+01          0.030077          0.069255
 Electronic      0.200000D+01          0.301030          0.693147
 Translational   0.308181D+08          7.488805         17.243612
 Rotational      0.130321D+06          5.115016         11.777759
 ***** Axes restored to original set *****
 -------------------------------------------------------------------
 Center     Atomic                   Forces (Hartrees/Bohr)
 Number     Number              X              Y              Z
 -------------------------------------------------------------------
      1        6          -0.000000228   -0.000000441    0.000000913
      2        6          -0.000000395    0.000000179   -0.000000028
      3        6          -0.000000032    0.000000472   -0.000000703
      4        8           0.000000404   -0.000000278    0.000000218
      5        6           0.000000392    0.000000420   -0.000000835
      6        1           0.000000061   -0.000000561    0.000000881
      7        1           0.000000841   -0.000000609    0.000000834
      8        1           0.000000057   -0.000000532    0.000000941
      9        1          -0.000000681    0.000000537   -0.000000865
     10        8          -0.000000841    0.000000090    0.000000066
     11        1           0.000000422    0.000000723   -0.000001422
 -------------------------------------------------------------------
 Cartesian Forces:  Max     0.000001422 RMS     0.000000610

 GradGradGradGradGradGradGradGradGradGradGradGradGradGradGradGradGradGrad
 Berny optimization.
 Internal  Forces:  Max     0.000000351 RMS     0.000000122
 Search for a local minimum.
 Step number   1 out of a maximum of    2
 All quantities printed in internal units (Hartrees-Bohrs-Radians)
 Swaping is turned off.
 Second derivative matrix not updated -- analytic derivatives used.
 ITU=  0
     Eigenvalues ---    0.00309   0.00331   0.01751   0.02164   0.02877
     Eigenvalues ---    0.06997   0.07556   0.08313   0.08518   0.10783
     Eigenvalues ---    0.13299   0.14162   0.18823   0.18879   0.21118
     Eigenvalues ---    0.25065   0.26206   0.34398   0.34664   0.34782
     Eigenvalues ---    0.35442   0.37067   0.37534   0.39564   0.49299
     Eigenvalues ---    0.66354   0.91579
 Angle between quadratic step and forces=  78.22 degrees.
 Linear search not attempted -- option 19 set.
 Iteration  1 RMS(Cart)=  0.00000406 RMS(Int)=  0.00000000
 Iteration  2 RMS(Cart)=  0.00000000 RMS(Int)=  0.00000000
 Variable       Old X    -DE/DX   Delta X   Delta X   Delta X     New X
                                 (Linear)    (Quad)   (Total)
    R1        2.69375   0.00000   0.00000   0.00000   0.00000   2.69374
    R2        2.05684   0.00000   0.00000   0.00000   0.00000   2.05684
    R3        2.04968   0.00000   0.00000   0.00000   0.00000   2.04968
    R4        2.05684   0.00000   0.00000   0.00000   0.00000   2.05684
    R5        2.81141   0.00000   0.00000   0.00000   0.00000   2.81141
    R6        2.52489   0.00000   0.00000   0.00000   0.00000   2.52489
    R7        2.26908   0.00000   0.00000   0.00000   0.00000   2.26908
    R8        2.46693   0.00000   0.00000   0.00000   0.00000   2.46693
    R9        2.05430   0.00000   0.00000   0.00000   0.00000   2.05430
   R10        2.03574   0.00000   0.00000   0.00000   0.00000   2.03574
    A1        1.92545   0.00000   0.00000   0.00000   0.00000   1.92545
    A2        1.84786   0.00000   0.00000   0.00000   0.00000   1.84786
    A3        1.92545   0.00000   0.00000   0.00000   0.00000   1.92545
    A4        1.93167   0.00000   0.00000   0.00000   0.00000   1.93167
    A5        1.90160   0.00000   0.00000   0.00000   0.00000   1.90160
    A6        1.93167   0.00000   0.00000   0.00000   0.00000   1.93167
    A7        1.96975   0.00000   0.00000   0.00000   0.00000   1.96975
    A8        2.15130   0.00000   0.00000   0.00000   0.00000   2.15130
    A9        2.16214   0.00000   0.00000   0.00000   0.00000   2.16214
   A10        2.15767   0.00000   0.00000   0.00000   0.00000   2.15767
   A11        1.98891   0.00000   0.00000   0.00000   0.00000   1.98891
   A12        2.13661   0.00000   0.00000   0.00000   0.00000   2.13661
   A13        2.00865   0.00000   0.00000   0.00000   0.00000   2.00865
   A14        2.38539   0.00000   0.00000   0.00000   0.00000   2.38539
    D1        1.05092   0.00000   0.00000   0.00001   0.00001   1.05093
    D2        3.14158   0.00000   0.00000   0.00001   0.00001   3.14159
    D3       -1.05095   0.00000   0.00000   0.00001   0.00001  -1.05094
    D4        0.00000   0.00000   0.00000   0.00000   0.00000   0.00000
    D5       -3.14159   0.00000   0.00000  -0.00001  -0.00001   3.14159
    D6       -3.14159   0.00000   0.00000   0.00000   0.00000   3.14159
    D7        0.00000   0.00000   0.00000   0.00000   0.00000   0.00000
    D8       -3.14159   0.00000   0.00000   0.00000   0.00000  -3.14159
    D9        0.00000   0.00000   0.00000   0.00000   0.00000   0.00000
   D10       -3.14159   0.00000   0.00000   0.00000   0.00000   3.14159
   D11        0.00000   0.00000   0.00000   0.00000   0.00000   0.00000
         Item               Value     Threshold  Converged?
 Maximum Force            0.000000     0.000002     YES
 RMS     Force            0.000000     0.000001     YES
 Maximum Displacement     0.000011     0.000006     NO 
 RMS     Displacement     0.000004     0.000004     NO 
 Predicted change in Energy=-1.397255D-12
 GradGradGradGradGradGradGradGradGradGradGradGradGradGradGradGradGradGrad


 Test job not archived.
 1\1\GINC-COMPUTE-3-045\Freq\UM062X\6-311+G(2df,2p)\C4H5O2(2)\ROOT\09-M
 ar-2017\0\\#N Geom=AllCheck Guess=TCheck SCRF=Check Test GenChk UM062X
 /6-311+G(2df,2p) Freq\\InChI=1S/C4H5O2/c1-3-4(5)6-2/h1,3H,2H3/u1\\0,2\
 C,1.8601659014,0.0456445772,-0.6452707017\C,-0.1369471942,-0.287460021
 3,0.5092007006\C,-1.607767541,-0.065065719,0.5334222696\O,0.4487052565
 ,0.2317027331,-0.5737023193\C,-2.2584054638,0.5698620398,-0.4034430629
 \H,2.1015107517,-1.0156533984,-0.6546844178\H,2.1752456094,0.518260982
 ,-1.5692912461\H,2.3466231925,0.5112446104,0.2098699545\H,-2.102679763
 3,-0.4805958006,1.4075871169\O,0.4549488053,-0.8725576092,1.3747103869
 \H,-3.2815995545,0.8446176061,-0.5985986806\\Version=EM64L-G09RevB.01\
 State=2-A\HF=-305.7596673\S2=0.769383\S2-1=0.\S2A=0.750116\RMSD=8.152e
 -09\RMSF=6.102e-07\ZeroPoint=0.0822311\Thermal=0.0888005\Dipole=-0.323
 4389,0.3594948,-0.5431928\DipoleDeriv=0.8118291,0.017867,-0.1856501,-0
 .0418385,0.2672628,0.0136582,-0.08021,-0.0032701,0.2967949,1.7056814,-
 0.2787774,0.1067664,0.0266156,0.6923968,-0.619914,-0.4325751,-0.533334
 ,1.4101845,-0.4549048,0.1437951,-0.169654,0.1348086,-0.1697023,-0.0167
 795,-0.1537832,-0.0193274,-0.0798306,-1.2949371,-0.0715137,0.4159502,-
 0.1581325,-0.4065392,0.2802441,0.5689264,0.2556874,-0.8860894,0.017052
 1,-0.0782587,0.0909467,-0.0597812,-0.1005557,-0.0697719,0.0583134,-0.0
 645332,-0.0522218,-0.023236,-0.0292438,0.0334274,0.0626472,-0.0703615,
 -0.0327812,-0.0051931,0.0066306,0.0716568,0.0137603,-0.0000351,0.02085
 86,-0.0309825,0.0539121,0.067427,0.0755157,0.0586534,-0.0378806,-0.036
 3565,-0.0108115,0.0310998,-0.0211342,0.0316413,-0.0545438,-0.0743362,-
 0.0708295,-0.0172287,0.0370466,0.0095577,0.0144122,0.0002141,0.117721,
 0.0523919,0.030914,0.0497431,0.0508074,-0.8219978,0.2568998,-0.325572,
 0.0938875,-0.5892907,0.3605674,-0.0376828,0.314353,-0.914535,0.0460628
 ,0.0405207,-0.0325852,-0.006304,0.1735153,0.0195019,0.0501109,0.006226
 7,0.1583425\Polar=65.775383,-6.6326253,43.7427265,3.7013703,-9.1205483
 ,52.5717465\PG=C01 [X(C4H5O2)]\NImag=0\\0.47452853,0.02077613,0.599847
 22,-0.00305484,-0.01767417,0.62525339,-0.04177923,-0.01766436,0.043531
 50,0.72385359,-0.01415174,0.00478218,-0.00137643,-0.15185066,0.4072457
 8,0.03732812,-0.00038080,-0.00817982,0.12301450,-0.30207436,0.71042949
 ,0.00500135,-0.00063045,0.00118510,-0.19859137,0.00949912,0.01695238,0
 .57760304,-0.00005941,0.00303509,0.00393601,0.00202350,-0.07873728,-0.
 00213531,-0.11318441,0.30350919,0.00017663,0.00409791,-0.00203291,0.03
 015487,-0.00425472,-0.08065659,0.06770200,-0.30730206,0.63485767,-0.22
 112945,0.03448420,-0.01712256,-0.16398032,-0.02626030,0.07343107,-0.03
 562762,-0.01377334,0.03746364,0.48741849,0.02000636,-0.07619295,0.0110
 7370,-0.01706739,-0.10243069,0.06466948,-0.00223194,0.01059907,0.00084
 320,-0.00699475,0.16193721,0.00844600,0.00696924,-0.08141325,0.0571960
 6,0.06727576,-0.20357993,0.01708093,0.00411523,-0.00139196,-0.10328501
 ,-0.14355237,0.36233237,-0.00018381,0.00020634,-0.00041564,-0.01542216
 ,0.01701212,-0.02823669,-0.20952413,0.14120828,-0.20086493,-0.00309996
 ,0.00065278,0.00014954,0.55967555,0.00018039,-0.00040526,0.00002089,0.
 01447619,-0.01233635,0.00170799,0.12019126,-0.17038070,0.19903467,-0.0
 0189806,0.00054358,0.00221661,-0.23101695,0.22244250,-0.00036979,0.000
 01353,-0.00028353,-0.02375803,0.00098904,-0.00405657,-0.16374748,0.193
 07626,-0.33294913,0.00465446,0.00149344,-0.00246305,0.26454424,-0.2325
 1773,0.38934093,-0.05724498,0.04161314,-0.00006609,0.00158069,0.005371
 80,-0.00678355,-0.00062480,-0.00090212,-0.00028929,-0.02659489,0.03709
 590,0.00571850,-0.00000754,0.00000577,0.00008664,0.07336931,0.05080468
 ,-0.31298810,-0.00423006,-0.00098451,-0.00071984,0.00321916,0.00012928
 ,-0.00034984,-0.00051052,0.00830255,0.00323733,-0.00067700,-0.00012285
 ,0.00003117,-0.00002908,-0.05973112,0.33275036,-0.00046018,-0.00111350
 ,-0.05114959,0.00149313,-0.00265553,0.00291175,-0.00003935,0.00037580,
 0.00002712,0.00170807,-0.00119840,-0.00055863,0.00003169,0.00001456,-0
 .00004315,-0.00009732,0.00291036,0.04624938,-0.06367534,-0.02942758,0.
 05493393,-0.00608125,0.00371063,-0.00475085,-0.00064306,-0.00063024,0.
 00133932,-0.02630036,-0.01697847,0.03742916,0.00007937,-0.00008112,0.0
 0012493,0.00324512,0.00111794,-0.00593206,0.08520255,-0.03620999,-0.10
 795680,0.10692250,0.00185435,-0.00037827,0.00062877,0.00008271,0.00022
 542,-0.00014735,0.00335908,0.00311879,-0.00654039,-0.00004027,0.000029
 43,-0.00001457,-0.00860317,-0.01033180,0.02689671,0.03537417,0.1068659
 3,0.06691236,0.10499957,-0.25763926,-0.00147277,0.00010241,0.00051208,
 0.00008027,0.00005476,0.00003579,0.00151122,-0.00077440,0.00089413,0.0
 0005279,-0.00000299,0.00000503,-0.00180665,-0.00144684,0.00271724,-0.0
 7316155,-0.11486416,0.27111110,-0.09297459,-0.04633710,-0.08339027,0.0
 0117314,0.00332792,-0.00902572,-0.00038172,0.00068939,0.00070297,-0.03
 586003,-0.01522230,-0.02273741,0.00000503,-0.00008319,0.00005117,0.005
 02538,0.00173032,0.00496795,0.00600441,0.00519186,0.00652643,0.1152338
 5,-0.05039890,-0.10479596,-0.09519281,-0.00109782,0.00165705,-0.002193
 18,0.00005863,-0.00030919,0.00007994,0.00316122,0.00483494,0.00750038,
 0.00003629,-0.00001936,0.00003508,-0.01318711,-0.01252088,-0.02577081,
 0.00739725,0.00764512,0.01198432,0.05228947,0.10382330,-0.09205569,-0.
 09685493,-0.22361058,0.00173942,0.00062463,0.00094240,-0.00025458,-0.0
 0069277,-0.00025664,-0.00034186,0.00507049,0.00710906,0.00012226,-0.00
 001116,-0.00000519,0.00085621,0.00123192,0.00045598,-0.01041169,-0.012
 97803,-0.01801901,0.10025132,0.10328494,0.23331045,0.00038861,-0.00056
 681,0.00107803,-0.01078403,-0.01194313,0.02674451,-0.10657211,-0.04418
 693,0.09748646,-0.00735961,0.00104131,0.00043906,0.00905435,0.00937698
 ,-0.01399026,-0.00013830,0.00005286,0.00005291,-0.00049238,0.00006281,
 0.00001907,-0.00012738,-0.00004503,0.00000334,0.11357359,0.00019722,0.
 00056494,0.00011250,0.00400101,0.00840598,0.00018434,-0.05008685,-0.07
 913706,0.08690511,0.00134554,0.00045272,0.00001256,-0.00261436,0.00620
 859,0.02177719,-0.00008463,0.00000016,-0.00001876,0.00007270,-0.000027
 51,-0.00003176,0.00007916,-0.00001298,0.00001030,0.04756470,0.06816855
 ,-0.00027128,0.00032911,0.00015598,-0.00141394,0.00470460,0.00124487,0
 .10790614,0.08523245,-0.21908734,-0.00009823,0.00009880,0.00052918,0.0
 0718724,0.01837758,-0.01637385,-0.00000448,0.00001017,-0.00001086,0.00
 000160,-0.00002896,0.00001686,0.00008423,-0.00002240,-0.00000864,-0.11
 141441,-0.10405624,0.23224115,-0.00314959,-0.00242121,0.00339296,-0.29
 030506,0.16317163,-0.22854691,-0.03290792,0.03297278,-0.04236059,0.032
 87643,-0.00018872,-0.00041153,-0.00714862,-0.00077267,0.00433721,0.001
 41063,-0.00132088,-0.00170262,0.00269144,-0.00106761,0.00132260,0.0019
 3450,0.00176870,0.00010383,0.00284543,-0.00058668,-0.00044475,0.292599
 92,0.00877392,-0.00575200,-0.00339455,0.16631071,-0.23644447,0.2291451
 8,0.02142306,0.00754566,0.02135104,-0.00149514,-0.00542364,0.06342369,
 0.00091377,0.00430105,-0.00196238,-0.00159760,0.00084536,0.00057045,-0
 .00056552,0.00081142,-0.00002484,-0.00160856,-0.00031083,0.00027096,0.
 00012390,-0.00159780,-0.00141299,-0.19223319,0.23841115,-0.01637850,-0
 .00022058,-0.00123265,-0.23409070,0.23003509,-0.41988609,-0.02196318,0
 .01807663,-0.00262340,0.00189571,0.06305326,-0.08164397,0.00135886,-0.
 00148426,0.00557264,0.00231660,-0.00047792,-0.00058429,0.00043602,0.00
 011750,0.00037546,0.00253778,0.00028341,0.00004787,-0.00169970,-0.0012
 1153,0.00024353,0.26606867,-0.30719802,0.50070332,0.00021851,-0.000032
 31,-0.00007213,0.00033601,0.00211262,-0.00012687,0.00226833,-0.0041575
 0,0.00848892,-0.00034268,-0.00011279,-0.00002529,-0.33342807,0.0896213
 9,-0.07193308,-0.00002062,0.00002172,-0.00002222,-0.00003050,-0.000003
 96,0.00001625,-0.00003258,0.00001733,-0.00001257,-0.00038816,0.0001122
 0,-0.00153211,-0.00084716,-0.00004536,-0.00048157,0.33226693,0.0000813
 4,-0.00013835,-0.00019759,-0.00000102,0.00895589,0.00722873,0.01474959
 ,0.00399964,-0.00009722,-0.00023100,-0.00067635,-0.00074371,0.07376483
 ,-0.05041464,0.01713924,0.00001913,0.00004607,-0.00001090,0.00001022,-
 0.00000173,0.00000394,-0.00005697,0.00000880,0.00004364,-0.00148066,-0
 .00302560,-0.00323213,0.00067786,-0.00238590,-0.00097359,-0.08753332,0
 .04363216,-0.00027284,-0.00016537,0.00013223,0.00360596,0.00662951,0.0
 0031840,-0.02490224,0.00526301,0.00407741,0.00018348,-0.00077722,0.000
 18606,-0.04392936,0.01264383,-0.03874411,0.00006944,-0.00000019,-0.000
 01493,-0.00000880,0.00000796,-0.00000942,0.00003155,0.00001113,0.00003
 430,0.00128098,-0.00368372,0.00104911,-0.00175885,-0.00076854,-0.00097
 241,0.06570066,-0.01916040,0.03394337\\0.00000023,0.00000044,-0.000000
 91,0.00000040,-0.00000018,0.00000003,0.00000003,-0.00000047,0.00000070
 ,-0.00000040,0.00000028,-0.00000022,-0.00000039,-0.00000042,0.00000083
 ,-0.00000006,0.00000056,-0.00000088,-0.00000084,0.00000061,-0.00000083
 ,-0.00000006,0.00000053,-0.00000094,0.00000068,-0.00000054,0.00000087,
 0.00000084,-0.00000009,-0.00000007,-0.00000042,-0.00000072,0.00000142\
 \\@


 WERE I TO AWAIT PERFECTION, MY BOOK WOULD NEVER BE FINISHED.
                                    -- HISTORY OF CHINESE WRITING

                                       TAI T'UNG, 13TH CENTURY
 Job cpu time:  0 days  1 hours 55 minutes 47.6 seconds.
 File lengths (MBytes):  RWF=   1504 Int=      0 D2E=      0 Chk=     32 Scr=     32
 Normal termination of Gaussian 09 at Thu Mar  9 11:42:40 2017.
