 Entering Gaussian System, Link 0=/shared/apps/gaussian/G09_LINUX_LINDA/g09/g09
 Input=/gss_gpfs_scratch/harms.n/QMscratch/AZASWMGVGQEVCS-UHFFFAOYSA.gjf
 Output=/gss_gpfs_scratch/harms.n/QMscratch/AZASWMGVGQEVCS-UHFFFAOYSA.log
 Initial command:
 /shared/apps/gaussian/G09_LINUX_LINDA/g09/l1.exe /gss_gpfs_scratch/harms.n/comparerTST/Gau-17399.inp -scrdir=/gss_gpfs_scratch/harms.n/comparerTST/
 Entering Link 1 = /shared/apps/gaussian/G09_LINUX_LINDA/g09/l1.exe PID=     17400.
  
 Copyright (c) 1988,1990,1992,1993,1995,1998,2003,2009,2010,
            Gaussian, Inc.  All Rights Reserved.
  
 This is part of the Gaussian(R) 09 program.  It is based on
 the Gaussian(R) 03 system (copyright 2003, Gaussian, Inc.),
 the Gaussian(R) 98 system (copyright 1998, Gaussian, Inc.),
 the Gaussian(R) 94 system (copyright 1995, Gaussian, Inc.),
 the Gaussian 92(TM) system (copyright 1992, Gaussian, Inc.),
 the Gaussian 90(TM) system (copyright 1990, Gaussian, Inc.),
 the Gaussian 88(TM) system (copyright 1988, Gaussian, Inc.),
 the Gaussian 86(TM) system (copyright 1986, Carnegie Mellon
 University), and the Gaussian 82(TM) system (copyright 1983,
 Carnegie Mellon University). Gaussian is a federally registered
 trademark of Gaussian, Inc.
  
 This software contains proprietary and confidential information,
 including trade secrets, belonging to Gaussian, Inc.
  
 This software is provided under written license and may be
 used, copied, transmitted, or stored only in accord with that
 written license.
  
 The following legend is applicable only to US Government
 contracts under FAR:
  
                    RESTRICTED RIGHTS LEGEND
  
 Use, reproduction and disclosure by the US Government is
 subject to restrictions as set forth in subparagraphs (a)
 and (c) of the Commercial Computer Software - Restricted
 Rights clause in FAR 52.227-19.
  
 Gaussian, Inc.
 340 Quinnipiac St., Bldg. 40, Wallingford CT 06492
  
  
 ---------------------------------------------------------------
 Warning -- This program may not be used in any manner that
 competes with the business of Gaussian, Inc. or will provide
 assistance to any competitor of Gaussian, Inc.  The licensee
 of this program is prohibited from giving any competitor of
 Gaussian, Inc. access to this program.  By using this program,
 the user acknowledges that Gaussian, Inc. is engaged in the
 business of creating and licensing software in the field of
 computational chemistry and represents and warrants to the
 licensee that it is not a competitor of Gaussian, Inc. and that
 it will not use this program in any manner prohibited above.
 ---------------------------------------------------------------
  

 Cite this work as:
 Gaussian 09, Revision B.01,
 M. J. Frisch, G. W. Trucks, H. B. Schlegel, G. E. Scuseria, 
 M. A. Robb, J. R. Cheeseman, G. Scalmani, V. Barone, B. Mennucci, 
 G. A. Petersson, H. Nakatsuji, M. Caricato, X. Li, H. P. Hratchian, 
 A. F. Izmaylov, J. Bloino, G. Zheng, J. L. Sonnenberg, M. Hada, 
 M. Ehara, K. Toyota, R. Fukuda, J. Hasegawa, M. Ishida, T. Nakajima, 
 Y. Honda, O. Kitao, H. Nakai, T. Vreven, J. A. Montgomery, Jr., 
 J. E. Peralta, F. Ogliaro, M. Bearpark, J. J. Heyd, E. Brothers, 
 K. N. Kudin, V. N. Staroverov, T. Keith, R. Kobayashi, J. Normand, 
 K. Raghavachari, A. Rendell, J. C. Burant, S. S. Iyengar, J. Tomasi, 
 M. Cossi, N. Rega, J. M. Millam, M. Klene, J. E. Knox, J. B. Cross, 
 V. Bakken, C. Adamo, J. Jaramillo, R. Gomperts, R. E. Stratmann, 
 O. Yazyev, A. J. Austin, R. Cammi, C. Pomelli, J. W. Ochterski, 
 R. L. Martin, K. Morokuma, V. G. Zakrzewski, G. A. Voth, 
 P. Salvador, J. J. Dannenberg, S. Dapprich, A. D. Daniels, 
 O. Farkas, J. B. Foresman, J. V. Ortiz, J. Cioslowski, 
 and D. J. Fox, Gaussian, Inc., Wallingford CT, 2010.
 
 ******************************************
 Gaussian 09:  EM64L-G09RevB.01 12-Aug-2010
                 4-Oct-2017 
 ******************************************
 %nprocshared=20
 Will use up to   20 processors via shared memory.
 %mem=5GB
 --------------------------------------------------------------
 # m062x/6-311+g(2df,2p) opt=(verytight,gdiis) freq IOP(2/16=3)
 --------------------------------------------------------------

 Warning!  Use of Opt=GDIIS is deprecated since it is seldom a good choice.

 1/7=1,14=-1,18=20,19=11,26=3,38=1/1,3;
 2/9=110,12=2,16=3,17=6,18=5,40=1/2;
 3/5=4,6=6,7=214,11=2,16=1,25=1,30=1,71=1,74=-55/1,2,3;
 4//1;
 5/5=2,38=5/2;
 6/7=2,8=2,9=2,10=2,28=1/1;
 7//1,2,3,16;
 1/7=1,14=-1,18=20,19=11/3(2);
 2/9=110,16=3/2;
 99//99;
 2/9=110,16=3/2;
 3/5=4,6=6,7=214,11=2,16=1,25=1,30=1,71=1,74=-55/1,2,3;
 4/5=5,16=3/1;
 5/5=2,38=5/2;
 7//1,2,3,16;
 1/7=1,14=-1,18=20,19=11/3(-5);
 2/9=110,16=3/2;
 6/7=2,8=2,9=2,10=2,19=2,28=1/1;
 99/9=1/99;
 -------------------------------------------
 InChI=1S/C7H14O/c1-6(8)5-7(2,3)4/h5H2,1-4H3
 -------------------------------------------
 Symbolic Z-matrix:
 Charge =  0 Multiplicity = 1
 C                    -0.7787   -0.0613   -0.3364 
 C                     0.6816   -0.3752   -0.7751 
 C                    -0.8233    1.2077    0.5404 
 C                    -1.3951   -1.2451    0.4393 
 C                    -1.6239    0.1852   -1.6035 
 C                     2.7107    0.449     0.648 
 C                     1.6489   -0.5723    0.3684 
 H                     1.0522    0.4576   -1.4136 
 H                     0.6991   -1.2885   -1.4097 
 H                    -1.8731    1.4744    0.7902 
 H                    -0.2767    1.0512    1.4947 
 H                    -0.3613    2.0671    0.0081 
 H                    -0.9012   -1.3832    1.4234 
 H                    -1.2991   -2.1872   -0.1425 
 H                    -2.4745   -1.0648    0.6344 
 H                    -1.6202   -0.7137   -2.2576 
 H                    -2.6783    0.4164   -1.3377 
 H                    -1.2198    1.0416   -2.1858 
 H                     3.3307    0.143     1.5176 
 H                     3.3683    0.5558   -0.2399 
 H                     2.2394    1.4283    0.8723 
 O                     1.5943   -1.5859    1.048 
 

 GradGradGradGradGradGradGradGradGradGradGradGradGradGradGradGradGradGrad
 Berny optimization.
 Initialization pass.
                           ----------------------------
                           !    Initial Parameters    !
                           ! (Angstroms and Degrees)  !
 --------------------------                            --------------------------
 ! Name  Definition              Value          Derivative Info.                !
 --------------------------------------------------------------------------------
 ! R1    R(1,2)                  1.5567         estimate D2E/DX2                !
 ! R2    R(1,3)                  1.5431         estimate D2E/DX2                !
 ! R3    R(1,4)                  1.5437         estimate D2E/DX2                !
 ! R4    R(1,5)                  1.5429         estimate D2E/DX2                !
 ! R5    R(2,7)                  1.5107         estimate D2E/DX2                !
 ! R6    R(2,8)                  1.1129         estimate D2E/DX2                !
 ! R7    R(2,9)                  1.1123         estimate D2E/DX2                !
 ! R8    R(3,10)                 1.1116         estimate D2E/DX2                !
 ! R9    R(3,11)                 1.1108         estimate D2E/DX2                !
 ! R10   R(3,12)                 1.1115         estimate D2E/DX2                !
 ! R11   R(4,13)                 1.1097         estimate D2E/DX2                !
 ! R12   R(4,14)                 1.1114         estimate D2E/DX2                !
 ! R13   R(4,15)                 1.1116         estimate D2E/DX2                !
 ! R14   R(5,16)                 1.1117         estimate D2E/DX2                !
 ! R15   R(5,17)                 1.1117         estimate D2E/DX2                !
 ! R16   R(5,18)                 1.1117         estimate D2E/DX2                !
 ! R17   R(6,7)                  1.4995         estimate D2E/DX2                !
 ! R18   R(6,19)                 1.111          estimate D2E/DX2                !
 ! R19   R(6,20)                 1.11           estimate D2E/DX2                !
 ! R20   R(6,21)                 1.1097         estimate D2E/DX2                !
 ! R21   R(7,22)                 1.2216         estimate D2E/DX2                !
 ! A1    A(2,1,3)              110.6746         estimate D2E/DX2                !
 ! A2    A(2,1,4)              111.1946         estimate D2E/DX2                !
 ! A3    A(2,1,5)              108.3388         estimate D2E/DX2                !
 ! A4    A(3,1,4)              109.4862         estimate D2E/DX2                !
 ! A5    A(3,1,5)              108.6274         estimate D2E/DX2                !
 ! A6    A(4,1,5)              108.4478         estimate D2E/DX2                !
 ! A7    A(1,2,7)              114.4336         estimate D2E/DX2                !
 ! A8    A(1,2,8)              108.854          estimate D2E/DX2                !
 ! A9    A(1,2,9)              109.9445         estimate D2E/DX2                !
 ! A10   A(7,2,8)              108.5835         estimate D2E/DX2                !
 ! A11   A(7,2,9)              108.3408         estimate D2E/DX2                !
 ! A12   A(8,2,9)              106.372          estimate D2E/DX2                !
 ! A13   A(1,3,10)             110.628          estimate D2E/DX2                !
 ! A14   A(1,3,11)             110.981          estimate D2E/DX2                !
 ! A15   A(1,3,12)             110.5933         estimate D2E/DX2                !
 ! A16   A(10,3,11)            107.7858         estimate D2E/DX2                !
 ! A17   A(10,3,12)            108.3411         estimate D2E/DX2                !
 ! A18   A(11,3,12)            108.4109         estimate D2E/DX2                !
 ! A19   A(1,4,13)             111.3048         estimate D2E/DX2                !
 ! A20   A(1,4,14)             110.64           estimate D2E/DX2                !
 ! A21   A(1,4,15)             110.5815         estimate D2E/DX2                !
 ! A22   A(13,4,14)            108.6804         estimate D2E/DX2                !
 ! A23   A(13,4,15)            107.2604         estimate D2E/DX2                !
 ! A24   A(14,4,15)            108.2543         estimate D2E/DX2                !
 ! A25   A(1,5,16)             110.6212         estimate D2E/DX2                !
 ! A26   A(1,5,17)             110.881          estimate D2E/DX2                !
 ! A27   A(1,5,18)             110.7393         estimate D2E/DX2                !
 ! A28   A(16,5,17)            108.1795         estimate D2E/DX2                !
 ! A29   A(16,5,18)            108.2706         estimate D2E/DX2                !
 ! A30   A(17,5,18)            108.0472         estimate D2E/DX2                !
 ! A31   A(7,6,19)             110.7025         estimate D2E/DX2                !
 ! A32   A(7,6,20)             109.6246         estimate D2E/DX2                !
 ! A33   A(7,6,21)             109.7548         estimate D2E/DX2                !
 ! A34   A(19,6,20)            108.7833         estimate D2E/DX2                !
 ! A35   A(19,6,21)            108.7762         estimate D2E/DX2                !
 ! A36   A(20,6,21)            109.1696         estimate D2E/DX2                !
 ! A37   A(2,7,6)              120.3758         estimate D2E/DX2                !
 ! A38   A(2,7,22)             120.0502         estimate D2E/DX2                !
 ! A39   A(6,7,22)             119.5405         estimate D2E/DX2                !
 ! D1    D(3,1,2,7)             58.0831         estimate D2E/DX2                !
 ! D2    D(3,1,2,8)            -63.5867         estimate D2E/DX2                !
 ! D3    D(3,1,2,9)           -179.7399         estimate D2E/DX2                !
 ! D4    D(4,1,2,7)            -63.837          estimate D2E/DX2                !
 ! D5    D(4,1,2,8)            174.4932         estimate D2E/DX2                !
 ! D6    D(4,1,2,9)             58.34           estimate D2E/DX2                !
 ! D7    D(5,1,2,7)            177.0791         estimate D2E/DX2                !
 ! D8    D(5,1,2,8)             55.4093         estimate D2E/DX2                !
 ! D9    D(5,1,2,9)            -60.7439         estimate D2E/DX2                !
 ! D10   D(2,1,3,10)           175.7727         estimate D2E/DX2                !
 ! D11   D(2,1,3,11)           -64.629          estimate D2E/DX2                !
 ! D12   D(2,1,3,12)            55.7314         estimate D2E/DX2                !
 ! D13   D(4,1,3,10)           -61.31           estimate D2E/DX2                !
 ! D14   D(4,1,3,11)            58.2884         estimate D2E/DX2                !
 ! D15   D(4,1,3,12)           178.6488         estimate D2E/DX2                !
 ! D16   D(5,1,3,10)            56.9514         estimate D2E/DX2                !
 ! D17   D(5,1,3,11)           176.5497         estimate D2E/DX2                !
 ! D18   D(5,1,3,12)           -63.0899         estimate D2E/DX2                !
 ! D19   D(2,1,4,13)            68.0967         estimate D2E/DX2                !
 ! D20   D(2,1,4,14)           -52.8511         estimate D2E/DX2                !
 ! D21   D(2,1,4,15)          -172.7838         estimate D2E/DX2                !
 ! D22   D(3,1,4,13)           -54.5115         estimate D2E/DX2                !
 ! D23   D(3,1,4,14)          -175.4593         estimate D2E/DX2                !
 ! D24   D(3,1,4,15)            64.608          estimate D2E/DX2                !
 ! D25   D(5,1,4,13)          -172.8846         estimate D2E/DX2                !
 ! D26   D(5,1,4,14)            66.1676         estimate D2E/DX2                !
 ! D27   D(5,1,4,15)           -53.7652         estimate D2E/DX2                !
 ! D28   D(2,1,5,16)            60.1055         estimate D2E/DX2                !
 ! D29   D(2,1,5,17)          -179.8722         estimate D2E/DX2                !
 ! D30   D(2,1,5,18)           -59.9383         estimate D2E/DX2                !
 ! D31   D(3,1,5,16)          -179.6136         estimate D2E/DX2                !
 ! D32   D(3,1,5,17)           -59.5913         estimate D2E/DX2                !
 ! D33   D(3,1,5,18)            60.3426         estimate D2E/DX2                !
 ! D34   D(4,1,5,16)           -60.6974         estimate D2E/DX2                !
 ! D35   D(4,1,5,17)            59.325          estimate D2E/DX2                !
 ! D36   D(4,1,5,18)           179.2589         estimate D2E/DX2                !
 ! D37   D(1,2,7,6)           -109.7307         estimate D2E/DX2                !
 ! D38   D(1,2,7,22)            72.3816         estimate D2E/DX2                !
 ! D39   D(8,2,7,6)             12.0874         estimate D2E/DX2                !
 ! D40   D(8,2,7,22)          -165.8004         estimate D2E/DX2                !
 ! D41   D(9,2,7,6)            127.2222         estimate D2E/DX2                !
 ! D42   D(9,2,7,22)           -50.6655         estimate D2E/DX2                !
 ! D43   D(19,6,7,2)          -179.8323         estimate D2E/DX2                !
 ! D44   D(19,6,7,22)           -1.9339         estimate D2E/DX2                !
 ! D45   D(20,6,7,2)           -59.8192         estimate D2E/DX2                !
 ! D46   D(20,6,7,22)          118.0792         estimate D2E/DX2                !
 ! D47   D(21,6,7,2)            60.0796         estimate D2E/DX2                !
 ! D48   D(21,6,7,22)         -122.0219         estimate D2E/DX2                !
 --------------------------------------------------------------------------------
 Trust Radius=3.00D-01 FncErr=1.00D-07 GrdErr=1.00D-06
 Number of steps in this run=    118 maximum allowed number of steps=    132.
 GradGradGradGradGradGradGradGradGradGradGradGradGradGradGradGradGradGrad

                          Input orientation:                          
 ---------------------------------------------------------------------
 Center     Atomic      Atomic             Coordinates (Angstroms)
 Number     Number       Type             X           Y           Z
 ---------------------------------------------------------------------
      1          6           0       -0.778700   -0.061300   -0.336400
      2          6           0        0.681600   -0.375200   -0.775100
      3          6           0       -0.823300    1.207700    0.540400
      4          6           0       -1.395100   -1.245100    0.439300
      5          6           0       -1.623900    0.185200   -1.603500
      6          6           0        2.710700    0.449000    0.648000
      7          6           0        1.648900   -0.572300    0.368400
      8          1           0        1.052200    0.457600   -1.413600
      9          1           0        0.699100   -1.288500   -1.409700
     10          1           0       -1.873100    1.474400    0.790200
     11          1           0       -0.276700    1.051200    1.494700
     12          1           0       -0.361300    2.067100    0.008100
     13          1           0       -0.901200   -1.383200    1.423400
     14          1           0       -1.299100   -2.187200   -0.142500
     15          1           0       -2.474500   -1.064800    0.634400
     16          1           0       -1.620200   -0.713700   -2.257600
     17          1           0       -2.678300    0.416400   -1.337700
     18          1           0       -1.219800    1.041600   -2.185800
     19          1           0        3.330700    0.143000    1.517600
     20          1           0        3.368300    0.555800   -0.239900
     21          1           0        2.239400    1.428300    0.872300
     22          8           0        1.594300   -1.585900    1.048000
 ---------------------------------------------------------------------
                    Distance matrix (angstroms):
                    1          2          3          4          5
     1  C    0.000000
     2  C    1.556749   0.000000
     3  C    1.543091   2.549674   0.000000
     4  C    1.543710   2.558159   2.520596   0.000000
     5  C    1.542941   2.513091   2.506546   2.504224   0.000000
     6  C    3.661333   2.611851   3.616125   4.446473   4.891585
     7  C    2.578974   1.510665   3.051189   3.118272   3.895307
     8  H    2.186735   1.112916   2.810385   3.510228   2.696623
     9  H    2.200428   1.112268   3.514485   2.793986   2.757840
    10  H    2.196660   3.521033   1.111579   2.783396   2.730190
    11  H    2.200588   2.846919   1.110834   2.763636   3.487656
    12  H    2.196131   2.768731   1.111466   3.496476   2.780820
    13  H    2.204387   2.890454   2.738343   1.109712   3.484867
    14  H    2.197240   2.758025   3.495438   1.111422   2.805049
    15  H    2.196634   3.524657   2.810614   1.111610   2.700781
    16  H    2.196533   2.758745   3.486493   2.757957   1.111702
    17  H    2.199836   3.497439   2.755801   2.750439   1.111694
    18  H    2.198008   2.759116   2.759885   3.485811   1.111661
    19  H    4.512895   3.541572   4.398207   5.042097   5.855861
    20  H    4.193773   2.893364   4.313160   5.137561   5.188334
    21  H    3.576142   2.897116   3.088520   4.532565   4.753943
    22  O    3.141989   2.371183   3.729162   3.069719   4.530349
                    6          7          8          9         10
     6  C    0.000000
     7  C    1.499550   0.000000
     8  H    2.645920   2.142958   0.000000
     9  H    3.361483   2.139323   1.781449   0.000000
    10  H    4.699243   4.095288   3.801052   4.369141   0.000000
    11  H    3.162927   2.759029   3.252160   3.855116   1.795525
    12  H    3.530567   3.337237   2.570934   3.794029   1.802363
    13  H    4.123594   2.876386   3.905494   3.255209   3.084057
    14  H    4.863428   3.399945   3.760223   2.531059   3.821874
    15  H    5.401673   4.161219   4.353116   3.781550   2.614095
    16  H    5.343321   4.195579   3.037433   2.535445   3.760429
    17  H    5.743291   4.755309   3.731499   3.784006   2.509117
    18  H    4.881642   4.166299   2.469683   3.116709   3.077449
    19  H    1.110964   2.158881   3.725919   4.188508   5.420449
    20  H    1.110050   2.144522   2.598371   3.448841   5.420074
    21  H    1.109713   2.145928   2.752643   3.867952   4.113578
    22  O    2.355242   1.221566   3.244879   2.632512   4.631928
                   11         12         13         14         15
    11  H    0.000000
    12  H    1.802551   0.000000
    13  H    2.514237   3.768174   0.000000
    14  H    3.770008   4.359039   1.804656   0.000000
    15  H    3.169842   3.829708   1.788623   1.801366   0.000000
    16  H    4.358855   3.801457   3.809849   2.597683   3.035912
    17  H    3.767379   3.147138   3.744371   3.179533   2.474806
    18  H    3.799422   2.569410   4.359758   3.821847   3.736940
    19  H    3.720038   4.428500   4.499682   5.442501   5.994929
    20  H    4.066975   4.031805   4.975431   5.414625   6.126096
    21  H    2.619226   2.813991   4.251072   5.159713   5.337883
    22  O    3.264120   4.272022   2.531705   3.186003   4.122832
                   16         17         18         19         20
    16  H    0.000000
    17  H    1.800810   0.000000
    18  H    1.801819   1.799270   0.000000
    19  H    6.284702   6.658496   5.935462   0.000000
    20  H    5.528822   6.147029   5.007314   1.805720   0.000000
    21  H    5.411188   5.485601   4.633312   1.805365   1.809050
    22  O    4.692626   5.287332   5.027960   2.494936   3.064742
                   21         22
    21  H    0.000000
    22  O    3.087463   0.000000
 Stoichiometry    C7H14O
 Framework group  C1[X(C7H14O)]
 Deg. of freedom    60
 Full point group                 C1      NOp   1
 Largest Abelian subgroup         C1      NOp   1
 Largest concise Abelian subgroup C1      NOp   1
                         Standard orientation:                         
 ---------------------------------------------------------------------
 Center     Atomic      Atomic             Coordinates (Angstroms)
 Number     Number       Type             X           Y           Z
 ---------------------------------------------------------------------
      1          6           0        1.059636   -0.056068    0.005408
      2          6           0       -0.191753   -0.163969   -0.914292
      3          6           0        0.916749   -0.983026    1.230749
      4          6           0        1.279167    1.396045    0.481031
      5          6           0        2.296765   -0.496888   -0.804441
      6          6           0       -2.501613   -0.904902    0.053867
      7          6           0       -1.498102    0.171583   -0.233875
      8          1           0       -0.256056   -1.200662   -1.313937
      9          1           0       -0.074022    0.504873   -1.795162
     10          1           0        1.841722   -0.963032    1.846895
     11          1           0        0.071951   -0.661448    1.876393
     12          1           0        0.733466   -2.030974    0.908929
     13          1           0        0.475470    1.718947    1.174765
     14          1           0        1.303139    2.092493   -0.384789
     15          1           0        2.242844    1.486745    1.027636
     16          1           0        2.435180    0.155369   -1.693983
     17          1           0        3.217706   -0.438072   -0.184547
     18          1           0        2.184267   -1.545673   -1.155419
     19          1           0       -3.399763   -0.481531    0.552188
     20          1           0       -2.813807   -1.387102   -0.895990
     21          1           0       -2.050812   -1.669635    0.719767
     22          8           0       -1.759547    1.330382    0.050823
 ---------------------------------------------------------------------
 Rotational constants (GHZ):      3.1276144      1.3461518      1.2165519
 Standard basis: 6-311+G(2df,2p) (5D, 7F)
 There are   398 symmetry adapted basis functions of A   symmetry.
 Integral buffers will be    131072 words long.
 Raffenetti 2 integral format.
 Two-electron integral symmetry is turned on.
   398 basis functions,   570 primitive gaussians,   438 cartesian basis functions
    32 alpha electrons       32 beta electrons
       nuclear repulsion energy       400.1474845105 Hartrees.
 NAtoms=   22 NActive=   22 NUniq=   22 SFac= 1.00D+00 NAtFMM=   50 NAOKFM=F Big=F
 One-electron integrals computed using PRISM.
 NBasis=   398 RedAO= T  NBF=   398
 NBsUse=   398 1.00D-06 NBFU=   398
 Harris functional with IExCor= 1009 diagonalized for initial guess.
 ExpMin= 4.38D-02 ExpMax= 8.59D+03 ExpMxC= 1.30D+03 IAcc=2 IRadAn=         0 AccDes= 0.00D+00
 HarFok:  IExCor= 1009 AccDes= 0.00D+00 IRadAn=         0 IDoV= 1
 ScaDFX=  1.000000  1.000000  1.000000  1.000000
 FoFCou: FMM=F IPFlag=           0 FMFlag=      100000 FMFlg1=           0
         NFxFlg=           0 DoJE=T BraDBF=F KetDBF=T FulRan=T
         Omega=  0.000000  0.000000  1.000000  0.000000  0.000000 ICntrl=     500 IOpCl=  0
         NMat0=    1 NMatS0=    1 NMatT0=    0 NMatD0=    1 NMtDS0=    0 NMtDT0=    0
         I1Cent=           4 NGrid=           0.
 Petite list used in FoFCou.
 Initial guess orbital symmetries:
       Occupied  (A) (A) (A) (A) (A) (A) (A) (A) (A) (A) (A) (A)
                 (A) (A) (A) (A) (A) (A) (A) (A) (A) (A) (A) (A)
                 (A) (A) (A) (A) (A) (A) (A) (A)
       Virtual   (A) (A) (A) (A) (A) (A) (A) (A) (A) (A) (A) (A)
                 (A) (A) (A) (A) (A) (A) (A) (A) (A) (A) (A) (A)
                 (A) (A) (A) (A) (A) (A) (A) (A) (A) (A) (A) (A)
                 (A) (A) (A) (A) (A) (A) (A) (A) (A) (A) (A) (A)
                 (A) (A) (A) (A) (A) (A) (A) (A) (A) (A) (A) (A)
                 (A) (A) (A) (A) (A) (A) (A) (A) (A) (A) (A) (A)
                 (A) (A) (A) (A) (A) (A) (A) (A) (A) (A) (A) (A)
                 (A) (A) (A) (A) (A) (A) (A) (A) (A) (A) (A) (A)
                 (A) (A) (A) (A) (A) (A) (A) (A) (A) (A) (A) (A)
                 (A) (A) (A) (A) (A) (A) (A) (A) (A) (A) (A) (A)
                 (A) (A) (A) (A) (A) (A) (A) (A) (A) (A) (A) (A)
                 (A) (A) (A) (A) (A) (A) (A) (A) (A) (A) (A) (A)
                 (A) (A) (A) (A) (A) (A) (A) (A) (A) (A) (A) (A)
                 (A) (A) (A) (A) (A) (A) (A) (A) (A) (A) (A) (A)
                 (A) (A) (A) (A) (A) (A) (A) (A) (A) (A) (A) (A)
                 (A) (A) (A) (A) (A) (A) (A) (A) (A) (A) (A) (A)
                 (A) (A) (A) (A) (A) (A) (A) (A) (A) (A) (A) (A)
                 (A) (A) (A) (A) (A) (A) (A) (A) (A) (A) (A) (A)
                 (A) (A) (A) (A) (A) (A) (A) (A) (A) (A) (A) (A)
                 (A) (A) (A) (A) (A) (A) (A) (A) (A) (A) (A) (A)
                 (A) (A) (A) (A) (A) (A) (A) (A) (A) (A) (A) (A)
                 (A) (A) (A) (A) (A) (A) (A) (A) (A) (A) (A) (A)
                 (A) (A) (A) (A) (A) (A) (A) (A) (A) (A) (A) (A)
                 (A) (A) (A) (A) (A) (A) (A) (A) (A) (A) (A) (A)
                 (A) (A) (A) (A) (A) (A) (A) (A) (A) (A) (A) (A)
                 (A) (A) (A) (A) (A) (A) (A) (A) (A) (A) (A) (A)
                 (A) (A) (A) (A) (A) (A) (A) (A) (A) (A) (A) (A)
                 (A) (A) (A) (A) (A) (A) (A) (A) (A) (A) (A) (A)
                 (A) (A) (A) (A) (A) (A) (A) (A) (A) (A) (A) (A)
                 (A) (A) (A) (A) (A) (A) (A) (A) (A) (A) (A) (A)
                 (A) (A) (A) (A) (A) (A)
 The electronic state of the initial guess is 1-A.
 Requested convergence on RMS density matrix=1.00D-08 within 128 cycles.
 Requested convergence on MAX density matrix=1.00D-06.
 Requested convergence on             energy=1.00D-06.
 No special actions if energy rises.
 SCF Done:  E(RM062X) =  -350.351797236     A.U. after   12 cycles
             Convg  =    0.6961D-08             -V/T =  2.0055

 **********************************************************************

            Population analysis using the SCF density.

 **********************************************************************

 Orbital symmetries:
       Occupied  (A) (A) (A) (A) (A) (A) (A) (A) (A) (A) (A) (A)
                 (A) (A) (A) (A) (A) (A) (A) (A) (A) (A) (A) (A)
                 (A) (A) (A) (A) (A) (A) (A) (A)
       Virtual   (A) (A) (A) (A) (A) (A) (A) (A) (A) (A) (A) (A)
                 (A) (A) (A) (A) (A) (A) (A) (A) (A) (A) (A) (A)
                 (A) (A) (A) (A) (A) (A) (A) (A) (A) (A) (A) (A)
                 (A) (A) (A) (A) (A) (A) (A) (A) (A) (A) (A) (A)
                 (A) (A) (A) (A) (A) (A) (A) (A) (A) (A) (A) (A)
                 (A) (A) (A) (A) (A) (A) (A) (A) (A) (A) (A) (A)
                 (A) (A) (A) (A) (A) (A) (A) (A) (A) (A) (A) (A)
                 (A) (A) (A) (A) (A) (A) (A) (A) (A) (A) (A) (A)
                 (A) (A) (A) (A) (A) (A) (A) (A) (A) (A) (A) (A)
                 (A) (A) (A) (A) (A) (A) (A) (A) (A) (A) (A) (A)
                 (A) (A) (A) (A) (A) (A) (A) (A) (A) (A) (A) (A)
                 (A) (A) (A) (A) (A) (A) (A) (A) (A) (A) (A) (A)
                 (A) (A) (A) (A) (A) (A) (A) (A) (A) (A) (A) (A)
                 (A) (A) (A) (A) (A) (A) (A) (A) (A) (A) (A) (A)
                 (A) (A) (A) (A) (A) (A) (A) (A) (A) (A) (A) (A)
                 (A) (A) (A) (A) (A) (A) (A) (A) (A) (A) (A) (A)
                 (A) (A) (A) (A) (A) (A) (A) (A) (A) (A) (A) (A)
                 (A) (A) (A) (A) (A) (A) (A) (A) (A) (A) (A) (A)
                 (A) (A) (A) (A) (A) (A) (A) (A) (A) (A) (A) (A)
                 (A) (A) (A) (A) (A) (A) (A) (A) (A) (A) (A) (A)
                 (A) (A) (A) (A) (A) (A) (A) (A) (A) (A) (A) (A)
                 (A) (A) (A) (A) (A) (A) (A) (A) (A) (A) (A) (A)
                 (A) (A) (A) (A) (A) (A) (A) (A) (A) (A) (A) (A)
                 (A) (A) (A) (A) (A) (A) (A) (A) (A) (A) (A) (A)
                 (A) (A) (A) (A) (A) (A) (A) (A) (A) (A) (A) (A)
                 (A) (A) (A) (A) (A) (A) (A) (A) (A) (A) (A) (A)
                 (A) (A) (A) (A) (A) (A) (A) (A) (A) (A) (A) (A)
                 (A) (A) (A) (A) (A) (A) (A) (A) (A) (A) (A) (A)
                 (A) (A) (A) (A) (A) (A) (A) (A) (A) (A) (A) (A)
                 (A) (A) (A) (A) (A) (A) (A) (A) (A) (A) (A) (A)
                 (A) (A) (A) (A) (A) (A)
 The electronic state is 1-A.
 Alpha  occ. eigenvalues --  -19.61155 -10.62857 -10.56299 -10.54785 -10.54599
 Alpha  occ. eigenvalues --  -10.53629 -10.53406 -10.52396  -1.16051  -0.93117
 Alpha  occ. eigenvalues --   -0.85396  -0.79433  -0.77781  -0.77049  -0.63777
 Alpha  occ. eigenvalues --   -0.59937  -0.54568  -0.54176  -0.53483  -0.50475
 Alpha  occ. eigenvalues --   -0.49588  -0.49352  -0.46328  -0.45663  -0.43924
 Alpha  occ. eigenvalues --   -0.43670  -0.42597  -0.41526  -0.39154  -0.38307
 Alpha  occ. eigenvalues --   -0.38224  -0.31880
 Alpha virt. eigenvalues --    0.00531   0.01348   0.02372   0.03181   0.03422
 Alpha virt. eigenvalues --    0.04600   0.04912   0.05326   0.05625   0.06627
 Alpha virt. eigenvalues --    0.07499   0.07856   0.08421   0.08680   0.09536
 Alpha virt. eigenvalues --    0.09845   0.10492   0.11621   0.12056   0.12500
 Alpha virt. eigenvalues --    0.13556   0.14207   0.16077   0.16851   0.17231
 Alpha virt. eigenvalues --    0.18673   0.18800   0.19030   0.20209   0.20450
 Alpha virt. eigenvalues --    0.21065   0.22802   0.23719   0.24004   0.24199
 Alpha virt. eigenvalues --    0.25011   0.25546   0.25958   0.26394   0.26866
 Alpha virt. eigenvalues --    0.27525   0.27815   0.29548   0.29973   0.31368
 Alpha virt. eigenvalues --    0.31813   0.32651   0.33091   0.33514   0.34315
 Alpha virt. eigenvalues --    0.36187   0.38699   0.41286   0.41799   0.43009
 Alpha virt. eigenvalues --    0.44358   0.45186   0.46172   0.46720   0.46872
 Alpha virt. eigenvalues --    0.49615   0.50641   0.50955   0.52353   0.52704
 Alpha virt. eigenvalues --    0.54015   0.55006   0.55255   0.57308   0.57804
 Alpha virt. eigenvalues --    0.58317   0.59015   0.59256   0.60988   0.61429
 Alpha virt. eigenvalues --    0.61714   0.62011   0.62675   0.63513   0.64375
 Alpha virt. eigenvalues --    0.65494   0.66697   0.67028   0.68752   0.70111
 Alpha virt. eigenvalues --    0.70813   0.71550   0.71929   0.72663   0.73236
 Alpha virt. eigenvalues --    0.75773   0.76515   0.77883   0.78907   0.80170
 Alpha virt. eigenvalues --    0.81615   0.84942   0.88490   0.89549   0.90100
 Alpha virt. eigenvalues --    0.93349   0.94422   0.95092   0.97554   0.98645
 Alpha virt. eigenvalues --    0.99902   1.00784   1.01709   1.02992   1.03290
 Alpha virt. eigenvalues --    1.03875   1.05405   1.06390   1.10522   1.11060
 Alpha virt. eigenvalues --    1.11768   1.13239   1.14175   1.14392   1.15532
 Alpha virt. eigenvalues --    1.15948   1.19665   1.21272   1.21894   1.23243
 Alpha virt. eigenvalues --    1.24611   1.25093   1.25924   1.26398   1.26755
 Alpha virt. eigenvalues --    1.28041   1.29449   1.29852   1.30643   1.31432
 Alpha virt. eigenvalues --    1.33803   1.34502   1.34827   1.35800   1.37335
 Alpha virt. eigenvalues --    1.37688   1.38408   1.39022   1.39293   1.40682
 Alpha virt. eigenvalues --    1.41853   1.42884   1.43205   1.43692   1.45040
 Alpha virt. eigenvalues --    1.45528   1.48130   1.49092   1.49518   1.50208
 Alpha virt. eigenvalues --    1.50823   1.53736   1.54472   1.56923   1.58507
 Alpha virt. eigenvalues --    1.59395   1.61216   1.61304   1.61699   1.64052
 Alpha virt. eigenvalues --    1.64951   1.65772   1.67270   1.68902   1.70689
 Alpha virt. eigenvalues --    1.72426   1.73932   1.75973   1.81223   1.82742
 Alpha virt. eigenvalues --    1.85038   1.89573   1.92174   2.04964   2.09392
 Alpha virt. eigenvalues --    2.31735   2.42978   2.45017   2.48272   2.51161
 Alpha virt. eigenvalues --    2.53605   2.54636   2.56407   2.60019   2.60696
 Alpha virt. eigenvalues --    2.63058   2.66486   2.70065   2.71691   2.74119
 Alpha virt. eigenvalues --    2.75353   2.77635   2.82765   2.82955   2.83791
 Alpha virt. eigenvalues --    2.84950   2.87045   2.88653   2.91432   2.91983
 Alpha virt. eigenvalues --    2.93716   2.95050   2.95705   2.96802   2.97620
 Alpha virt. eigenvalues --    2.99070   2.99902   3.01134   3.02833   3.04467
 Alpha virt. eigenvalues --    3.07399   3.09077   3.10062   3.10753   3.13544
 Alpha virt. eigenvalues --    3.13859   3.16021   3.17440   3.19047   3.21045
 Alpha virt. eigenvalues --    3.23058   3.25715   3.27832   3.28901   3.30132
 Alpha virt. eigenvalues --    3.31409   3.32631   3.33807   3.34496   3.35953
 Alpha virt. eigenvalues --    3.36931   3.38722   3.40866   3.41233   3.43174
 Alpha virt. eigenvalues --    3.43458   3.44430   3.46707   3.48234   3.53730
 Alpha virt. eigenvalues --    3.54641   3.55350   3.57942   3.59561   3.61433
 Alpha virt. eigenvalues --    3.62358   3.63281   3.64691   3.66228   3.66526
 Alpha virt. eigenvalues --    3.68128   3.69007   3.69860   3.71503   3.72689
 Alpha virt. eigenvalues --    3.73233   3.74836   3.75225   3.77193   3.79131
 Alpha virt. eigenvalues --    3.79503   3.81539   3.82928   3.85195   3.88328
 Alpha virt. eigenvalues --    3.90185   3.90676   3.92576   3.94578   3.96671
 Alpha virt. eigenvalues --    3.97688   4.00918   4.01953   4.03112   4.05888
 Alpha virt. eigenvalues --    4.06054   4.06924   4.07937   4.10273   4.13154
 Alpha virt. eigenvalues --    4.13910   4.15761   4.16559   4.18194   4.18939
 Alpha virt. eigenvalues --    4.20142   4.20689   4.21692   4.22983   4.24188
 Alpha virt. eigenvalues --    4.25301   4.26729   4.28629   4.29767   4.31318
 Alpha virt. eigenvalues --    4.34644   4.35644   4.37094   4.40400   4.41374
 Alpha virt. eigenvalues --    4.43334   4.44384   4.46077   4.47084   4.49422
 Alpha virt. eigenvalues --    4.51119   4.55135   4.55951   4.56402   4.58825
 Alpha virt. eigenvalues --    4.60262   4.61024   4.62008   4.64725   4.65629
 Alpha virt. eigenvalues --    4.68734   4.69019   4.72597   4.73200   4.78273
 Alpha virt. eigenvalues --    4.99797   5.00218   5.01448   5.07002   5.13416
 Alpha virt. eigenvalues --    5.15064   5.20786   5.25623   5.36059   5.37428
 Alpha virt. eigenvalues --    5.38222   5.45111   5.46605   5.49950   5.54223
 Alpha virt. eigenvalues --    5.55759   5.57784   5.58213   5.58676   5.59308
 Alpha virt. eigenvalues --    5.60574   5.60811   5.62846   5.65238   5.75665
 Alpha virt. eigenvalues --    6.26544   6.60650   6.91266   6.93873   7.10362
 Alpha virt. eigenvalues --    7.28431   7.49389   7.67346  24.14706  24.29251
 Alpha virt. eigenvalues --   24.33717  24.35320  24.37228  24.42882  24.71021
 Alpha virt. eigenvalues --   50.30154
          Condensed to atoms (all electrons):
              1          2          3          4          5          6
     1  C    5.674632  -0.234159   0.086992   0.226604   0.105551   0.068673
     2  C   -0.234159   6.338418  -0.196483  -0.068236  -0.015063  -0.288918
     3  C    0.086992  -0.196483   5.832663  -0.180123  -0.175564   0.088706
     4  C    0.226604  -0.068236  -0.180123   5.516333  -0.172963  -0.055350
     5  C    0.105551  -0.015063  -0.175564  -0.172963   5.628596   0.016546
     6  C    0.068673  -0.288918   0.088706  -0.055350   0.016546   5.690251
     7  C   -0.015364   0.065458  -0.053762   0.095313  -0.080630  -0.177652
     8  H   -0.001038   0.401565  -0.003334  -0.007170   0.019067   0.046316
     9  H    0.017661   0.403432   0.003047  -0.007127  -0.012608  -0.003057
    10  H   -0.043711   0.035869   0.430338  -0.013191  -0.029114  -0.002969
    11  H   -0.040624  -0.037751   0.413603   0.005070   0.004909  -0.000688
    12  H   -0.015251   0.007699   0.379006   0.016539   0.010060  -0.000847
    13  H   -0.004848  -0.037174   0.004622   0.386798   0.020773  -0.000358
    14  H    0.012283  -0.041870   0.031535   0.392084  -0.027735   0.001206
    15  H   -0.053729   0.049208  -0.028056   0.437484  -0.020028  -0.000788
    16  H    0.004166  -0.023582   0.034535  -0.025750   0.388256   0.000202
    17  H   -0.040188   0.035495  -0.020509  -0.030546   0.436659  -0.000191
    18  H    0.031288  -0.039458  -0.026711   0.038114   0.369156   0.001066
    19  H   -0.003556   0.024452   0.002584  -0.002338   0.001099   0.435913
    20  H    0.016479  -0.039902  -0.002288  -0.000014  -0.003478   0.440803
    21  H   -0.022885   0.036812  -0.001760   0.005776   0.000074   0.333385
    22  O    0.048424  -0.107892  -0.018169  -0.047427   0.007589  -0.124970
              7          8          9         10         11         12
     1  C   -0.015364  -0.001038   0.017661  -0.043711  -0.040624  -0.015251
     2  C    0.065458   0.401565   0.403432   0.035869  -0.037751   0.007699
     3  C   -0.053762  -0.003334   0.003047   0.430338   0.413603   0.379006
     4  C    0.095313  -0.007170  -0.007127  -0.013191   0.005070   0.016539
     5  C   -0.080630   0.019067  -0.012608  -0.029114   0.004909   0.010060
     6  C   -0.177652   0.046316  -0.003057  -0.002969  -0.000688  -0.000847
     7  C    5.674583  -0.091311  -0.022511   0.006654   0.025429  -0.017169
     8  H   -0.091311   0.477917  -0.021849  -0.000043   0.000332  -0.001762
     9  H   -0.022511  -0.021849   0.444956  -0.000249  -0.000188   0.000208
    10  H    0.006654  -0.000043  -0.000249   0.484854  -0.021035  -0.020046
    11  H    0.025429   0.000332  -0.000188  -0.021035   0.516046  -0.031214
    12  H   -0.017169  -0.001762   0.000208  -0.020046  -0.031214   0.504198
    13  H    0.019737  -0.000308   0.000337   0.000206   0.001356  -0.000093
    14  H    0.012942   0.000419  -0.000795   0.000050   0.000108  -0.000453
    15  H   -0.003594  -0.000263   0.000055   0.000625   0.000527   0.000138
    16  H   -0.000039  -0.000915   0.001391   0.000096  -0.000416  -0.000005
    17  H    0.000048   0.000094  -0.000089   0.000970   0.000082   0.000155
    18  H    0.002274   0.001044   0.000125   0.000368   0.000252   0.001243
    19  H   -0.061428   0.000025  -0.000289  -0.000007  -0.000091   0.000029
    20  H   -0.039750  -0.000320  -0.000296  -0.000006   0.000099   0.000125
    21  H    0.010838  -0.004307   0.000245   0.000274  -0.000749  -0.001692
    22  O    0.459351   0.004156  -0.009503  -0.000253  -0.001016   0.000010
             13         14         15         16         17         18
     1  C   -0.004848   0.012283  -0.053729   0.004166  -0.040188   0.031288
     2  C   -0.037174  -0.041870   0.049208  -0.023582   0.035495  -0.039458
     3  C    0.004622   0.031535  -0.028056   0.034535  -0.020509  -0.026711
     4  C    0.386798   0.392084   0.437484  -0.025750  -0.030546   0.038114
     5  C    0.020773  -0.027735  -0.020028   0.388256   0.436659   0.369156
     6  C   -0.000358   0.001206  -0.000788   0.000202  -0.000191   0.001066
     7  C    0.019737   0.012942  -0.003594  -0.000039   0.000048   0.002274
     8  H   -0.000308   0.000419  -0.000263  -0.000915   0.000094   0.001044
     9  H    0.000337  -0.000795   0.000055   0.001391  -0.000089   0.000125
    10  H    0.000206   0.000050   0.000625   0.000096   0.000970   0.000368
    11  H    0.001356   0.000108   0.000527  -0.000416   0.000082   0.000252
    12  H   -0.000093  -0.000453   0.000138  -0.000005   0.000155   0.001243
    13  H    0.497829  -0.018233  -0.027411   0.000176   0.000189  -0.000406
    14  H   -0.018233   0.501360  -0.025089   0.001156   0.000577  -0.000069
    15  H   -0.027411  -0.025089   0.513402   0.000148   0.000261   0.000161
    16  H    0.000176   0.001156   0.000148   0.511935  -0.024551  -0.024930
    17  H    0.000189   0.000577   0.000261  -0.024551   0.505638  -0.025649
    18  H   -0.000406  -0.000069   0.000161  -0.024930  -0.025649   0.517769
    19  H    0.000059   0.000003  -0.000001   0.000000   0.000000   0.000000
    20  H   -0.000018  -0.000001  -0.000001  -0.000002   0.000001   0.000004
    21  H    0.000045  -0.000005  -0.000004   0.000003  -0.000006   0.000014
    22  O   -0.016261  -0.004465   0.001960  -0.000091   0.000018   0.000052
             19         20         21         22
     1  C   -0.003556   0.016479  -0.022885   0.048424
     2  C    0.024452  -0.039902   0.036812  -0.107892
     3  C    0.002584  -0.002288  -0.001760  -0.018169
     4  C   -0.002338  -0.000014   0.005776  -0.047427
     5  C    0.001099  -0.003478   0.000074   0.007589
     6  C    0.435913   0.440803   0.333385  -0.124970
     7  C   -0.061428  -0.039750   0.010838   0.459351
     8  H    0.000025  -0.000320  -0.004307   0.004156
     9  H   -0.000289  -0.000296   0.000245  -0.009503
    10  H   -0.000007  -0.000006   0.000274  -0.000253
    11  H   -0.000091   0.000099  -0.000749  -0.001016
    12  H    0.000029   0.000125  -0.001692   0.000010
    13  H    0.000059  -0.000018   0.000045  -0.016261
    14  H    0.000003  -0.000001  -0.000005  -0.004465
    15  H   -0.000001  -0.000001  -0.000004   0.001960
    16  H    0.000000  -0.000002   0.000003  -0.000091
    17  H    0.000000   0.000001  -0.000006   0.000018
    18  H    0.000000   0.000004   0.000014   0.000052
    19  H    0.491777  -0.021276  -0.022582  -0.006018
    20  H   -0.021276   0.530812  -0.029908   0.003476
    21  H   -0.022582  -0.029908   0.550040   0.003788
    22  O   -0.006018   0.003476   0.003788   8.174232
 Mulliken atomic charges:
              1
     1  C    0.182599
     2  C   -0.267923
     3  C   -0.600872
     4  C   -0.509879
     5  C   -0.471151
     6  C   -0.467279
     7  C    0.190582
     8  H    0.181686
     9  H    0.207104
    10  H    0.170321
    11  H    0.165959
    12  H    0.169122
    13  H    0.172981
    14  H    0.164990
    15  H    0.154994
    16  H    0.158217
    17  H    0.161544
    18  H    0.154291
    19  H    0.161643
    20  H    0.145460
    21  H    0.142604
    22  O   -0.366992
 Sum of Mulliken atomic charges =   0.00000
 Mulliken charges with hydrogens summed into heavy atoms:
              1
     1  C    0.182599
     2  C    0.120866
     3  C   -0.095471
     4  C   -0.016913
     5  C    0.002900
     6  C   -0.017571
     7  C    0.190582
    22  O   -0.366992
 Sum of Mulliken charges with hydrogens summed into heavy atoms =   0.00000
 Electronic spatial extent (au):  <R**2>=           1149.3661
 Charge=              0.0000 electrons
 Dipole moment (field-independent basis, Debye):
    X=              0.8243    Y=             -2.6365    Z=             -0.5619  Tot=              2.8190
 Quadrupole moment (field-independent basis, Debye-Ang):
   XX=            -52.7550   YY=            -56.0837   ZZ=            -51.2470
   XY=              5.5506   XZ=              1.0772   YZ=             -0.4256
 Traceless Quadrupole moment (field-independent basis, Debye-Ang):
   XX=              0.6069   YY=             -2.7218   ZZ=              2.1149
   XY=              5.5506   XZ=              1.0772   YZ=             -0.4256
 Octapole moment (field-independent basis, Debye-Ang**2):
  XXX=             -9.3644  YYY=             -2.7711  ZZZ=             -1.9371  XYY=              3.3525
  XXY=             -8.6839  XXZ=              1.1883  XZZ=             -4.0070  YZZ=              2.7622
  YYZ=             -1.9500  XYZ=             -0.5446
 Hexadecapole moment (field-independent basis, Debye-Ang**3):
 XXXX=           -944.8151 YYYY=           -368.3093 ZZZZ=           -260.5854 XXXY=             14.9738
 XXXZ=             10.9935 YYYX=              2.2706 YYYZ=              0.9141 ZZZX=              1.4656
 ZZZY=             -1.5696 XXYY=           -237.4504 XXZZ=           -198.6413 YYZZ=           -101.7322
 XXYZ=             -0.5200 YYXZ=             -0.5063 ZZXY=              0.8593
 N-N= 4.001474845105D+02 E-N=-1.614448790455D+03  KE= 3.484200585337D+02
 Calling FoFJK, ICntrl=      2127 FMM=F ISym2X=0 I1Cent= 0 IOpClX= 0 NMat=1 NMatS=1 NMatT=0.
 ***** Axes restored to original set *****
 -------------------------------------------------------------------
 Center     Atomic                   Forces (Hartrees/Bohr)
 Number     Number              X              Y              Z
 -------------------------------------------------------------------
      1        6          -0.007648067   -0.000907264    0.000918771
      2        6           0.001020675    0.009014132   -0.015638758
      3        6           0.002326238    0.003256513    0.002804766
      4        6          -0.000776494   -0.004243152    0.005364755
      5        6          -0.000196227    0.000919974   -0.006485113
      6        6           0.010412628    0.011334563    0.005143514
      7        6           0.000555882   -0.030116827    0.016562949
      8        1          -0.005849416   -0.007518535    0.006464251
      9        1          -0.001507495    0.008482542    0.009928245
     10        1           0.012541648   -0.003375426   -0.003143996
     11        1          -0.005794155    0.002091572   -0.009732581
     12        1          -0.005485731   -0.008442982    0.006212117
     13        1          -0.004345381   -0.000371116   -0.012732071
     14        1          -0.000967122    0.010586325    0.007834771
     15        1           0.011968096   -0.000592770   -0.003898465
     16        1          -0.000388904    0.010409726    0.007106020
     17        1           0.012756042   -0.003019174   -0.002452234
     18        1          -0.004848769   -0.009680774    0.005858795
     19        1          -0.010085398    0.002222283   -0.012104823
     20        1          -0.008304380    0.001990343    0.008567849
     21        1           0.006024633   -0.008093856   -0.005718100
     22        8          -0.001408303    0.016053904   -0.010860663
 -------------------------------------------------------------------
 Cartesian Forces:  Max     0.030116827 RMS     0.008364045

 GradGradGradGradGradGradGradGradGradGradGradGradGradGradGradGradGradGrad
 Berny optimization.
 Internal  Forces:  Max     0.019301020 RMS     0.005451263
 Search for a local minimum.
 Step number   1 out of a maximum of  118
 All quantities printed in internal units (Hartrees-Bohrs-Radians)
 Swaping is turned off.
 Second derivative matrix not updated -- first step.
 ITU=  0
     Eigenvalues ---    0.00230   0.00230   0.00230   0.00230   0.00625
     Eigenvalues ---    0.00701   0.00772   0.03836   0.04373   0.04855
     Eigenvalues ---    0.04992   0.05287   0.05413   0.05462   0.05471
     Eigenvalues ---    0.05487   0.05500   0.05508   0.07380   0.07482
     Eigenvalues ---    0.09670   0.13029   0.14272   0.14482   0.16000
     Eigenvalues ---    0.16000   0.16000   0.16000   0.16000   0.16000
     Eigenvalues ---    0.16000   0.16000   0.16000   0.16000   0.16000
     Eigenvalues ---    0.16000   0.21968   0.24984   0.25000   0.27085
     Eigenvalues ---    0.28193   0.28247   0.28260   0.31284   0.32293
     Eigenvalues ---    0.32361   0.32420   0.32421   0.32425   0.32425
     Eigenvalues ---    0.32430   0.32433   0.32445   0.32450   0.32498
     Eigenvalues ---    0.32512   0.32595   0.32630   0.32630   0.94693
 Quadratic step=5.965D-01 exceeds max=3.000D-01 adjusted using Lamda=-5.799D-03.
 Angle between NR and scaled steps=  26.75 degrees.
 Angle between quadratic step and forces=  51.45 degrees.
 Linear search not attempted -- option 19 set.
 Iteration  1 RMS(Cart)=  0.06231610 RMS(Int)=  0.00112462
 Iteration  2 RMS(Cart)=  0.00159144 RMS(Int)=  0.00025366
 Iteration  3 RMS(Cart)=  0.00000127 RMS(Int)=  0.00025366
 Iteration  4 RMS(Cart)=  0.00000000 RMS(Int)=  0.00025366
 Variable       Old X    -DE/DX   Delta X   Delta X   Delta X     New X
                                 (Linear)    (Quad)   (Total)
    R1        2.94183  -0.00992   0.00000  -0.03585  -0.03585   2.90598
    R2        2.91602  -0.00762   0.00000  -0.02644  -0.02644   2.88958
    R3        2.91719  -0.00820   0.00000  -0.02848  -0.02848   2.88871
    R4        2.91574  -0.00754   0.00000  -0.02614  -0.02614   2.88960
    R5        2.85474   0.00027   0.00000   0.00085   0.00085   2.85559
    R6        2.10311  -0.01128   0.00000  -0.03432  -0.03432   2.06879
    R7        2.10188  -0.01265   0.00000  -0.03841  -0.03841   2.06347
    R8        2.10058  -0.01336   0.00000  -0.04047  -0.04047   2.06011
    R9        2.09917  -0.01151   0.00000  -0.03477  -0.03477   2.06440
   R10        2.10037  -0.01178   0.00000  -0.03568  -0.03568   2.06468
   R11        2.09705  -0.01318   0.00000  -0.03968  -0.03968   2.05737
   R12        2.10028  -0.01316   0.00000  -0.03983  -0.03983   2.06045
   R13        2.10064  -0.01240   0.00000  -0.03757  -0.03757   2.06307
   R14        2.10081  -0.01260   0.00000  -0.03818  -0.03818   2.06264
   R15        2.10080  -0.01331   0.00000  -0.04034  -0.04034   2.06045
   R16        2.10074  -0.01229   0.00000  -0.03724  -0.03724   2.06350
   R17        2.83374   0.00293   0.00000   0.00888   0.00888   2.84262
   R18        2.09942  -0.01572   0.00000  -0.04751  -0.04751   2.05191
   R19        2.09769  -0.01158   0.00000  -0.03491  -0.03491   2.06278
   R20        2.09705  -0.01085   0.00000  -0.03268  -0.03268   2.06437
   R21        2.30842  -0.01930   0.00000  -0.02026  -0.02026   2.28817
    A1        1.93164  -0.00109   0.00000  -0.01802  -0.01797   1.91366
    A2        1.94071   0.00022   0.00000  -0.00488  -0.00486   1.93586
    A3        1.89087  -0.00096   0.00000  -0.01062  -0.01052   1.88035
    A4        1.91090  -0.00009   0.00000   0.00362   0.00332   1.91422
    A5        1.89591   0.00127   0.00000   0.01515   0.01495   1.91086
    A6        1.89277   0.00073   0.00000   0.01585   0.01573   1.90850
    A7        1.99724  -0.00255   0.00000  -0.01623  -0.01641   1.98083
    A8        1.89986  -0.00098   0.00000  -0.00556  -0.00543   1.89443
    A9        1.91889   0.00000   0.00000  -0.01124  -0.01154   1.90735
   A10        1.89514   0.00260   0.00000   0.02345   0.02346   1.91860
   A11        1.89090   0.00007   0.00000  -0.01013  -0.01052   1.88039
   A12        1.85654   0.00116   0.00000   0.02316   0.02317   1.87971
   A13        1.93082  -0.00082   0.00000  -0.00667  -0.00666   1.92417
   A14        1.93698   0.00066   0.00000   0.00488   0.00485   1.94184
   A15        1.93022   0.00138   0.00000   0.00919   0.00917   1.93939
   A16        1.88122  -0.00012   0.00000  -0.00235  -0.00235   1.87887
   A17        1.89091  -0.00050   0.00000  -0.00474  -0.00472   1.88619
   A18        1.89213  -0.00067   0.00000  -0.00071  -0.00077   1.89136
   A19        1.94263   0.00099   0.00000   0.00729   0.00731   1.94995
   A20        1.93103   0.00128   0.00000   0.00417   0.00416   1.93520
   A21        1.93001  -0.00302   0.00000  -0.01600  -0.01598   1.91403
   A22        1.89683  -0.00171   0.00000  -0.01442  -0.01442   1.88241
   A23        1.87205   0.00189   0.00000   0.01818   0.01822   1.89027
   A24        1.88939   0.00059   0.00000   0.00097   0.00096   1.89035
   A25        1.93070   0.00074   0.00000   0.00445   0.00443   1.93513
   A26        1.93524  -0.00147   0.00000  -0.01005  -0.01003   1.92520
   A27        1.93276   0.00117   0.00000   0.00829   0.00828   1.94104
   A28        1.88809   0.00009   0.00000  -0.00180  -0.00180   1.88629
   A29        1.88968  -0.00072   0.00000  -0.00203  -0.00207   1.88761
   A30        1.88578   0.00016   0.00000   0.00101   0.00103   1.88681
   A31        1.93212  -0.00334   0.00000  -0.01485  -0.01482   1.91731
   A32        1.91331   0.00122   0.00000   0.00412   0.00414   1.91745
   A33        1.91558   0.00211   0.00000   0.01075   0.01078   1.92636
   A34        1.89863   0.00185   0.00000   0.01510   0.01513   1.91375
   A35        1.89850   0.00186   0.00000   0.01761   0.01764   1.91615
   A36        1.90537  -0.00374   0.00000  -0.03305  -0.03303   1.87234
   A37        2.10095  -0.01126   0.00000  -0.04302  -0.04440   2.05655
   A38        2.09527   0.00355   0.00000   0.01483   0.01347   2.10874
   A39        2.08638   0.00775   0.00000   0.03128   0.02988   2.11625
    D1        1.01374   0.00031   0.00000  -0.01498  -0.01508   0.99867
    D2       -1.10980  -0.00058   0.00000  -0.03010  -0.03016  -1.13995
    D3       -3.13705  -0.00142   0.00000  -0.04846  -0.04841   3.09772
    D4       -1.11417   0.00104   0.00000  -0.00377  -0.00384  -1.11801
    D5        3.04548   0.00014   0.00000  -0.01888  -0.01892   3.02656
    D6        1.01823  -0.00069   0.00000  -0.03725  -0.03718   0.98105
    D7        3.09061   0.00062   0.00000  -0.01363  -0.01364   3.07697
    D8        0.96707  -0.00027   0.00000  -0.02875  -0.02872   0.93835
    D9       -1.06018  -0.00111   0.00000  -0.04711  -0.04698  -1.10716
   D10        3.06781  -0.00009   0.00000   0.01157   0.01153   3.07934
   D11       -1.12799  -0.00034   0.00000   0.00743   0.00738  -1.12061
   D12        0.97270   0.00017   0.00000   0.01587   0.01584   0.98854
   D13       -1.07006  -0.00061   0.00000  -0.00412  -0.00412  -1.07418
   D14        1.01732  -0.00085   0.00000  -0.00826  -0.00828   1.00905
   D15        3.11801  -0.00035   0.00000   0.00017   0.00019   3.11820
   D16        0.99399   0.00095   0.00000   0.02590   0.02594   1.01993
   D17        3.08137   0.00071   0.00000   0.02176   0.02178   3.10316
   D18       -1.10113   0.00121   0.00000   0.03019   0.03025  -1.07088
   D19        1.18851  -0.00104   0.00000  -0.04584  -0.04584   1.14267
   D20       -0.92243  -0.00041   0.00000  -0.03532  -0.03532  -0.95775
   D21       -3.01565  -0.00001   0.00000  -0.02883  -0.02885  -3.04450
   D22       -0.95141   0.00026   0.00000  -0.02229  -0.02227  -0.97368
   D23       -3.06234   0.00089   0.00000  -0.01176  -0.01175  -3.07410
   D24        1.12762   0.00129   0.00000  -0.00528  -0.00528   1.12234
   D25       -3.01741  -0.00163   0.00000  -0.05183  -0.05182  -3.06923
   D26        1.15484  -0.00100   0.00000  -0.04131  -0.04130   1.11354
   D27       -0.93838  -0.00060   0.00000  -0.03482  -0.03483  -0.97321
   D28        1.04904   0.00068   0.00000   0.01142   0.01143   1.06047
   D29       -3.13936   0.00032   0.00000   0.00551   0.00552  -3.13384
   D30       -1.04612   0.00032   0.00000   0.00563   0.00562  -1.04050
   D31       -3.13485  -0.00047   0.00000  -0.00769  -0.00777   3.14057
   D32       -1.04006  -0.00083   0.00000  -0.01360  -0.01369  -1.05375
   D33        1.05318  -0.00082   0.00000  -0.01348  -0.01358   1.03960
   D34       -1.05937   0.00055   0.00000   0.01426   0.01436  -1.04501
   D35        1.03542   0.00019   0.00000   0.00835   0.00844   1.04386
   D36        3.12866   0.00020   0.00000   0.00848   0.00855   3.13720
   D37       -1.91516   0.00070   0.00000   0.06019   0.06007  -1.85509
   D38        1.26330  -0.00060   0.00000  -0.03785  -0.03749   1.22581
   D39        0.21096  -0.00036   0.00000   0.05945   0.05914   0.27011
   D40       -2.89376  -0.00166   0.00000  -0.03859  -0.03841  -2.93217
   D41        2.22045   0.00241   0.00000   0.09368   0.09339   2.31383
   D42       -0.88428   0.00111   0.00000  -0.00436  -0.00417  -0.88845
   D43       -3.13867  -0.00054   0.00000  -0.05584  -0.05606   3.08846
   D44       -0.03375   0.00067   0.00000   0.04137   0.04158   0.00783
   D45       -1.04404   0.00044   0.00000  -0.04382  -0.04404  -1.08808
   D46        2.06087   0.00164   0.00000   0.05339   0.05360   2.11447
   D47        1.04859  -0.00210   0.00000  -0.07525  -0.07546   0.97313
   D48       -2.12968  -0.00089   0.00000   0.02196   0.02218  -2.10750
         Item               Value     Threshold  Converged?
 Maximum Force            0.019301     0.000002     NO 
 RMS     Force            0.005451     0.000001     NO 
 Maximum Displacement     0.220550     0.000006     NO 
 RMS     Displacement     0.063081     0.000004     NO 
 Predicted change in Energy=-5.565092D-03
 GradGradGradGradGradGradGradGradGradGradGradGradGradGradGradGradGradGrad

                          Input orientation:                          
 ---------------------------------------------------------------------
 Center     Atomic      Atomic             Coordinates (Angstroms)
 Number     Number       Type             X           Y           Z
 ---------------------------------------------------------------------
      1          6           0       -0.764267   -0.071478   -0.338680
      2          6           0        0.669975   -0.398803   -0.786525
      3          6           0       -0.754715    1.176359    0.545041
      4          6           0       -1.376427   -1.242172    0.430391
      5          6           0       -1.594022    0.199094   -1.594258
      6          6           0        2.630831    0.483047    0.643910
      7          6           0        1.628432   -0.602991    0.363751
      8          1           0        1.027082    0.411331   -1.430454
      9          1           0        0.662155   -1.315498   -1.379773
     10          1           0       -1.773316    1.454116    0.816631
     11          1           0       -0.200957    1.002118    1.470461
     12          1           0       -0.299587    2.023056    0.025713
     13          1           0       -0.857634   -1.422040    1.370497
     14          1           0       -1.330974   -2.159432   -0.157329
     15          1           0       -2.423815   -1.028513    0.652196
     16          1           0       -1.615174   -0.678406   -2.243042
     17          1           0       -2.621296    0.444382   -1.323343
     18          1           0       -1.184961    1.034866   -2.165679
     19          1           0        3.213990    0.228588    1.523787
     20          1           0        3.294826    0.605138   -0.213844
     21          1           0        2.123462    1.437829    0.799932
     22          8           0        1.546393   -1.580491    1.073617
 ---------------------------------------------------------------------
                    Distance matrix (angstroms):
                    1          2          3          4          5
     1  C    0.000000
     2  C    1.537777   0.000000
     3  C    1.529102   2.506780   0.000000
     4  C    1.528638   2.525850   2.499793   0.000000
     5  C    1.529111   2.477015   2.497216   2.494755   0.000000
     6  C    3.577663   2.582394   3.457221   4.368076   4.789510
     7  C    2.549691   1.511114   2.979655   3.072812   3.855043
     8  H    2.152674   1.094755   2.768149   3.460300   2.634779
     9  H    2.160125   1.091940   3.452793   2.727249   2.725863
    10  H    2.163414   3.460215   1.090164   2.752575   2.723897
    11  H    2.177824   2.795548   1.092432   2.738670   3.460922
    12  H    2.176185   2.732249   1.092583   3.461944   2.761649
    13  H    2.180372   2.834316   2.728304   1.088714   3.458341
    14  H    2.171082   2.738521   3.457297   1.090343   2.774276
    15  H    2.156815   3.469581   2.767461   1.091727   2.691121
    16  H    2.172325   2.724248   3.457449   2.742641   1.091501
    17  H    2.164308   3.439710   2.740579   2.733084   1.090345
    18  H    2.176903   2.719975   2.748298   3.458489   1.091956
    19  H    4.402880   3.493304   4.196049   4.942730   5.730625
    20  H    4.116993   2.868049   4.159445   5.064405   5.096200
    21  H    3.451583   2.828902   2.901248   4.423595   4.591982
    22  O    3.100138   2.371628   3.629698   3.011823   4.488507
                    6          7          8          9         10
     6  C    0.000000
     7  C    1.504251   0.000000
     8  H    2.623002   2.147008   0.000000
     9  H    3.347497   2.116892   1.765695   0.000000
    10  H    4.513238   4.001085   3.738852   4.292606   0.000000
    11  H    2.995271   2.673546   3.205061   3.773611   1.761847
    12  H    3.367662   3.275309   2.545217   3.747837   1.766669
    13  H    4.040628   2.804443   3.841709   3.144057   3.068796
    14  H    4.829138   3.384097   3.713502   2.485791   3.768553
    15  H    5.275825   4.084725   4.280102   3.706004   2.571699
    16  H    5.264221   4.161975   2.971420   2.517409   3.732862
    17  H    5.608602   4.690785   3.650099   3.725777   2.513587
    18  H    4.770593   4.122593   2.412982   3.090906   3.068568
    19  H    1.085821   2.133355   3.680150   4.162538   5.184130
    20  H    1.091575   2.137770   2.580769   3.461097   5.241059
    21  H    1.092417   2.144821   2.688935   3.803596   3.896848
    22  O    2.370410   1.210845   3.241514   2.621301   4.505036
                   11         12         13         14         15
    11  H    0.000000
    12  H    1.771817   0.000000
    13  H    2.513515   3.740126   0.000000
    14  H    3.731225   4.311666   1.761264   0.000000
    15  H    3.119955   3.770530   1.767412   1.768787   0.000000
    16  H    4.314426   3.765091   3.766235   2.573792   3.026364
    17  H    3.738241   3.114883   3.721668   3.131193   2.472078
    18  H    3.767074   2.561758   4.318342   3.776021   3.705768
    19  H    3.501865   4.220138   4.396156   5.402360   5.841646
    20  H    3.900638   3.871393   4.884927   5.389255   6.010133
    21  H    2.458125   2.610186   4.170291   5.078362   5.175172
    22  O    3.143340   4.182259   2.427466   3.182710   4.030487
                   16         17         18         19         20
    16  H    0.000000
    17  H    1.766007   0.000000
    18  H    1.768154   1.766709   0.000000
    19  H    6.191322   6.496405   5.797673   0.000000
    20  H    5.465641   6.021406   4.905386   1.779800   0.000000
    21  H    5.264555   5.292255   4.461266   1.781988   1.758752
    22  O    4.670063   5.216815   4.979300   2.501260   3.080836
                   21         22
    21  H    0.000000
    22  O    3.085153   0.000000
 Stoichiometry    C7H14O
 Framework group  C1[X(C7H14O)]
 Deg. of freedom    60
 Full point group                 C1      NOp   1
 Largest Abelian subgroup         C1      NOp   1
 Largest concise Abelian subgroup C1      NOp   1
                         Standard orientation:                         
 ---------------------------------------------------------------------
 Center     Atomic      Atomic             Coordinates (Angstroms)
 Number     Number       Type             X           Y           Z
 ---------------------------------------------------------------------
      1          6           0        1.043203   -0.053181    0.012000
      2          6           0       -0.166499   -0.156528   -0.931769
      3          6           0        0.826045   -0.956050    1.226834
      4          6           0        1.253701    1.388849    0.473493
      5          6           0        2.277068   -0.523596   -0.759016
      6          6           0       -2.425760   -0.927407    0.053240
      7          6           0       -1.478599    0.195597   -0.270053
      8          1           0       -0.211130   -1.175191   -1.330291
      9          1           0       -0.025709    0.523682   -1.774281
     10          1           0        1.704974   -0.938914    1.871541
     11          1           0       -0.027367   -0.621785    1.821278
     12          1           0        0.649383   -1.990295    0.922097
     13          1           0        0.427381    1.739478    1.089571
     14          1           0        1.342765    2.061034   -0.380370
     15          1           0        2.171743    1.456469    1.060429
     16          1           0        2.452779    0.105884   -1.633233
     17          1           0        3.161742   -0.474658   -0.123556
     18          1           0        2.160702   -1.554428   -1.099917
     19          1           0       -3.297171   -0.537475    0.570544
     20          1           0       -2.737441   -1.426051   -0.866404
     21          1           0       -1.930053   -1.675607    0.676014
     22          8           0       -1.727194    1.337719    0.046025
 ---------------------------------------------------------------------
 Rotational constants (GHZ):      3.1481075      1.4031716      1.2590063
 Standard basis: 6-311+G(2df,2p) (5D, 7F)
 There are   398 symmetry adapted basis functions of A   symmetry.
 Integral buffers will be    131072 words long.
 Raffenetti 2 integral format.
 Two-electron integral symmetry is turned on.
   398 basis functions,   570 primitive gaussians,   438 cartesian basis functions
    32 alpha electrons       32 beta electrons
       nuclear repulsion energy       405.2163060288 Hartrees.
 NAtoms=   22 NActive=   22 NUniq=   22 SFac= 1.00D+00 NAtFMM=   50 NAOKFM=F Big=F
 One-electron integrals computed using PRISM.
 NBasis=   398 RedAO= T  NBF=   398
 NBsUse=   398 1.00D-06 NBFU=   398
 Initial guess read from the read-write file.
 B after Tr=     0.000000    0.000000    0.000000
         Rot=    1.000000    0.000000    0.000000    0.000000 Ang=   0.00 deg.
 Initial guess orbital symmetries:
       Occupied  (A) (A) (A) (A) (A) (A) (A) (A) (A) (A) (A) (A)
                 (A) (A) (A) (A) (A) (A) (A) (A) (A) (A) (A) (A)
                 (A) (A) (A) (A) (A) (A) (A) (A)
       Virtual   (A) (A) (A) (A) (A) (A) (A) (A) (A) (A) (A) (A)
                 (A) (A) (A) (A) (A) (A) (A) (A) (A) (A) (A) (A)
                 (A) (A) (A) (A) (A) (A) (A) (A) (A) (A) (A) (A)
                 (A) (A) (A) (A) (A) (A) (A) (A) (A) (A) (A) (A)
                 (A) (A) (A) (A) (A) (A) (A) (A) (A) (A) (A) (A)
                 (A) (A) (A) (A) (A) (A) (A) (A) (A) (A) (A) (A)
                 (A) (A) (A) (A) (A) (A) (A) (A) (A) (A) (A) (A)
                 (A) (A) (A) (A) (A) (A) (A) (A) (A) (A) (A) (A)
                 (A) (A) (A) (A) (A) (A) (A) (A) (A) (A) (A) (A)
                 (A) (A) (A) (A) (A) (A) (A) (A) (A) (A) (A) (A)
                 (A) (A) (A) (A) (A) (A) (A) (A) (A) (A) (A) (A)
                 (A) (A) (A) (A) (A) (A) (A) (A) (A) (A) (A) (A)
                 (A) (A) (A) (A) (A) (A) (A) (A) (A) (A) (A) (A)
                 (A) (A) (A) (A) (A) (A) (A) (A) (A) (A) (A) (A)
                 (A) (A) (A) (A) (A) (A) (A) (A) (A) (A) (A) (A)
                 (A) (A) (A) (A) (A) (A) (A) (A) (A) (A) (A) (A)
                 (A) (A) (A) (A) (A) (A) (A) (A) (A) (A) (A) (A)
                 (A) (A) (A) (A) (A) (A) (A) (A) (A) (A) (A) (A)
                 (A) (A) (A) (A) (A) (A) (A) (A) (A) (A) (A) (A)
                 (A) (A) (A) (A) (A) (A) (A) (A) (A) (A) (A) (A)
                 (A) (A) (A) (A) (A) (A) (A) (A) (A) (A) (A) (A)
                 (A) (A) (A) (A) (A) (A) (A) (A) (A) (A) (A) (A)
                 (A) (A) (A) (A) (A) (A) (A) (A) (A) (A) (A) (A)
                 (A) (A) (A) (A) (A) (A) (A) (A) (A) (A) (A) (A)
                 (A) (A) (A) (A) (A) (A) (A) (A) (A) (A) (A) (A)
                 (A) (A) (A) (A) (A) (A) (A) (A) (A) (A) (A) (A)
                 (A) (A) (A) (A) (A) (A) (A) (A) (A) (A) (A) (A)
                 (A) (A) (A) (A) (A) (A) (A) (A) (A) (A) (A) (A)
                 (A) (A) (A) (A) (A) (A) (A) (A) (A) (A) (A) (A)
                 (A) (A) (A) (A) (A) (A) (A) (A) (A) (A) (A) (A)
                 (A) (A) (A) (A) (A) (A)
 Harris functional with IExCor= 1009 diagonalized for initial guess.
 ExpMin= 4.38D-02 ExpMax= 8.59D+03 ExpMxC= 1.30D+03 IAcc=2 IRadAn=         0 AccDes= 0.00D+00
 HarFok:  IExCor= 1009 AccDes= 0.00D+00 IRadAn=         0 IDoV= 1
 ScaDFX=  1.000000  1.000000  1.000000  1.000000
 FoFCou: FMM=F IPFlag=           0 FMFlag=      100000 FMFlg1=           0
         NFxFlg=           0 DoJE=T BraDBF=F KetDBF=T FulRan=T
         Omega=  0.000000  0.000000  1.000000  0.000000  0.000000 ICntrl=     500 IOpCl=  0
         NMat0=    1 NMatS0=    1 NMatT0=    0 NMatD0=    1 NMtDS0=    0 NMtDT0=    0
         I1Cent=           4 NGrid=           0.
 Petite list used in FoFCou.
 Requested convergence on RMS density matrix=1.00D-08 within 128 cycles.
 Requested convergence on MAX density matrix=1.00D-06.
 Requested convergence on             energy=1.00D-06.
 No special actions if energy rises.
 SCF Done:  E(RM062X) =  -350.356938760     A.U. after   12 cycles
             Convg  =    0.5503D-08             -V/T =  2.0041
 Calling FoFJK, ICntrl=      2127 FMM=F ISym2X=0 I1Cent= 0 IOpClX= 0 NMat=1 NMatS=1 NMatT=0.
 ***** Axes restored to original set *****
 -------------------------------------------------------------------
 Center     Atomic                   Forces (Hartrees/Bohr)
 Number     Number              X              Y              Z
 -------------------------------------------------------------------
      1        6          -0.001536761   -0.000097093    0.001427852
      2        6           0.005021709    0.000496061   -0.006692984
      3        6          -0.000558540    0.000178018    0.000480488
      4        6          -0.001459614    0.000614287    0.001112086
      5        6           0.000389317    0.000184482   -0.000215021
      6        6           0.003575361    0.000789061    0.000200642
      7        6          -0.005625604   -0.004242845    0.009723583
      8        1           0.000116281   -0.000846348    0.000851770
      9        1          -0.000769391   -0.000649821    0.000397136
     10        1          -0.000386323    0.000479967    0.000257946
     11        1          -0.000559820    0.000209248   -0.000116358
     12        1          -0.000280642    0.000129178    0.000099835
     13        1           0.000099596   -0.000247745   -0.000811037
     14        1          -0.000157330   -0.000331227   -0.000096147
     15        1          -0.000103648    0.000025361   -0.000218654
     16        1          -0.000053642    0.000063359    0.000100895
     17        1          -0.000520422    0.000100372   -0.000094458
     18        1          -0.000114959   -0.000183051    0.000214886
     19        1           0.000245677   -0.000097066    0.000231660
     20        1          -0.000376728    0.000538377   -0.000294935
     21        1          -0.000248203   -0.000912262   -0.001332987
     22        8           0.003303686    0.003799686   -0.005226199
 -------------------------------------------------------------------
 Cartesian Forces:  Max     0.009723583 RMS     0.002123901

 GradGradGradGradGradGradGradGradGradGradGradGradGradGradGradGradGradGrad
 Berny optimization.
 Using GDIIS optimizer.
 Internal  Forces:  Max     0.006358556 RMS     0.001116905
 Search for a local minimum.
 Step number   2 out of a maximum of  118
 All quantities printed in internal units (Hartrees-Bohrs-Radians)
 Swaping is turned off.
 Update second derivatives using D2CorX and points    1    2
 DE= -5.14D-03 DEPred=-5.57D-03 R= 9.24D-01
 SS=  1.41D+00  RLast= 3.00D-01 DXNew= 5.0454D-01 9.0117D-01
 Trust test= 9.24D-01 RLast= 3.00D-01 DXMaxT set to 5.05D-01
 ITU=  1  0
     Eigenvalues ---    0.00229   0.00230   0.00230   0.00231   0.00624
     Eigenvalues ---    0.00770   0.00805   0.03986   0.04562   0.04813
     Eigenvalues ---    0.04969   0.05366   0.05381   0.05387   0.05423
     Eigenvalues ---    0.05517   0.05522   0.05564   0.07354   0.07413
     Eigenvalues ---    0.09451   0.12935   0.14215   0.14495   0.15884
     Eigenvalues ---    0.16000   0.16000   0.16000   0.16000   0.16000
     Eigenvalues ---    0.16000   0.16000   0.16000   0.16000   0.16000
     Eigenvalues ---    0.16125   0.21973   0.23886   0.25002   0.27138
     Eigenvalues ---    0.28210   0.28239   0.28665   0.30324   0.31958
     Eigenvalues ---    0.32329   0.32369   0.32421   0.32423   0.32427
     Eigenvalues ---    0.32432   0.32441   0.32448   0.32484   0.32504
     Eigenvalues ---    0.32577   0.32599   0.32630   0.34220   0.92770
 DIIS coeff's:      0.95025      0.04975
 Cosine:  1.000 >  0.970
 Length:  1.000
 GDIIS step was calculated using  2 of the last  2 vectors.
 Iteration  1 RMS(Cart)=  0.09288104 RMS(Int)=  0.00343628
 Iteration  2 RMS(Cart)=  0.00566568 RMS(Int)=  0.00141665
 Iteration  3 RMS(Cart)=  0.00001552 RMS(Int)=  0.00141663
 Iteration  4 RMS(Cart)=  0.00000001 RMS(Int)=  0.00141663
 Variable       Old X    -DE/DX   Delta X   Delta X   Delta X     New X
                                  (DIIS)     (GDIIS)  (Total)
    R1        2.90598   0.00575   0.00178   0.01047   0.01225   2.91823
    R2        2.88958   0.00122   0.00132  -0.00306  -0.00174   2.88784
    R3        2.88871   0.00060   0.00142  -0.00570  -0.00428   2.88443
    R4        2.88960   0.00019   0.00130  -0.00644  -0.00514   2.88446
    R5        2.85559   0.00308  -0.00004   0.00960   0.00956   2.86515
    R6        2.06879  -0.00108   0.00171  -0.01247  -0.01076   2.05803
    R7        2.06347   0.00033   0.00191  -0.00941  -0.00750   2.05597
    R8        2.06011   0.00055   0.00201  -0.00933  -0.00732   2.05280
    R9        2.06440  -0.00041   0.00173  -0.01060  -0.00887   2.05552
   R10        2.06468  -0.00007   0.00178  -0.00986  -0.00809   2.05660
   R11        2.05737  -0.00062   0.00197  -0.01252  -0.01055   2.04682
   R12        2.06045   0.00033   0.00198  -0.00980  -0.00781   2.05264
   R13        2.06307   0.00005   0.00187  -0.01000  -0.00813   2.05493
   R14        2.06264  -0.00011   0.00190  -0.01066  -0.00876   2.05388
   R15        2.06045   0.00049   0.00201  -0.00947  -0.00746   2.05299
   R16        2.06350  -0.00029   0.00185  -0.01093  -0.00908   2.05442
   R17        2.84262   0.00214  -0.00044   0.00868   0.00824   2.85086
   R18        2.05191   0.00034   0.00236  -0.01184  -0.00948   2.04243
   R19        2.06278   0.00006   0.00174  -0.00926  -0.00753   2.05525
   R20        2.06437  -0.00087   0.00163  -0.01137  -0.00974   2.05463
   R21        2.28817  -0.00636   0.00101  -0.01185  -0.01084   2.27733
    A1        1.91366   0.00097   0.00089   0.00857   0.00944   1.92310
    A2        1.93586   0.00059   0.00024   0.00821   0.00842   1.94428
    A3        1.88035  -0.00069   0.00052  -0.00845  -0.00790   1.87245
    A4        1.91422  -0.00061  -0.00017  -0.00208  -0.00231   1.91191
    A5        1.91086  -0.00022  -0.00074  -0.00317  -0.00389   1.90696
    A6        1.90850  -0.00005  -0.00078  -0.00332  -0.00409   1.90441
    A7        1.98083   0.00223   0.00082   0.00500   0.00583   1.98666
    A8        1.89443  -0.00015   0.00027  -0.00080  -0.00053   1.89390
    A9        1.90735  -0.00125   0.00057  -0.01021  -0.00962   1.89773
   A10        1.91860  -0.00128  -0.00117  -0.00124  -0.00241   1.91619
   A11        1.88039  -0.00020   0.00052  -0.00190  -0.00135   1.87904
   A12        1.87971   0.00058  -0.00115   0.00944   0.00828   1.88799
   A13        1.92417   0.00035   0.00033  -0.00063  -0.00030   1.92387
   A14        1.94184   0.00029  -0.00024   0.00357   0.00332   1.94516
   A15        1.93939   0.00019  -0.00046   0.00395   0.00348   1.94287
   A16        1.87887  -0.00040   0.00012  -0.00371  -0.00359   1.87528
   A17        1.88619  -0.00038   0.00024  -0.00456  -0.00432   1.88186
   A18        1.89136  -0.00008   0.00004   0.00093   0.00095   1.89231
   A19        1.94995  -0.00002  -0.00036   0.00232   0.00196   1.95191
   A20        1.93520   0.00015  -0.00021   0.00096   0.00075   1.93594
   A21        1.91403  -0.00012   0.00080  -0.00441  -0.00362   1.91041
   A22        1.88241  -0.00020   0.00072  -0.00629  -0.00557   1.87684
   A23        1.89027   0.00030  -0.00091   0.00879   0.00788   1.89814
   A24        1.89035  -0.00011  -0.00005  -0.00127  -0.00132   1.88903
   A25        1.93513  -0.00004  -0.00022   0.00095   0.00073   1.93586
   A26        1.92520   0.00032   0.00050  -0.00077  -0.00027   1.92494
   A27        1.94104  -0.00011  -0.00041   0.00157   0.00116   1.94220
   A28        1.88629  -0.00015   0.00009  -0.00134  -0.00125   1.88504
   A29        1.88761   0.00007   0.00010  -0.00025  -0.00015   1.88746
   A30        1.88681  -0.00010  -0.00005  -0.00026  -0.00032   1.88650
   A31        1.91731   0.00057   0.00074   0.00189   0.00262   1.91993
   A32        1.91745   0.00011  -0.00021   0.00075   0.00051   1.91796
   A33        1.92636  -0.00142  -0.00054  -0.00695  -0.00751   1.91885
   A34        1.91375   0.00020  -0.00075   0.00820   0.00743   1.92118
   A35        1.91615   0.00081  -0.00088   0.01158   0.01070   1.92685
   A36        1.87234  -0.00028   0.00164  -0.01568  -0.01410   1.85824
   A37        2.05655  -0.00191   0.00221  -0.01510  -0.02133   2.03522
   A38        2.10874   0.00203  -0.00067   0.01551   0.00629   2.11503
   A39        2.11625  -0.00001  -0.00149   0.01225   0.00231   2.11856
    D1        0.99867  -0.00028   0.00075  -0.09430  -0.09351   0.90516
    D2       -1.13995  -0.00004   0.00150  -0.09550  -0.09396  -1.23392
    D3        3.09772   0.00005   0.00241  -0.10066  -0.09822   2.99950
    D4       -1.11801  -0.00055   0.00019  -0.10272  -0.10256  -1.22057
    D5        3.02656  -0.00030   0.00094  -0.10392  -0.10301   2.92354
    D6        0.98105  -0.00022   0.00185  -0.10908  -0.10727   0.87378
    D7        3.07697  -0.00040   0.00068  -0.09823  -0.09754   2.97943
    D8        0.93835  -0.00016   0.00143  -0.09942  -0.09800   0.84035
    D9       -1.10716  -0.00007   0.00234  -0.10458  -0.10225  -1.20942
   D10        3.07934  -0.00051  -0.00057  -0.01983  -0.02040   3.05894
   D11       -1.12061  -0.00060  -0.00037  -0.02259  -0.02295  -1.14357
   D12        0.98854  -0.00038  -0.00079  -0.01626  -0.01704   0.97149
   D13       -1.07418   0.00046   0.00021  -0.00544  -0.00525  -1.07943
   D14        1.00905   0.00037   0.00041  -0.00820  -0.00780   1.00125
   D15        3.11820   0.00059  -0.00001  -0.00188  -0.00189   3.11631
   D16        1.01993  -0.00012  -0.00129  -0.01275  -0.01404   1.00589
   D17        3.10316  -0.00021  -0.00108  -0.01550  -0.01659   3.08657
   D18       -1.07088   0.00002  -0.00151  -0.00918  -0.01068  -1.08155
   D19        1.14267   0.00032   0.00228  -0.05364  -0.05136   1.09131
   D20       -0.95775   0.00048   0.00176  -0.04787  -0.04612  -1.00386
   D21       -3.04450   0.00060   0.00144  -0.04407  -0.04263  -3.08713
   D22       -0.97368  -0.00088   0.00111  -0.06833  -0.06722  -1.04089
   D23       -3.07410  -0.00071   0.00058  -0.06256  -0.06197  -3.13606
   D24        1.12234  -0.00059   0.00026  -0.05876  -0.05849   1.06385
   D25       -3.06923  -0.00020   0.00258  -0.06113  -0.05856  -3.12779
   D26        1.11354  -0.00004   0.00205  -0.05536  -0.05332   1.06023
   D27       -0.97321   0.00008   0.00173  -0.05156  -0.04983  -1.02304
   D28        1.06047  -0.00014  -0.00057  -0.00194  -0.00250   1.05797
[...]
 061532,-0.00905317,-0.01449494,0.00863574,-0.00063812,0.00019010,0.000
 88970,0.05238946,0.09556993,-0.10547302,-0.00011595,-0.00297444,-0.002
 00706,-0.00004948,-0.00068216,0.00147065,0.00000171,0.00015511,-0.0000
 0518,0.00080133,0.00067705,-0.00022469,0.00015530,0.00023576,-0.000142
 55,-0.00023384,0.00014706,0.00004113,0.00219185,0.00499175,-0.00393833
 ,0.01312590,0.02008261,-0.01193866,-0.05797799,-0.10256815,0.11184737,
 0.00826264,-0.00223355,0.01225418,0.00033718,0.00063866,-0.00025079,0.
 00029386,0.00068812,0.00034940,-0.11936472,0.03012345,-0.11764470,-0.0
 0129923,-0.00225171,0.00157380,0.00007403,0.00017077,-0.00009772,-0.00
 140116,-0.00194697,0.00199039,0.00013079,0.00003640,-0.00023124,0.0000
 4443,0.00009386,0.00001358,-0.00009577,0.00002685,-0.00016842,0.000269
 75,0.00006823,-0.00023316,-0.00002263,0.00008757,0.00012914,0.12898031
 ,0.01441814,-0.00589166,0.01983507,0.00047941,0.00063432,-0.00042121,0
 .00102318,0.00144194,0.00092017,0.02953930,-0.05978062,0.04789937,-0.0
 0278761,-0.00397045,0.00183502,-0.00005797,-0.00008328,-0.00002012,-0.
 00079536,0.00009768,0.00046849,0.00018260,-0.00009424,-0.00008152,-0.0
 0020724,-0.00010498,-0.00005653,0.00001659,-0.00011909,-0.00001314,-0.
 00034865,-0.00026269,-0.00043357,-0.00011678,0.00033578,-0.00022478,-0
 .03113593,0.06394228,-0.00787228,0.00220118,-0.01362217,-0.00052320,0.
 00004839,0.00021631,-0.00000183,-0.00098790,0.00064427,-0.11451043,0.0
 4804591,-0.23206903,0.00248916,0.00282363,-0.00053540,0.00013820,-0.00
 035581,0.00007743,0.00043243,0.00141218,-0.00105076,-0.00005468,0.0000
 1747,0.00011379,0.00005368,-0.00002382,-0.00009139,0.00010614,0.000059
 28,-0.00003676,-0.00009459,0.00044788,0.00054887,0.00021656,-0.0001039
 9,0.00008443,0.12658048,-0.05491490,0.25051979,-0.00208295,-0.01116520
 ,-0.00877308,0.00081103,-0.00083062,-0.00121820,-0.00115082,-0.0019725
 0,0.00162534,-0.04718816,-0.00342514,-0.00235877,0.00000371,0.00063391
 ,-0.00028451,0.00006846,0.00007283,0.00001489,-0.00021549,-0.00041529,
 0.00003156,0.00019223,0.00022827,0.00004717,-0.00039884,0.00013101,0.0
 0049831,0.00028865,-0.00025655,-0.00009545,0.00001608,0.00018401,0.000
 28569,0.00052544,-0.00093405,-0.00036623,-0.00050692,-0.01445009,-0.00
 919957,0.04717504,0.00043322,-0.02112751,-0.01543577,0.00085213,0.0007
 6254,-0.00080477,-0.00265675,-0.00310441,0.00417172,-0.00426214,-0.219
 45356,-0.12404878,0.00015886,0.00074782,-0.00156771,0.00011211,-0.0000
 6420,0.00006329,-0.00005055,-0.00019983,0.00003278,0.00022964,0.000284
 44,0.00023428,-0.00072904,0.00048569,0.00043537,0.00005132,0.00035342,
 0.00016942,-0.00004002,0.00023719,-0.00002737,-0.00022067,-0.00148384,
 -0.00096067,-0.00003793,0.00642945,0.00446764,0.00646373,0.24089938,-0
 .00001339,0.01349358,0.00844537,-0.00057345,0.00020094,0.00067027,0.00
 116376,0.00251382,-0.00106420,-0.00295478,-0.12567541,-0.13652268,0.00
 019089,0.00054325,0.00128621,0.00000949,0.00004384,-0.00003420,0.00015
 571,-0.00012709,-0.00005095,-0.00022690,0.00002018,0.00009428,-0.00005
 471,-0.00019438,0.00000071,-0.00003467,0.00007967,-0.00015110,0.000239
 42,0.00016426,0.00014280,0.00013226,0.00075299,0.00081927,0.00108218,-
 0.02220601,-0.01474169,0.00152329,0.13532669,0.14575776,-0.01441730,0.
 00356221,0.00353796,-0.00001940,-0.00272354,0.00101520,0.00019573,0.00
 094184,-0.00016705,-0.27995520,0.06013294,0.06202694,0.00056670,0.0007
 9445,-0.00091202,-0.00002613,-0.00017490,-0.00012553,0.00087020,0.0004
 5000,0.00045361,-0.00093073,0.00005739,0.00031812,0.00035234,-0.000013
 97,-0.00015137,0.00032602,-0.00070754,-0.00025314,-0.00013907,-0.00005
 289,0.00006491,0.00042294,-0.00005697,-0.00009265,-0.01403840,0.003417
 87,0.00507212,0.00197580,-0.00033229,-0.00072280,0.30470142,-0.0239099
 4,0.00465750,0.00633632,-0.00238438,-0.00379784,0.00223965,-0.00076712
 ,0.00145620,0.00036744,0.06137344,-0.06288529,-0.01721347,-0.00069162,
 0.00090482,-0.00077327,-0.00006089,0.00006752,-0.00002910,0.00058107,-
 0.00088977,0.00113975,-0.00147186,0.00048687,0.00053669,0.00009496,0.0
 0013249,0.00016385,0.00024774,-0.00052664,-0.00005312,0.00002885,-0.00
 005348,-0.00011263,0.00024313,0.00029416,-0.00000460,0.00534966,-0.002
 47706,-0.00252360,0.02496072,-0.00543610,-0.00498483,-0.06467263,0.067
 35050,0.01541068,-0.00398937,-0.00596144,0.00116085,0.00304364,-0.0015
 8627,-0.00050454,-0.00067030,0.00023998,0.06135172,-0.01674327,-0.0636
 8075,0.00116559,-0.00093099,0.00052832,0.00015369,-0.00023547,0.000122
 18,-0.00031792,0.00102517,-0.00106072,0.00120996,0.00006703,-0.0000043
 1,-0.00033072,0.00023660,0.00022877,-0.00020663,0.00009680,0.00043135,
 -0.00015215,0.00008318,-0.00005485,-0.00015133,-0.00002241,-0.00015223
 ,-0.02484454,0.00612305,0.00910488,0.01788720,-0.00327647,-0.00503132,
 -0.07016210,0.01548361,0.06615606,-0.00169243,-0.01470684,-0.01051694,
 0.00105351,-0.00111133,-0.00029360,-0.00199494,0.00118581,-0.00288906,
 0.00009278,-0.00037799,0.00086700,-0.04635988,0.00049511,0.00154319,0.
 00012570,-0.00001063,0.00008842,-0.00005686,0.00013548,-0.00025258,0.0
 0002419,-0.00010061,0.00016921,-0.00036313,0.00048696,-0.00015888,0.00
 029408,-0.00012630,-0.00019696,0.00045174,-0.00082904,-0.00093272,0.00
 001392,0.00031541,0.00012237,-0.00016641,-0.00006550,0.00012527,0.0003
 3765,0.00018060,0.00017754,-0.00004749,0.00016052,0.00004510,0.0472957
 5,0.00006199,0.00371328,0.00413429,-0.00025160,0.00045688,0.00050135,0
 .00017099,0.00078977,0.00084383,0.00018728,0.00103247,0.00044539,-0.00
 031626,-0.21395546,-0.12657692,0.00005308,-0.00007301,0.00000841,-0.00
 014263,0.00022683,0.00012806,-0.00000967,-0.00017921,-0.00018788,-0.00
 025250,0.00017368,-0.00003219,0.00001008,-0.00002756,0.00022302,0.0001
 1529,0.00044428,0.00002900,0.00021988,0.00023992,0.00016389,-0.0000540
 6,0.00020276,-0.00006369,0.00020226,0.00010000,-0.00009966,-0.00012279
 ,-0.00006467,-0.00003019,-0.00061676,0.23020788,0.00084061,-0.02222487
 ,-0.01718340,0.00124791,-0.00061677,0.00088931,-0.00341567,0.00258957,
 -0.00446607,0.00033328,-0.00169875,0.00108448,0.00086498,-0.12518894,-
 0.14029397,0.00012577,-0.00006432,0.00017538,0.00020375,0.00027427,-0.
 00013888,-0.00012316,0.00016312,-0.00003366,-0.00059504,0.00041957,0.0
 0037403,-0.00001691,0.00034543,0.00026524,-0.00030193,-0.00161815,-0.0
 0097726,-0.00012447,-0.00012316,0.00018835,-0.00012252,0.00024869,0.00
 040003,0.00005079,0.00100470,-0.00006949,-0.00002983,0.00004855,-0.000
 08679,0.00194927,0.13854653,0.15408268,-0.01759184,0.00359222,0.004879
 44,-0.00225397,0.00045228,-0.00449898,0.00037050,0.00019482,0.00124186
 ,0.00061787,-0.00061087,0.00116975,-0.28316404,0.05316286,0.06366775,-
 0.00007403,-0.00004184,-0.00039765,-0.00003379,-0.00008121,0.00229680,
 0.00053632,-0.00001689,-0.00014217,0.00027084,-0.00000254,0.00006008,0
 .00035571,-0.00052016,-0.00058616,0.00049406,-0.00003016,-0.00005470,-
 0.00007026,0.00006806,-0.00006941,0.00029382,-0.00021666,-0.00016363,-
 0.00006262,-0.00003188,-0.00012012,0.00066703,0.00033184,-0.00044194,0
 .00144616,-0.00036681,-0.00034583,0.30879098,0.00581395,-0.00314228,-0
 .00165413,0.00052765,-0.00037659,0.00169860,-0.00086451,0.00017251,-0.
 00005132,0.00076077,0.00014225,-0.00060395,0.05300160,-0.05964088,-0.0
 1449388,0.00009552,-0.00007273,0.00021775,0.00041351,0.00080231,-0.000
 60207,0.00015441,0.00020957,-0.00031266,-0.00034237,0.00029718,0.00017
 005,-0.00009574,0.00027209,-0.00026203,0.00001924,-0.00012673,0.000075
 61,-0.00012742,-0.00004162,0.00006922,-0.00022184,-0.00000493,-0.00005
 683,0.00008957,-0.00010567,-0.00007415,-0.00016119,0.00000801,0.000537
 93,0.02490890,-0.00481748,-0.00556842,-0.05921702,0.06012030,-0.025140
 26,0.00559965,0.00526360,-0.00359520,0.00111256,-0.00410578,-0.0004876
 2,0.00073936,0.00156719,-0.00095113,-0.00055118,0.00125568,0.06486694,
 -0.01464038,-0.06364772,0.00007218,-0.00016236,-0.00033079,-0.00101918
 ,0.00035284,0.00186326,-0.00004279,-0.00027580,-0.00010700,0.00009028,
 0.00018697,-0.00009298,0.00036128,-0.00023748,-0.00032668,0.00027373,0
 .00014979,0.00021101,0.00007912,-0.00009478,-0.00008047,0.00003501,-0.
 00024198,0.00014113,0.00015861,0.00005677,-0.00006416,0.00037221,0.000
 10381,-0.00022812,0.01844581,-0.00269013,-0.00501815,-0.06777091,0.014
 84082,0.06894246,0.00514468,0.01415187,-0.00828675,0.00155626,0.000923
 66,-0.00073809,0.00044074,0.00060179,0.00058603,-0.00158197,0.00067481
 ,-0.00242084,-0.08656108,-0.07945303,0.05053897,0.00003271,-0.00000175
 ,0.00003870,0.00005311,0.00005067,-0.00025965,-0.00043070,-0.00012674,
 0.00002615,-0.00007680,0.00004108,0.00005362,-0.00009394,-0.00020656,0
 .00004336,-0.00004719,0.00018702,0.00015565,0.00012077,-0.00020082,0.0
 0015116,0.00074682,0.00060921,-0.00067127,-0.00018062,-0.00007812,0.00
 000129,0.00030326,-0.00000531,-0.00030958,-0.00058079,0.00111537,-0.00
 065873,-0.01049258,-0.02463767,0.01411932,0.09160593,-0.00273034,-0.00
 631073,0.00236259,-0.00068480,-0.00034155,-0.00016829,-0.00002507,0.00
 074070,-0.00087931,0.00191774,0.00056823,0.00135791,-0.07850865,-0.206
 88678,0.10025052,-0.00001372,0.00005816,0.00002100,0.00028663,0.000055
 75,0.00005273,0.00080433,0.00023559,-0.00008901,-0.00012084,-0.0000120
 0,0.00008704,0.00015220,-0.00004609,0.00004797,0.00021818,0.00009340,-
 0.00003790,-0.00009314,0.00050468,0.00018050,-0.00049196,-0.00005713,0
 .00051661,0.00002849,0.00046949,-0.00016674,-0.00016849,0.00007153,-0.
 00011398,-0.00982226,-0.01851628,0.01331343,0.00276952,0.00642885,-0.0
 0439807,0.08650284,0.22265507,0.01147499,0.02093495,-0.01429585,0.0014
 2747,-0.00013741,0.00032115,0.00101399,0.00122551,0.00121256,-0.004158
 13,0.00011243,-0.00464757,0.04957048,0.09952915,-0.10943221,-0.0000296
 2,-0.00003738,-0.00000413,0.00004595,-0.00004749,-0.00019520,-0.000568
 99,-0.00020534,0.00072865,-0.00003930,-0.00011198,-0.00000078,0.000058
 92,-0.00002373,-0.00011223,-0.00009869,-0.00020121,0.00040089,-0.00040
 599,-0.00075824,-0.00016327,0.00076695,0.00163904,-0.00069379,-0.00005
 659,0.00012610,0.00023862,-0.00016584,-0.00031654,0.00022023,-0.008555
 70,-0.01533128,0.01078515,0.00241156,0.00594827,-0.00456441,-0.0525979
 7,-0.11201299,0.11984400,0.00031774,-0.00005941,-0.00033284,-0.0007641
 9,-0.00457384,-0.00034541,-0.00015704,0.00012626,-0.00011253,-0.000020
 83,0.00003339,-0.00008296,-0.00016583,0.00005460,0.00009551,-0.1152750
 6,0.02377498,-0.11671897,-0.01359555,0.00551860,-0.02143406,0.00035621
 ,0.00011609,0.00033270,-0.00104799,-0.00005075,-0.00077641,-0.00006478
 ,-0.00003381,0.00004336,-0.00004530,0.00005183,0.00002288,0.00002785,-
 0.00008478,0.00009989,-0.00001159,-0.00001510,0.00001617,0.00001445,0.
 00002076,0.00000741,-0.00002785,-0.00000552,0.00003018,0.00003431,0.00
 000985,0.00005093,-0.00006974,0.00005085,-0.00002286,0.00000930,-0.000
 00149,0.00000631,0.12257525,-0.00000535,-0.00027903,-0.00087878,-0.003
 26858,-0.00264437,0.00090076,0.00005579,-0.00033469,0.00007990,0.00000
 342,0.00005763,-0.00000634,-0.00028516,0.00006662,0.00014912,0.0260858
 7,-0.05775543,0.04191975,-0.01292952,0.00513848,-0.02391863,0.00018272
 ,0.00007235,0.00008667,-0.00044704,0.00002874,-0.00059906,0.00007571,0
 .00014042,0.00000719,0.00000952,-0.00000361,0.00008650,-0.00002098,0.0
 0018394,-0.00012002,0.00000263,-0.00000359,0.00001657,0.00000752,0.000
 02918,-0.00000337,-0.00002290,-0.00002464,0.00003260,0.00002570,0.0000
 1911,0.00004241,-0.00007853,0.00006115,-0.00007736,0.00000478,0.000012
 91,-0.00002320,-0.02422921,0.05691004,0.00003164,-0.00036320,-0.000521
 69,-0.00099798,-0.00016061,0.00127581,-0.00000826,-0.00006977,0.000038
 97,-0.00010267,0.00008251,-0.00000161,-0.00014726,0.00004152,0.0001310
 7,-0.11849615,0.03843463,-0.24999718,-0.00184952,0.00266443,-0.0060322
 1,0.00027376,-0.00015535,0.00044369,-0.00014630,-0.00008914,0.00000698
 ,-0.00000285,0.00003987,0.00000870,-0.00010444,0.00001770,-0.00003092,
 0.00000924,0.00002787,-0.00002088,0.00000685,-0.00000788,0.00001264,0.
 00000607,0.00001027,-0.00000424,-0.00004277,-0.00003121,0.00004286,0.0
 0001874,-0.00000379,0.00001159,-0.00006132,0.00002402,-0.00004016,0.00
 001497,-0.00000483,-0.00000347,0.12938140,-0.04331416,0.26658347,0.000
 25225,0.00037104,0.00059635,0.00178783,-0.00150740,-0.00136915,-0.0001
 3054,-0.00004596,0.00041591,0.00008375,-0.00008755,-0.00002853,0.00011
 736,-0.00008438,-0.00010920,-0.15746653,-0.00714659,0.13217251,-0.0133
 0291,0.00260249,0.01854903,-0.00049745,0.00036815,-0.00071363,-0.00016
 868,0.00014260,-0.00039540,-0.00008024,-0.00004292,-0.00014699,-0.0001
 1637,0.00009379,-0.00030771,0.00002840,-0.00000002,0.00006106,0.000027
 95,0.00001393,-0.00004360,-0.00000542,-0.00001608,0.00000676,0.0000321
 4,0.00003628,-0.00005326,-0.00001129,-0.00000389,-0.00001822,0.0000494
 6,-0.00000174,0.00004095,-0.00001533,0.00002767,-0.00000975,0.01248930
 ,0.00041974,-0.01258769,0.16702594,0.00028661,-0.00019167,0.00057167,0
 .00218580,-0.00074112,-0.00205514,0.00031706,0.00017762,-0.00013985,0.
 00000909,0.00002290,-0.00000724,0.00014857,0.00003540,-0.00008263,-0.0
 1093371,-0.03847809,0.01041845,-0.01623901,-0.00063096,0.02300535,-0.0
 0023072,0.00005850,-0.00025582,-0.00024082,0.00001295,-0.00021825,0.00
 009044,0.00003676,0.00010339,0.00000829,-0.00015365,0.00020732,-0.0000
 7336,0.00003453,-0.00011844,0.00004059,-0.00001320,-0.00000945,0.00000
 785,0.00002125,0.00000734,0.00000296,0.00001320,-0.00000899,0.00000742
 ,0.00000728,0.00002740,0.00001732,-0.00001376,0.00005204,0.00000084,-0
 .00001588,0.00000407,-0.00380800,-0.00134648,0.00348095,0.00909145,0.0
 4463580,0.00039170,-0.00031571,0.00031680,0.00018947,0.00034367,-0.000
 52350,-0.00005690,-0.00005574,-0.00004006,-0.00018955,0.00006233,0.000
 03578,0.00005111,0.00000383,0.00000486,0.12912584,0.00628084,-0.203518
 97,-0.00353933,0.00357675,0.00390486,-0.00040869,-0.00014131,-0.000111
 13,0.00006739,0.00009992,-0.00017249,0.00000983,0.00001235,0.00001674,
 -0.00008453,-0.00001783,0.00001204,0.00001835,0.00003079,-0.00002617,0
 .00001082,0.00000220,-0.00002538,0.00000735,-0.00000123,0.00000543,-0.
 00002717,-0.00005062,-0.00000250,0.00000576,0.00000246,0.00000413,0.00
 000578,-0.00000653,-0.00000040,0.00000071,0.00000281,-0.00001078,0.018
 25496,0.00009898,-0.01755162,-0.14512662,-0.00880157,0.21835327,-0.000
 00686,-0.00002141,-0.00067541,-0.00106350,0.00162670,0.00100046,-0.001
 11157,-0.00041811,-0.00004260,-0.00004821,0.00003103,0.00024245,-0.000
 19567,0.00019412,0.00013324,-0.10419918,0.11260878,-0.00143208,0.01552
 601,-0.01852373,-0.00143037,-0.00000097,-0.00001373,-0.00011443,0.0003
 6090,0.00008376,0.00056738,0.00008315,0.00005721,-0.00001839,-0.000626
 91,-0.00007300,0.00033250,-0.00048544,0.00035339,-0.00025476,0.0000323
 9,-0.00004995,-0.00007576,0.00003988,0.00005721,0.00000411,-0.00004044
 ,-0.00001236,-0.00006183,0.00003827,0.00000636,0.00005802,-0.00004487,
 -0.00001463,-0.00007111,0.00000151,-0.00000300,-0.00002654,-0.00706248
 ,0.01194414,0.00278506,-0.00991583,0.01953000,0.00029298,0.11381822,-0
 .00013376,-0.00049896,-0.00073228,-0.00194868,0.00176435,0.00146021,0.
 00080097,-0.00005151,-0.00062394,-0.00004150,0.00001082,0.00016321,-0.
 00017358,0.00013601,0.00012774,0.11531598,-0.25639342,-0.01208891,0.01
 572883,-0.02073041,0.00149917,-0.00009614,0.00012251,-0.00039597,0.000
 55050,0.00022105,0.00024523,0.00034482,0.00017555,0.00026354,-0.000114
 89,-0.00020337,0.00057222,0.00011013,0.00026043,-0.00012858,0.00004771
 ,-0.00001930,-0.00011253,0.00001491,0.00002741,0.00002307,-0.00006826,
 0.00001635,-0.00004689,0.00001133,0.00001783,0.00005091,-0.00005180,0.
 00000962,-0.00006258,-0.00001017,0.00001323,-0.00003397,0.00045109,-0.
 00228868,-0.00042800,-0.00114461,0.00216291,0.00023569,-0.12395498,0.2
 7818929,-0.00003701,0.00020146,-0.00033121,-0.00074719,0.00002709,0.00
 062373,0.00005999,-0.00049899,0.00029202,0.00006493,-0.00005799,0.0000
 8064,-0.00007961,-0.00009269,0.00004634,-0.00120878,-0.01054610,-0.046
 40296,0.00572826,-0.00158664,-0.00283334,-0.00001559,0.00001431,-0.000
 51015,0.00026680,0.00019462,0.00012484,0.00002608,0.00010421,-0.000139
 61,0.00038138,0.00026477,-0.00014496,-0.00031300,0.00029269,-0.0000174
 7,0.00001190,0.00001714,-0.00003464,-0.00000062,0.00000121,-0.00000767
 ,-0.00000097,0.00001482,-0.00003445,-0.00000905,0.00000937,-0.00002752
 ,0.00000314,0.00001097,-0.00003004,-0.00000899,0.00003479,-0.00003539,
 -0.01124911,0.02440416,0.00396839,0.01096143,-0.02287058,-0.00160846,-
 0.00385133,0.01020810,0.04552765,0.00215857,-0.00167361,0.00319853,0.0
 1655997,0.02257372,-0.02160473,-0.00005435,-0.00004768,0.00010815,-0.0
 0245412,0.00050188,0.00244478,0.00062324,0.00012202,-0.00028616,0.0146
 3084,-0.03394195,0.01211000,-0.09092802,-0.01915662,-0.01135373,-0.004
 25644,0.00104780,-0.00620749,0.00065126,0.00083127,0.00021717,0.000085
 10,0.00015313,0.00011997,-0.00027072,-0.00032883,0.00008381,-0.0001120
 5,0.00031531,-0.00037758,-0.00258714,0.00054658,-0.00201937,0.00034342
 ,-0.00010412,0.00000669,-0.00077158,0.00057339,-0.00087843,0.00006516,
 -0.00001544,0.00002699,-0.00003503,-0.00015184,0.00018562,0.00004590,-
 0.00004384,-0.00006351,0.00248381,0.00246972,0.00201950,-0.00018379,-0
 .00021867,0.00100075,-0.00509840,-0.00563789,0.00001737,0.06910437,-0.
 00599611,0.00054261,0.00264896,0.01170648,-0.00960437,0.02746353,0.000
 39105,0.00005123,-0.00009900,-0.00001344,-0.00020557,0.00038025,0.0014
 0852,-0.00004219,-0.00098770,-0.01952233,-0.04611300,0.03171097,-0.020
 01335,-0.55094975,0.32138596,0.00161944,0.00188683,0.00231687,0.000356
 55,0.00064970,0.00257013,0.00029173,-0.00007688,-0.00023238,-0.0002274
 8,-0.00042277,0.00013558,-0.00007675,0.00055335,-0.00018617,0.00099944
 ,-0.00020199,-0.00090422,0.00042435,0.00012785,0.00036202,-0.00008130,
 0.00069634,-0.00066127,-0.00014597,0.00000171,0.00002880,0.00067745,-0
 .00018118,0.00023750,-0.00014376,0.00027883,-0.00027877,0.00265360,0.0
 0195995,-0.00019582,-0.00308600,-0.00563429,-0.00136209,-0.00340778,-0
 .00294170,-0.00014673,0.03218566,0.60962528,0.00574543,0.00118756,-0.0
 0639293,-0.01467145,0.04135436,-0.02401554,-0.00102614,-0.00045058,-0.
 00086728,-0.00006262,0.00064221,-0.00098963,-0.00266431,0.00022091,0.0
 0175805,0.00179081,0.01756918,0.01444013,-0.01021259,0.32358346,-0.311
 69542,-0.00548774,0.00232628,-0.00537399,0.00324248,0.00064572,0.00308
 476,-0.00017404,0.00034897,0.00063202,0.00021955,0.00050459,0.00049631
 ,0.00018760,-0.00038761,0.00021334,-0.00121161,-0.00036662,0.00103745,
 0.00021674,0.00002254,0.00028095,-0.00000783,-0.00034151,0.00080911,0.
 00024785,-0.00001987,0.00003483,-0.00108336,0.00009273,-0.00060749,0.0
 0022193,-0.00035679,0.00040783,0.00273343,0.00111632,0.00167982,-0.001
 89425,-0.00331000,0.00093755,0.00263843,-0.00019542,0.00149426,0.02125
 170,-0.38418641,0.32263587\\0.00000037,-0.00000075,-0.00000084,0.00000
 158,0.00000428,-0.00000124,-0.00000310,-0.00000436,0.00000419,0.000002
 52,-0.00000525,-0.00000610,0.00000059,0.00000248,-0.00000029,-0.000001
 73,0.00000306,0.00000397,0.00000103,0.00000223,-0.00000153,0.00000011,
 0.00000775,0.00000228,0.00000403,0.00000653,-0.00000501,-0.00000399,-0
 .00000775,0.00000455,-0.00000344,-0.00000688,0.00000376,-0.00000476,-0
 .00000131,0.00000793,0.00000245,-0.00000762,-0.00000658,0.00000500,-0.
 00000279,-0.00000963,0.00000171,-0.00000873,-0.00000574,0.00000305,0.0
 0000509,-0.00000374,-0.00000014,-0.00000100,-0.00000007,-0.00000099,0.
 00000553,0.00000347,-0.00000195,0.00000068,0.00000361,-0.00000126,0.00
 000810,0.00000471,-0.00000391,0.00000170,0.00000748,0.00000285,-0.0000
 0097,-0.00000518\\\@


 "WOULD YOU TELL ME PLEASE, WHICH WAY I OUGHT TO WALK FROM HERE?"
 "THAT DEPENDS A GREAT DEAL ON WHERE YOU WANT TO GO," SAID THE CAT.
 "I DON'T MUCH CARE WHERE -- ", SAID ALICE.
 "THEN IT DOESN'T MATTER WHICH WAY YOU WALK," SAID THE CAT.

                                      -- LEWIS CARROLL
 Job cpu time:  0 days  6 hours 38 minutes 50.0 seconds.
 File lengths (MBytes):  RWF=   2464 Int=      0 D2E=      0 Chk=     32 Scr=     32
 Normal termination of Gaussian 09 at Wed Oct  4 23:12:27 2017.
