 Entering Gaussian System, Link 0=/shared/apps/gaussian/G09_LINUX_LINDA/g09/g09
 Input=/gss_gpfs_scratch/westgroup/QMscratch/AZQRPEZWLCVAPQ-UHFFFAOYSA-u2.gjf
 Output=/gss_gpfs_scratch/westgroup/QMscratch/AZQRPEZWLCVAPQ-UHFFFAOYSA-u2.log
 Initial command:
 /shared/apps/gaussian/G09_LINUX_LINDA/g09/l1.exe /gss_gpfs_scratch/westgroup/rwest-autotst-1/Gau-32297.inp -scrdir=/gss_gpfs_scratch/westgroup/rwest-autotst-1/
 Entering Link 1 = /shared/apps/gaussian/G09_LINUX_LINDA/g09/l1.exe PID=     32298.
  
 Copyright (c) 1988,1990,1992,1993,1995,1998,2003,2009,2010,
            Gaussian, Inc.  All Rights Reserved.
  
 This is part of the Gaussian(R) 09 program.  It is based on
 the Gaussian(R) 03 system (copyright 2003, Gaussian, Inc.),
 the Gaussian(R) 98 system (copyright 1998, Gaussian, Inc.),
 the Gaussian(R) 94 system (copyright 1995, Gaussian, Inc.),
 the Gaussian 92(TM) system (copyright 1992, Gaussian, Inc.),
 the Gaussian 90(TM) system (copyright 1990, Gaussian, Inc.),
 the Gaussian 88(TM) system (copyright 1988, Gaussian, Inc.),
 the Gaussian 86(TM) system (copyright 1986, Carnegie Mellon
 University), and the Gaussian 82(TM) system (copyright 1983,
 Carnegie Mellon University). Gaussian is a federally registered
 trademark of Gaussian, Inc.
  
 This software contains proprietary and confidential information,
 including trade secrets, belonging to Gaussian, Inc.
  
 This software is provided under written license and may be
 used, copied, transmitted, or stored only in accord with that
 written license.
  
 The following legend is applicable only to US Government
 contracts under FAR:
  
                    RESTRICTED RIGHTS LEGEND
  
 Use, reproduction and disclosure by the US Government is
 subject to restrictions as set forth in subparagraphs (a)
 and (c) of the Commercial Computer Software - Restricted
 Rights clause in FAR 52.227-19.
  
 Gaussian, Inc.
 340 Quinnipiac St., Bldg. 40, Wallingford CT 06492
  
  
 ---------------------------------------------------------------
 Warning -- This program may not be used in any manner that
 competes with the business of Gaussian, Inc. or will provide
 assistance to any competitor of Gaussian, Inc.  The licensee
 of this program is prohibited from giving any competitor of
 Gaussian, Inc. access to this program.  By using this program,
 the user acknowledges that Gaussian, Inc. is engaged in the
 business of creating and licensing software in the field of
 computational chemistry and represents and warrants to the
 licensee that it is not a competitor of Gaussian, Inc. and that
 it will not use this program in any manner prohibited above.
 ---------------------------------------------------------------
  

 Cite this work as:
 Gaussian 09, Revision B.01,
 M. J. Frisch, G. W. Trucks, H. B. Schlegel, G. E. Scuseria, 
 M. A. Robb, J. R. Cheeseman, G. Scalmani, V. Barone, B. Mennucci, 
 G. A. Petersson, H. Nakatsuji, M. Caricato, X. Li, H. P. Hratchian, 
 A. F. Izmaylov, J. Bloino, G. Zheng, J. L. Sonnenberg, M. Hada, 
 M. Ehara, K. Toyota, R. Fukuda, J. Hasegawa, M. Ishida, T. Nakajima, 
 Y. Honda, O. Kitao, H. Nakai, T. Vreven, J. A. Montgomery, Jr., 
 J. E. Peralta, F. Ogliaro, M. Bearpark, J. J. Heyd, E. Brothers, 
 K. N. Kudin, V. N. Staroverov, T. Keith, R. Kobayashi, J. Normand, 
 K. Raghavachari, A. Rendell, J. C. Burant, S. S. Iyengar, J. Tomasi, 
 M. Cossi, N. Rega, J. M. Millam, M. Klene, J. E. Knox, J. B. Cross, 
 V. Bakken, C. Adamo, J. Jaramillo, R. Gomperts, R. E. Stratmann, 
 O. Yazyev, A. J. Austin, R. Cammi, C. Pomelli, J. W. Ochterski, 
 R. L. Martin, K. Morokuma, V. G. Zakrzewski, G. A. Voth, 
 P. Salvador, J. J. Dannenberg, S. Dapprich, A. D. Daniels, 
 O. Farkas, J. B. Foresman, J. V. Ortiz, J. Cioslowski, 
 and D. J. Fox, Gaussian, Inc., Wallingford CT, 2010.
 
 ******************************************
 Gaussian 09:  EM64L-G09RevB.01 12-Aug-2010
                10-Mar-2017 
 ******************************************
 %nprocshared=20
 Will use up to   20 processors via shared memory.
 %mem=5GB
 --------------------------------------------------------------
 # m062x/6-311+g(2df,2p) opt=(verytight,gdiis) freq IOP(2/16=3)
 --------------------------------------------------------------

 Warning!  Use of Opt=GDIIS is deprecated since it is seldom a good choice.

 1/7=1,14=-1,18=20,19=11,26=3,38=1/1,3;
 2/9=110,12=2,16=3,17=6,18=5,40=1/2;
 3/5=4,6=6,7=214,11=2,16=1,25=1,30=1,71=1,74=-55/1,2,3;
 4//1;
 5/5=2,38=5/2;
 6/7=2,8=2,9=2,10=2,28=1/1;
 7//1,2,3,16;
 1/7=1,14=-1,18=20,19=11/3(2);
 2/9=110,16=3/2;
 99//99;
 2/9=110,16=3/2;
 3/5=4,6=6,7=214,11=2,16=1,25=1,30=1,71=1,74=-55/1,2,3;
 4/5=5,16=3/1;
 5/5=2,38=5/2;
 7//1,2,3,16;
 1/7=1,14=-1,18=20,19=11/3(-5);
 2/9=110,16=3/2;
 6/7=2,8=2,9=2,10=2,19=2,28=1/1;
 99/9=1/99;
 ------------------------------------
 InChI=1S/C3H3O3/c1-6-3(5)2-4/h1H3/u2
 ------------------------------------
 Symbolic Z-matrix:
 Charge =  0 Multiplicity = 2
 C                    -1.41     -0.1729    0.028 
 C                     0.9893    0.4262    0.0916 
 O                    -0.037    -0.4851   -0.1747 
 C                     2.381     0.0441   -0.1378 
 H                    -1.5912    0.069     1.0968 
 H                    -2.0287   -1.05     -0.2522 
 H                    -1.7013    0.6908   -0.6067 
 O                     0.7305    1.5793    0.5293 
 O                     2.6675   -1.1013   -0.5744 
 

 GradGradGradGradGradGradGradGradGradGradGradGradGradGradGradGradGradGrad
 Berny optimization.
 Initialization pass.
                           ----------------------------
                           !    Initial Parameters    !
                           ! (Angstroms and Degrees)  !
 --------------------------                            --------------------------
 ! Name  Definition              Value          Derivative Info.                !
 --------------------------------------------------------------------------------
 ! R1    R(1,3)                  1.4226         estimate D2E/DX2                !
 ! R2    R(1,5)                  1.1107         estimate D2E/DX2                !
 ! R3    R(1,6)                  1.1093         estimate D2E/DX2                !
 ! R4    R(1,7)                  1.1107         estimate D2E/DX2                !
 ! R5    R(2,3)                  1.3981         estimate D2E/DX2                !
 ! R6    R(2,4)                  1.4613         estimate D2E/DX2                !
 ! R7    R(2,8)                  1.2602         estimate D2E/DX2                !
 ! R8    R(4,9)                  1.2588         estimate D2E/DX2                !
 ! A1    A(3,1,5)              110.0209         estimate D2E/DX2                !
 ! A2    A(3,1,6)              109.1949         estimate D2E/DX2                !
 ! A3    A(3,1,7)              110.0207         estimate D2E/DX2                !
 ! A4    A(5,1,6)              108.921          estimate D2E/DX2                !
 ! A5    A(5,1,7)              109.7388         estimate D2E/DX2                !
 ! A6    A(6,1,7)              108.9181         estimate D2E/DX2                !
 ! A7    A(3,2,4)              119.9182         estimate D2E/DX2                !
 ! A8    A(3,2,8)              120.7844         estimate D2E/DX2                !
 ! A9    A(4,2,8)              119.2975         estimate D2E/DX2                !
 ! A10   A(1,3,2)              122.5683         estimate D2E/DX2                !
 ! A11   A(2,4,9)              120.6047         estimate D2E/DX2                !
 ! D1    D(5,1,3,2)            -60.5106         estimate D2E/DX2                !
 ! D2    D(6,1,3,2)            179.998          estimate D2E/DX2                !
 ! D3    D(7,1,3,2)             60.5103         estimate D2E/DX2                !
 ! D4    D(4,2,3,1)            179.999          estimate D2E/DX2                !
 ! D5    D(8,2,3,1)              0.0039         estimate D2E/DX2                !
 ! D6    D(3,2,4,9)              0.0009         estimate D2E/DX2                !
 ! D7    D(8,2,4,9)            179.9961         estimate D2E/DX2                !
 --------------------------------------------------------------------------------
 Trust Radius=3.00D-01 FncErr=1.00D-07 GrdErr=1.00D-06
 Number of steps in this run=     36 maximum allowed number of steps=    100.
 GradGradGradGradGradGradGradGradGradGradGradGradGradGradGradGradGradGrad

                          Input orientation:                          
 ---------------------------------------------------------------------
 Center     Atomic      Atomic             Coordinates (Angstroms)
 Number     Number       Type             X           Y           Z
 ---------------------------------------------------------------------
      1          6           0       -1.410000   -0.172900    0.028000
      2          6           0        0.989300    0.426200    0.091600
      3          8           0       -0.037000   -0.485100   -0.174700
      4          6           0        2.381000    0.044100   -0.137800
      5          1           0       -1.591200    0.069000    1.096800
      6          1           0       -2.028700   -1.050000   -0.252200
      7          1           0       -1.701300    0.690800   -0.606700
      8          8           0        0.730500    1.579300    0.529300
      9          8           0        2.667500   -1.101300   -0.574400
 ---------------------------------------------------------------------
                    Distance matrix (angstroms):
                    1          2          3          4          5
     1  C    0.000000
     2  C    2.473784   0.000000
     3  O    1.422563   1.398097   0.000000
     4  C    3.800824   1.461319   2.475508   0.000000
     5  H    1.110713   2.792311   2.083093   4.159715   0.000000
     6  H    1.109327   3.377231   2.071711   4.544843   1.806480
     7  H    1.110710   2.792304   2.083089   4.159719   1.816774
     8  O    2.811271   1.260237   2.312233   2.350747   2.827252
     9  O    4.225023   2.364988   2.802460   1.258826   4.722186
                    6          7          8          9
     6  H    0.000000
     7  H    1.806446   0.000000
     8  O    3.890648   2.827292   0.000000
     9  O    4.707519   4.722190   3.486508   0.000000
 Stoichiometry    C3H3O3(2)
 Framework group  C1[X(C3H3O3)]
 Deg. of freedom    21
 Full point group                 C1      NOp   1
 Largest Abelian subgroup         C1      NOp   1
 Largest concise Abelian subgroup C1      NOp   1
                         Standard orientation:                         
 ---------------------------------------------------------------------
 Center     Atomic      Atomic             Coordinates (Angstroms)
 Number     Number       Type             X           Y           Z
 ---------------------------------------------------------------------
      1          6           0        2.077499   -0.596084   -0.000006
      2          6           0       -0.161648    0.455500    0.000032
      3          8           0        0.657276   -0.677654   -0.000001
      4          6           0       -1.615128    0.304341    0.000013
      5          1           0        2.427679   -0.061382   -0.908383
      6          1           0        2.501699   -1.621101    0.000002
      7          1           0        2.427684   -0.061423    0.908391
      8          8           0        0.338049    1.612436   -0.000015
      9          8           0       -2.140500   -0.839611   -0.000015
 ---------------------------------------------------------------------
 Rotational constants (GHZ):      7.0016243      2.7340413      1.9920289
 Standard basis: 6-311+G(2df,2p) (5D, 7F)
 There are   231 symmetry adapted basis functions of A   symmetry.
 Integral buffers will be    131072 words long.
 Raffenetti 2 integral format.
 Two-electron integral symmetry is turned on.
   231 basis functions,   345 primitive gaussians,   261 cartesian basis functions
    23 alpha electrons       22 beta electrons
       nuclear repulsion energy       213.1842774562 Hartrees.
 NAtoms=    9 NActive=    9 NUniq=    9 SFac= 1.00D+00 NAtFMM=   50 NAOKFM=F Big=F
 One-electron integrals computed using PRISM.
 NBasis=   231 RedAO= T  NBF=   231
 NBsUse=   231 1.00D-06 NBFU=   231
 Harris functional with IExCor= 1009 diagonalized for initial guess.
 ExpMin= 4.38D-02 ExpMax= 8.59D+03 ExpMxC= 1.30D+03 IAcc=2 IRadAn=         0 AccDes= 0.00D+00
 HarFok:  IExCor= 1009 AccDes= 0.00D+00 IRadAn=         0 IDoV= 1
 ScaDFX=  1.000000  1.000000  1.000000  1.000000
 FoFCou: FMM=F IPFlag=           0 FMFlag=      100000 FMFlg1=           0
         NFxFlg=           0 DoJE=T BraDBF=F KetDBF=T FulRan=T
         Omega=  0.000000  0.000000  1.000000  0.000000  0.000000 ICntrl=     500 IOpCl=  0
         NMat0=    1 NMatS0=    1 NMatT0=    0 NMatD0=    1 NMtDS0=    0 NMtDT0=    0
         I1Cent=           4 NGrid=           0.
 Petite list used in FoFCou.
 Initial guess orbital symmetries:
 Alpha Orbitals:
       Occupied  (A) (A) (A) (A) (A) (A) (A) (A) (A) (A) (A) (A)
                 (A) (A) (A) (A) (A) (A) (A) (A) (A) (A) (A)
       Virtual   (A) (A) (A) (A) (A) (A) (A) (A) (A) (A) (A) (A)
                 (A) (A) (A) (A) (A) (A) (A) (A) (A) (A) (A) (A)
                 (A) (A) (A) (A) (A) (A) (A) (A) (A) (A) (A) (A)
                 (A) (A) (A) (A) (A) (A) (A) (A) (A) (A) (A) (A)
                 (A) (A) (A) (A) (A) (A) (A) (A) (A) (A) (A) (A)
                 (A) (A) (A) (A) (A) (A) (A) (A) (A) (A) (A) (A)
                 (A) (A) (A) (A) (A) (A) (A) (A) (A) (A) (A) (A)
                 (A) (A) (A) (A) (A) (A) (A) (A) (A) (A) (A) (A)
                 (A) (A) (A) (A) (A) (A) (A) (A) (A) (A) (A) (A)
                 (A) (A) (A) (A) (A) (A) (A) (A) (A) (A) (A) (A)
                 (A) (A) (A) (A) (A) (A) (A) (A) (A) (A) (A) (A)
                 (A) (A) (A) (A) (A) (A) (A) (A) (A) (A) (A) (A)
                 (A) (A) (A) (A) (A) (A) (A) (A) (A) (A) (A) (A)
                 (A) (A) (A) (A) (A) (A) (A) (A) (A) (A) (A) (A)
                 (A) (A) (A) (A) (A) (A) (A) (A) (A) (A) (A) (A)
                 (A) (A) (A) (A) (A) (A) (A) (A) (A) (A) (A) (A)
                 (A) (A) (A) (A) (A) (A) (A) (A) (A) (A) (A) (A)
                 (A) (A) (A) (A)
 Beta  Orbitals:
       Occupied  (A) (A) (A) (A) (A) (A) (A) (A) (A) (A) (A) (A)
                 (A) (A) (A) (A) (A) (A) (A) (A) (A) (A)
       Virtual   (A) (A) (A) (A) (A) (A) (A) (A) (A) (A) (A) (A)
                 (A) (A) (A) (A) (A) (A) (A) (A) (A) (A) (A) (A)
                 (A) (A) (A) (A) (A) (A) (A) (A) (A) (A) (A) (A)
                 (A) (A) (A) (A) (A) (A) (A) (A) (A) (A) (A) (A)
                 (A) (A) (A) (A) (A) (A) (A) (A) (A) (A) (A) (A)
                 (A) (A) (A) (A) (A) (A) (A) (A) (A) (A) (A) (A)
                 (A) (A) (A) (A) (A) (A) (A) (A) (A) (A) (A) (A)
                 (A) (A) (A) (A) (A) (A) (A) (A) (A) (A) (A) (A)
                 (A) (A) (A) (A) (A) (A) (A) (A) (A) (A) (A) (A)
                 (A) (A) (A) (A) (A) (A) (A) (A) (A) (A) (A) (A)
                 (A) (A) (A) (A) (A) (A) (A) (A) (A) (A) (A) (A)
                 (A) (A) (A) (A) (A) (A) (A) (A) (A) (A) (A) (A)
                 (A) (A) (A) (A) (A) (A) (A) (A) (A) (A) (A) (A)
                 (A) (A) (A) (A) (A) (A) (A) (A) (A) (A) (A) (A)
                 (A) (A) (A) (A) (A) (A) (A) (A) (A) (A) (A) (A)
                 (A) (A) (A) (A) (A) (A) (A) (A) (A) (A) (A) (A)
                 (A) (A) (A) (A) (A) (A) (A) (A) (A) (A) (A) (A)
                 (A) (A) (A) (A) (A)
 The electronic state of the initial guess is 2-A.
 Initial guess <Sx>= 0.0000 <Sy>= 0.0000 <Sz>= 0.5000 <S**2>= 0.7500 S= 0.5000
 Requested convergence on RMS density matrix=1.00D-08 within 128 cycles.
 Requested convergence on MAX density matrix=1.00D-06.
 Requested convergence on             energy=1.00D-06.
 No special actions if energy rises.
 SCF Done:  E(UM062X) =  -341.673223683     A.U. after   16 cycles
             Convg  =    0.4899D-08             -V/T =  2.0052
 <Sx>= 0.0000 <Sy>= 0.0000 <Sz>= 0.5000 <S**2>= 0.7550 S= 0.5025
 <L.S>= 0.000000000000E+00
 Annihilation of the first spin contaminant:
 S**2 before annihilation     0.7550,   after     0.7500

 **********************************************************************

            Population analysis using the SCF density.

 **********************************************************************

 Orbital symmetries:
 Alpha Orbitals:
       Occupied  (A) (A) (A) (A) (A) (A) (A) (A) (A) (A) (A) (A)
                 (A) (A) (A) (A) (A) (A) (A) (A) (A) (A) (A)
       Virtual   (A) (A) (A) (A) (A) (A) (A) (A) (A) (A) (A) (A)
                 (A) (A) (A) (A) (A) (A) (A) (A) (A) (A) (A) (A)
                 (A) (A) (A) (A) (A) (A) (A) (A) (A) (A) (A) (A)
                 (A) (A) (A) (A) (A) (A) (A) (A) (A) (A) (A) (A)
                 (A) (A) (A) (A) (A) (A) (A) (A) (A) (A) (A) (A)
                 (A) (A) (A) (A) (A) (A) (A) (A) (A) (A) (A) (A)
                 (A) (A) (A) (A) (A) (A) (A) (A) (A) (A) (A) (A)
                 (A) (A) (A) (A) (A) (A) (A) (A) (A) (A) (A) (A)
                 (A) (A) (A) (A) (A) (A) (A) (A) (A) (A) (A) (A)
                 (A) (A) (A) (A) (A) (A) (A) (A) (A) (A) (A) (A)
                 (A) (A) (A) (A) (A) (A) (A) (A) (A) (A) (A) (A)
                 (A) (A) (A) (A) (A) (A) (A) (A) (A) (A) (A) (A)
                 (A) (A) (A) (A) (A) (A) (A) (A) (A) (A) (A) (A)
                 (A) (A) (A) (A) (A) (A) (A) (A) (A) (A) (A) (A)
                 (A) (A) (A) (A) (A) (A) (A) (A) (A) (A) (A) (A)
                 (A) (A) (A) (A) (A) (A) (A) (A) (A) (A) (A) (A)
                 (A) (A) (A) (A) (A) (A) (A) (A) (A) (A) (A) (A)
                 (A) (A) (A) (A)
 Beta  Orbitals:
       Occupied  (A) (A) (A) (A) (A) (A) (A) (A) (A) (A) (A) (A)
                 (A) (A) (A) (A) (A) (A) (A) (A) (A) (A)
       Virtual   (A) (A) (A) (A) (A) (A) (A) (A) (A) (A) (A) (A)
                 (A) (A) (A) (A) (A) (A) (A) (A) (A) (A) (A) (A)
                 (A) (A) (A) (A) (A) (A) (A) (A) (A) (A) (A) (A)
                 (A) (A) (A) (A) (A) (A) (A) (A) (A) (A) (A) (A)
                 (A) (A) (A) (A) (A) (A) (A) (A) (A) (A) (A) (A)
                 (A) (A) (A) (A) (A) (A) (A) (A) (A) (A) (A) (A)
                 (A) (A) (A) (A) (A) (A) (A) (A) (A) (A) (A) (A)
                 (A) (A) (A) (A) (A) (A) (A) (A) (A) (A) (A) (A)
                 (A) (A) (A) (A) (A) (A) (A) (A) (A) (A) (A) (A)
                 (A) (A) (A) (A) (A) (A) (A) (A) (A) (A) (A) (A)
                 (A) (A) (A) (A) (A) (A) (A) (A) (A) (A) (A) (A)
                 (A) (A) (A) (A) (A) (A) (A) (A) (A) (A) (A) (A)
                 (A) (A) (A) (A) (A) (A) (A) (A) (A) (A) (A) (A)
                 (A) (A) (A) (A) (A) (A) (A) (A) (A) (A) (A) (A)
                 (A) (A) (A) (A) (A) (A) (A) (A) (A) (A) (A) (A)
                 (A) (A) (A) (A) (A) (A) (A) (A) (A) (A) (A) (A)
                 (A) (A) (A) (A) (A) (A) (A) (A) (A) (A) (A) (A)
                 (A) (A) (A) (A) (A)
 The electronic state is 2-A.
 Alpha  occ. eigenvalues --  -19.72486 -19.70162 -19.66408 -10.73268 -10.69198
 Alpha  occ. eigenvalues --  -10.62021  -1.24968  -1.21911  -1.15919  -0.87462
 Alpha  occ. eigenvalues --   -0.79369  -0.66459  -0.61976  -0.59407  -0.58856
 Alpha  occ. eigenvalues --   -0.53817  -0.52667  -0.52542  -0.47278  -0.44870
 Alpha  occ. eigenvalues --   -0.39993  -0.39758  -0.34007
 Alpha virt. eigenvalues --   -0.09841   0.00770   0.02426   0.03810   0.04306
 Alpha virt. eigenvalues --    0.05367   0.05715   0.07249   0.08340   0.09856
 Alpha virt. eigenvalues --    0.10374   0.10761   0.14574   0.15923   0.16560
 Alpha virt. eigenvalues --    0.17239   0.19352   0.19793   0.21827   0.21991
 Alpha virt. eigenvalues --    0.24364   0.26294   0.26663   0.27412   0.28494
 Alpha virt. eigenvalues --    0.29171   0.30237   0.32407   0.33298   0.35012
 Alpha virt. eigenvalues --    0.36053   0.42288   0.42994   0.43579   0.47222
 Alpha virt. eigenvalues --    0.50033   0.52112   0.53446   0.53509   0.55184
 Alpha virt. eigenvalues --    0.57934   0.58228   0.60652   0.60788   0.63028
 Alpha virt. eigenvalues --    0.65944   0.70528   0.72630   0.74206   0.76158
 Alpha virt. eigenvalues --    0.78298   0.83018   0.87073   0.87593   0.94482
 Alpha virt. eigenvalues --    0.96965   1.00053   1.01991   1.04129   1.05071
 Alpha virt. eigenvalues --    1.05531   1.06660   1.11671   1.12031   1.12697
 Alpha virt. eigenvalues --    1.14541   1.16157   1.17616   1.19400   1.20795
 Alpha virt. eigenvalues --    1.22597   1.26865   1.28743   1.31298   1.35690
 Alpha virt. eigenvalues --    1.36928   1.39600   1.41330   1.47882   1.51888
 Alpha virt. eigenvalues --    1.53361   1.55268   1.57965   1.61780   1.64184
 Alpha virt. eigenvalues --    1.65199   1.66841   1.75439   1.80402   1.85488
 Alpha virt. eigenvalues --    1.90279   1.99608   2.00713   2.11345   2.16362
 Alpha virt. eigenvalues --    2.25023   2.28341   2.38481   2.38490   2.44440
 Alpha virt. eigenvalues --    2.50237   2.55894   2.60095   2.65753   2.70424
 Alpha virt. eigenvalues --    2.71741   2.76855   2.85462   2.86278   2.93182
 Alpha virt. eigenvalues --    2.96188   2.98961   3.03440   3.04098   3.05251
 Alpha virt. eigenvalues --    3.10241   3.11570   3.11683   3.12931   3.20245
 Alpha virt. eigenvalues --    3.21983   3.25911   3.28232   3.29662   3.33350
 Alpha virt. eigenvalues --    3.35793   3.35914   3.40033   3.42124   3.48258
 Alpha virt. eigenvalues --    3.48440   3.50063   3.53734   3.53810   3.61285
 Alpha virt. eigenvalues --    3.61391   3.67689   3.69496   3.79444   3.79825
 Alpha virt. eigenvalues --    3.81347   3.85631   3.96182   4.05929   4.08590
 Alpha virt. eigenvalues --    4.12515   4.17099   4.19373   4.22588   4.25742
 Alpha virt. eigenvalues --    4.29467   4.33043   4.34562   4.71500   4.87241
 Alpha virt. eigenvalues --    5.01437   5.01984   5.04030   5.06600   5.06914
 Alpha virt. eigenvalues --    5.09614   5.13307   5.15161   5.15835   5.18060
 Alpha virt. eigenvalues --    5.26621   5.29030   5.31676   5.34879   5.35105
 Alpha virt. eigenvalues --    5.41969   5.45043   5.45142   5.47289   5.54164
 Alpha virt. eigenvalues --    5.61764   5.65653   5.82057   5.92065   6.05462
 Alpha virt. eigenvalues --    6.09858   6.18783   6.28604   6.52227   6.72234
 Alpha virt. eigenvalues --    6.72786   6.77749   6.80212   6.86784   6.90010
 Alpha virt. eigenvalues --    6.95432   7.02507   7.09744   7.11468   7.14781
 Alpha virt. eigenvalues --    7.21273   7.25775   7.43585   7.46979   7.58424
 Alpha virt. eigenvalues --    7.71792   7.78292  24.30765  24.38456  24.65547
 Alpha virt. eigenvalues --   50.03476  50.08858  50.17578
  Beta  occ. eigenvalues --  -19.71703 -19.70105 -19.66449 -10.73013 -10.68388
  Beta  occ. eigenvalues --  -10.62014  -1.24458  -1.19785  -1.15881  -0.86330
  Beta  occ. eigenvalues --   -0.77644  -0.65721  -0.60128  -0.58591  -0.58493
  Beta  occ. eigenvalues --   -0.52867  -0.51711  -0.46904  -0.46569  -0.44612
  Beta  occ. eigenvalues --   -0.39810  -0.39534
  Beta virt. eigenvalues --   -0.09646  -0.08636   0.00817   0.02383   0.03792
  Beta virt. eigenvalues --    0.04228   0.05392   0.05957   0.06979   0.09020
  Beta virt. eigenvalues --    0.09883   0.10240   0.10913   0.14200   0.15625
  Beta virt. eigenvalues --    0.16530   0.17856   0.19236   0.19590   0.21744
  Beta virt. eigenvalues --    0.21858   0.24275   0.26443   0.27035   0.27553
  Beta virt. eigenvalues --    0.28472   0.29068   0.30898   0.32442   0.33286
  Beta virt. eigenvalues --    0.35003   0.36816   0.42451   0.43449   0.43586
  Beta virt. eigenvalues --    0.47307   0.50513   0.52135   0.53513   0.53563
  Beta virt. eigenvalues --    0.55111   0.58084   0.58328   0.60676   0.60990
  Beta virt. eigenvalues --    0.63054   0.66124   0.70798   0.72300   0.74639
  Beta virt. eigenvalues --    0.75919   0.78605   0.83083   0.87076   0.88100
  Beta virt. eigenvalues --    0.94209   0.97225   0.99970   1.01985   1.03778
  Beta virt. eigenvalues --    1.04866   1.05572   1.07011   1.11860   1.12320
  Beta virt. eigenvalues --    1.12567   1.14716   1.16203   1.17920   1.19735
  Beta virt. eigenvalues --    1.21119   1.22584   1.27038   1.28947   1.31298
  Beta virt. eigenvalues --    1.36294   1.37034   1.39642   1.41356   1.48022
  Beta virt. eigenvalues --    1.51931   1.53512   1.55630   1.57950   1.62351
  Beta virt. eigenvalues --    1.64902   1.65371   1.67734   1.75252   1.80485
  Beta virt. eigenvalues --    1.85662   1.90428   2.00199   2.00782   2.11602
  Beta virt. eigenvalues --    2.17047   2.25963   2.28580   2.38585   2.39148
  Beta virt. eigenvalues --    2.44563   2.50320   2.56280   2.61882   2.65974
  Beta virt. eigenvalues --    2.71561   2.72901   2.77770   2.87345   2.87904
  Beta virt. eigenvalues --    2.93213   2.96680   2.99954   3.04050   3.05919
  Beta virt. eigenvalues --    3.07022   3.10485   3.12476   3.13212   3.14151
  Beta virt. eigenvalues --    3.21284   3.23104   3.29069   3.29978   3.31466
  Beta virt. eigenvalues --    3.35613   3.36358   3.39689   3.43260   3.43742
  Beta virt. eigenvalues --    3.48622   3.49763   3.51563   3.54374   3.55927
  Beta virt. eigenvalues --    3.62476   3.63025   3.68388   3.71497   3.79615
  Beta virt. eigenvalues --    3.79909   3.82102   3.86335   3.97138   4.06814
  Beta virt. eigenvalues --    4.08668   4.14316   4.17949   4.20920   4.23007
  Beta virt. eigenvalues --    4.25782   4.29678   4.33066   4.36537   4.74519
  Beta virt. eigenvalues --    4.87351   5.02213   5.02639   5.04002   5.06633
  Beta virt. eigenvalues --    5.07306   5.09649   5.13246   5.15924   5.16849
  Beta virt. eigenvalues --    5.18838   5.26719   5.29057   5.31959   5.35272
  Beta virt. eigenvalues --    5.35378   5.42279   5.45169   5.45219   5.47404
  Beta virt. eigenvalues --    5.54222   5.62435   5.65684   5.82085   5.92213
  Beta virt. eigenvalues --    6.05762   6.10032   6.20044   6.28726   6.52700
  Beta virt. eigenvalues --    6.74384   6.75677   6.77650   6.81834   6.87457
  Beta virt. eigenvalues --    6.90824   6.95966   7.02559   7.09937   7.11467
  Beta virt. eigenvalues --    7.14666   7.24081   7.25790   7.43760   7.47651
  Beta virt. eigenvalues --    7.58547   7.71916   7.78414  24.30858  24.39409
  Beta virt. eigenvalues --   24.66152  50.02932  50.08775  50.17586
          Condensed to atoms (all electrons):
              1          2          3          4          5          6
     1  C    4.946207  -0.087487   0.137855  -0.068226   0.424897   0.419134
     2  C   -0.087487   5.721052   0.267555  -0.526369   0.002225   0.003083
     3  O    0.137855   0.267555   8.052340  -0.148423  -0.037680  -0.049580
     4  C   -0.068226  -0.526369  -0.148423   6.329640  -0.001630   0.009765
     5  H    0.424897   0.002225  -0.037680  -0.001630   0.535139  -0.025133
     6  H    0.419134   0.003083  -0.049580   0.009765  -0.025133   0.527122
     7  H    0.424895   0.002224  -0.037678  -0.001631  -0.034034  -0.025137
     8  O   -0.018630   0.469680  -0.064418  -0.104849  -0.001138   0.001206
     9  O    0.002613  -0.012166   0.027799   0.300476   0.000028  -0.000052
              7          8          9
     1  C    0.424895  -0.018630   0.002613
     2  C    0.002224   0.469680  -0.012166
     3  O   -0.037678  -0.064418   0.027799
     4  C   -0.001631  -0.104849   0.300476
     5  H   -0.034034  -0.001138   0.000028
     6  H   -0.025137   0.001206  -0.000052
     7  H    0.535144  -0.001138   0.000028
     8  O   -0.001138   8.028847   0.006322
     9  O    0.000028   0.006322   7.815737
 Mulliken atomic charges:
              1
     1  C   -0.181258
     2  C    0.160203
     3  O   -0.147770
     4  C    0.211247
     5  H    0.137327
     6  H    0.139592
     7  H    0.137325
     8  O   -0.315881
     9  O   -0.140786
 Sum of Mulliken atomic charges =   0.00000
 Mulliken charges with hydrogens summed into heavy atoms:
              1
     1  C    0.232986
     2  C    0.160203
     3  O   -0.147770
     4  C    0.211247
     8  O   -0.315881
     9  O   -0.140786
 Sum of Mulliken charges with hydrogens summed into heavy atoms =   0.00000
          Atomic-Atomic Spin Densities.
              1          2          3          4          5          6
     1  C    0.005866   0.002064   0.002198  -0.004133  -0.000064   0.001681
     2  C    0.002064   0.527506  -0.098453  -0.437780   0.000081  -0.001838
     3  O    0.002198  -0.098453   0.060623   0.049384   0.000202  -0.001560
     4  C   -0.004133  -0.437780   0.049384   1.270634  -0.000216   0.001362
     5  H   -0.000064   0.000081   0.000202  -0.000216  -0.000321   0.000018
     6  H    0.001681  -0.001838  -0.001560   0.001362   0.000018   0.001735
     7  H   -0.000064   0.000081   0.000202  -0.000217  -0.000028   0.000018
     8  O   -0.000938   0.028211  -0.004703  -0.009699   0.000001  -0.000170
     9  O    0.000289   0.020666   0.008837  -0.200361  -0.000006   0.000117
              7          8          9
     1  C   -0.000064  -0.000938   0.000289
     2  C    0.000081   0.028211   0.020666
     3  O    0.000202  -0.004703   0.008837
     4  C   -0.000217  -0.009699  -0.200361
     5  H   -0.000028   0.000001  -0.000006
     6  H    0.000018  -0.000170   0.000117
     7  H   -0.000321   0.000001  -0.000006
     8  O    0.000001  -0.031893  -0.001296
     9  O   -0.000006  -0.001296   0.458409
 Mulliken atomic spin densities:
              1
     1  C    0.006900
     2  C    0.040537
     3  O    0.016730
     4  C    0.668974
     5  H   -0.000333
     6  H    0.001362
     7  H   -0.000333
     8  O   -0.020486
     9  O    0.286649
 Sum of Mulliken atomic spin densities =   1.00000
 Electronic spatial extent (au):  <R**2>=            574.1230
 Charge=              0.0000 electrons
 Dipole moment (field-independent basis, Debye):
    X=              2.2361    Y=             -1.0267    Z=              0.0001  Tot=              2.4605
 Quadrupole moment (field-independent basis, Debye-Ang):
   XX=            -31.7456   YY=            -39.8092   ZZ=            -32.5062
   XY=             -4.1730   XZ=              0.0000   YZ=              0.0000
 Traceless Quadrupole moment (field-independent basis, Debye-Ang):
   XX=              2.9414   YY=             -5.1222   ZZ=              2.1808
   XY=             -4.1730   XZ=              0.0000   YZ=              0.0000
 Octapole moment (field-independent basis, Debye-Ang**2):
  XXX=             22.4051  YYY=            -11.4228  ZZZ=             -0.0001  XYY=              3.0322
  XXY=             -2.2470  XXZ=              0.0002  XZZ=              0.1623  YZZ=              0.2889
  YYZ=              0.0000  XYZ=             -0.0001
 Hexadecapole moment (field-independent basis, Debye-Ang**3):
 XXXX=           -491.3714 YYYY=           -201.1547 ZZZZ=            -36.5368 XXXY=            -11.2468
 XXXZ=              0.0001 YYYX=             -0.5448 YYYZ=             -0.0001 ZZZX=              0.0002
 ZZZY=             -0.0001 XXYY=           -113.2025 XXZZ=            -84.3802 YYZZ=            -38.2561
 XXYZ=             -0.0005 YYXZ=              0.0001 ZZXY=              3.6639
 N-N= 2.131842774562D+02 E-N=-1.834181676690D+03  KE= 5.087035390581D+02
                          Isotropic Fermi Contact Couplings
        Atom                 a.u.       MegaHertz       Gauss      10(-4) cm-1
     1  C(13)              0.00415       4.66157       1.66336       1.55493
     2  C(13)              0.20242     227.56282      81.20007      75.90679
     3  O(17)              0.04222     -25.59598      -9.13328      -8.53790
     4  C(13)              0.45219     508.34659     181.39070     169.56617
     5  H(1)              -0.00015      -0.66210      -0.23625      -0.22085
     6  H(1)               0.00082       3.64565       1.30086       1.21606
     7  H(1)              -0.00015      -0.66204      -0.23623      -0.22083
     8  O(17)             -0.00578       3.50228       1.24970       1.16823
     9  O(17)              0.07690     -46.61541     -16.63354     -15.54923
 --------------------------------------------------------
       Center         ----  Spin Dipole Couplings  ----
                      3XX-RR        3YY-RR        3ZZ-RR
 --------------------------------------------------------
     1   Atom        0.015779     -0.007774     -0.008005
     2   Atom        0.131156     -0.067105     -0.064052
     3   Atom        0.012917      0.026334     -0.039251
     4   Atom       -0.035365      0.343092     -0.307728
     5   Atom        0.003671     -0.002161     -0.001510
     6   Atom        0.002367     -0.000100     -0.002267
     7   Atom        0.003671     -0.002161     -0.001510
     8   Atom        0.032321      0.036411     -0.068732
     9   Atom        0.783332      0.139751     -0.923084
 --------------------------------------------------------
                        XY            XZ            YZ
 --------------------------------------------------------
     1   Atom       -0.003086      0.000000      0.000000
     2   Atom        0.073262     -0.000003     -0.000001
     3   Atom       -0.064425     -0.000005      0.000007
     4   Atom       -0.459823     -0.000001     -0.000001
     5   Atom        0.000070     -0.001869     -0.000530
     6   Atom       -0.001865      0.000000      0.000000
     7   Atom        0.000070      0.001869      0.000530
     8   Atom        0.006609     -0.000006     -0.000002
     9   Atom       -1.249107      0.000018     -0.000011
 --------------------------------------------------------


 ---------------------------------------------------------------------------------
              Anisotropic Spin Dipole Couplings in Principal Axis System
 ---------------------------------------------------------------------------------

       Atom             a.u.   MegaHertz   Gauss  10(-4) cm-1        Axes

              Baa    -0.0082    -1.097    -0.391    -0.366  0.1278  0.9918  0.0000
     1 C(13)  Bbb    -0.0080    -1.074    -0.383    -0.358  0.0000  0.0000  1.0000
              Bcc     0.0162     2.171     0.775     0.724  0.9918 -0.1278  0.0000
 
              Baa    -0.0912   -12.243    -4.369    -4.084 -0.3129  0.9498  0.0000
     2 C(13)  Bbb    -0.0641    -8.595    -3.067    -2.867  0.0000  0.0000  1.0000
              Bcc     0.1553    20.839     7.436     6.951  0.9498  0.3129  0.0000
 
              Baa    -0.0451     3.267     1.166     1.090  0.7428  0.6695 -0.0001
     3 O(17)  Bbb    -0.0393     2.840     1.013     0.947  0.0001  0.0000  1.0000
              Bcc     0.0844    -6.107    -2.179    -2.037 -0.6695  0.7428  0.0001
 
              Baa    -0.3434   -46.077   -16.442   -15.370  0.8308  0.5565  0.0000
     4 C(13)  Bbb    -0.3077   -41.294   -14.735   -13.774  0.0000  0.0000  1.0000
              Bcc     0.6511    87.372    31.176    29.144 -0.5565  0.8308  0.0000
 
              Baa    -0.0026    -1.400    -0.500    -0.467  0.1881  0.7265  0.6609
     5 H(1)   Bbb    -0.0017    -0.885    -0.316    -0.295 -0.2487  0.6862 -0.6836
              Bcc     0.0043     2.285     0.815     0.762  0.9501  0.0358 -0.3098
 
              Baa    -0.0023    -1.210    -0.432    -0.404  0.0000  0.0000  1.0000
     6 H(1)   Bbb    -0.0011    -0.588    -0.210    -0.196  0.4735  0.8808  0.0000
              Bcc     0.0034     1.798     0.642     0.600  0.8808 -0.4735  0.0000
 
              Baa    -0.0026    -1.400    -0.500    -0.467  0.1881  0.7266 -0.6609
     7 H(1)   Bbb    -0.0017    -0.885    -0.316    -0.295 -0.2487  0.6862  0.6836
              Bcc     0.0043     2.285     0.815     0.762  0.9501  0.0358  0.3098
 
              Baa    -0.0687     4.973     1.775     1.659  0.0001  0.0000  1.0000
     8 O(17)  Bbb     0.0274    -1.986    -0.709    -0.662  0.8049 -0.5935  0.0000
              Bcc     0.0413    -2.987    -1.066    -0.996  0.5935  0.8049  0.0000
 
              Baa    -0.9231    66.794    23.834    22.280  0.0000  0.0000  1.0000
     9 O(17)  Bbb    -0.8283    59.939    21.388    19.993  0.6126  0.7904  0.0000
              Bcc     1.7514  -126.732   -45.221   -42.273  0.7904 -0.6126  0.0000
 

 ---------------------------------------------------------------------------------

 Calling FoFJK, ICntrl=      2127 FMM=F ISym2X=0 I1Cent= 0 IOpClX= 1 NMat=1 NMatS=1 NMatT=0.
 ***** Axes restored to original set *****
 -------------------------------------------------------------------
 Center     Atomic                   Forces (Hartrees/Bohr)
 Number     Number              X              Y              Z
 -------------------------------------------------------------------
      1        6          -0.008917775    0.018510239    0.007330637
      2        6          -0.110057655    0.082548476    0.037259577
      3        8           0.056143679    0.005968514   -0.001453912
      4        6           0.041798136   -0.144558492   -0.055469650
      5        1           0.002439871   -0.000719529   -0.013316936
      6        1           0.015910360    0.008258052    0.001989252
      7        1           0.003906324   -0.008993474    0.009360502
      8        8           0.020268485   -0.080485219   -0.030697203
      9        8          -0.021491425    0.119471434    0.044997733
 -------------------------------------------------------------------
 Cartesian Forces:  Max     0.144558492 RMS     0.052699725

 GradGradGradGradGradGradGradGradGradGradGradGradGradGradGradGradGradGrad
 Berny optimization.
 Internal  Forces:  Max     0.129230820 RMS     0.035934487
 Search for a local minimum.
 Step number   1 out of a maximum of   36
 All quantities printed in internal units (Hartrees-Bohrs-Radians)
 Swaping is turned off.
 Second derivative matrix not updated -- first step.
 ITU=  0
     Eigenvalues ---    0.01278   0.01393   0.01501   0.01717   0.10267
     Eigenvalues ---    0.10396   0.16000   0.16000   0.16000   0.25000
     Eigenvalues ---    0.25000   0.25000   0.25000   0.32525   0.32525
     Eigenvalues ---    0.32671   0.36800   0.42077   0.45937   0.79566
     Eigenvalues ---    0.80059
 Quadratic step=3.566D-01 exceeds max=3.000D-01 adjusted using Lamda=-6.818D-02.
 Angle between NR and scaled steps=   4.66 degrees.
 Angle between quadratic step and forces=  23.75 degrees.
 Linear search not attempted -- option 19 set.
 Iteration  1 RMS(Cart)=  0.09247930 RMS(Int)=  0.00217887
 Iteration  2 RMS(Cart)=  0.00222268 RMS(Int)=  0.00002592
 Iteration  3 RMS(Cart)=  0.00000600 RMS(Int)=  0.00002572
 Iteration  4 RMS(Cart)=  0.00000000 RMS(Int)=  0.00002572
 Variable       Old X    -DE/DX   Delta X   Delta X   Delta X     New X
                                 (Linear)    (Quad)   (Total)
    R1        2.68825  -0.00839   0.00000  -0.01716  -0.01716   2.67109
    R2        2.09894  -0.01338   0.00000  -0.03400  -0.03400   2.06494
    R3        2.09632  -0.01589   0.00000  -0.04025  -0.04025   2.05608
    R4        2.09894  -0.01338   0.00000  -0.03400  -0.03400   2.06494
    R5        2.64202  -0.06671   0.00000  -0.12646  -0.12646   2.51557
    R6        2.76149   0.02754   0.00000   0.06314   0.06314   2.82463
    R7        2.38150  -0.08845   0.00000  -0.10240  -0.10240   2.27911
    R8        2.37884  -0.12923   0.00000  -0.14875  -0.14875   2.23009
    A1        1.92023   0.00217   0.00000   0.00980   0.00974   1.92997
    A2        1.90581  -0.01293   0.00000  -0.05726  -0.05730   1.84851
    A3        1.92022   0.00217   0.00000   0.00980   0.00975   1.92997
    A4        1.90103   0.00492   0.00000   0.02095   0.02091   1.92194
    A5        1.91530  -0.00125   0.00000  -0.00431  -0.00439   1.91092
    A6        1.90098   0.00492   0.00000   0.02098   0.02094   1.92192
    A7        2.09297  -0.02512   0.00000  -0.07896  -0.07896   2.01401
    A8        2.10809   0.01510   0.00000   0.04747   0.04747   2.15555
    A9        2.08213   0.01002   0.00000   0.03149   0.03149   2.11363
   A10        2.13922  -0.03993   0.00000  -0.12551  -0.12551   2.01371
   A11        2.10495   0.01942   0.00000   0.06104   0.06104   2.16599
    D1       -1.05611  -0.00062   0.00000  -0.00364  -0.00366  -1.05977
    D2        3.14156   0.00000   0.00000   0.00001   0.00001   3.14157
    D3        1.05610   0.00062   0.00000   0.00363   0.00365   1.05975
    D4        3.14158   0.00000   0.00000   0.00003   0.00003  -3.14158
    D5        0.00007   0.00000   0.00000  -0.00004  -0.00004   0.00003
    D6        0.00002   0.00000   0.00000  -0.00004  -0.00004  -0.00002
    D7        3.14153   0.00000   0.00000   0.00003   0.00003   3.14156
         Item               Value     Threshold  Converged?
 Maximum Force            0.129231     0.000002     NO 
 RMS     Force            0.035934     0.000001     NO 
 Maximum Displacement     0.213935     0.000006     NO 
 RMS     Displacement     0.093299     0.000004     NO 
 Predicted change in Energy=-2.825459D-02
 GradGradGradGradGradGradGradGradGradGradGradGradGradGradGradGradGradGrad

                          Input orientation:                          
 ---------------------------------------------------------------------
 Center     Atomic      Atomic             Coordinates (Angstroms)
 Number     Number       Type             X           Y           Z
 ---------------------------------------------------------------------
      1          6           0       -1.357881   -0.146555    0.034246
      2          6           0        0.894645    0.406396    0.090512
      3          8           0       -0.014523   -0.524453   -0.190509
      4          6           0        2.315352    0.007174   -0.147043
      5          1           0       -1.516198    0.101407    1.086617
      6          1           0       -1.960617   -1.009309   -0.241748
      7          1           0       -1.624333    0.712208   -0.586692
      8          8           0        0.617290    1.503070    0.508769
      9          8           0        2.646364   -1.049837   -0.554253
 ---------------------------------------------------------------------
                    Distance matrix (angstroms):
                    1          2          3          4          5
     1  C    0.000000
     2  C    2.320085   0.000000
     3  O    1.413482   1.331180   0.000000
     4  C    3.680915   1.494730   2.390153   0.000000
     5  H    1.092718   2.626291   2.068279   4.026359   0.000000
     6  H    1.088029   3.204238   2.006239   4.396148   1.787667
     7  H    1.092719   2.626286   2.068280   4.026348   1.784582
     8  O    2.616818   1.206051   2.235851   2.356100   2.617315
     9  O    4.146833   2.367457   2.736541   1.180110   4.620036
                    6          7          8          9
     6  H    0.000000
     7  H    1.787651   0.000000
     8  O    3.677082   2.617322   0.000000
     9  O    4.617746   4.620033   3.429940   0.000000
 Stoichiometry    C3H3O3(2)
 Framework group  C1[X(C3H3O3)]
 Deg. of freedom    21
 Full point group                 C1      NOp   1
 Largest Abelian subgroup         C1      NOp   1
 Largest concise Abelian subgroup C1      NOp   1
                         Standard orientation:                         
 ---------------------------------------------------------------------
 Center     Atomic      Atomic             Coordinates (Angstroms)
 Number     Number       Type             X           Y           Z
 ---------------------------------------------------------------------
      1          6           0        1.990243   -0.593928    0.000001
      2          6           0       -0.086886    0.439673    0.000005
      3          8           0        0.581655   -0.711454   -0.000005
      4          6           0       -1.576476    0.315826    0.000015
      5          1           0        2.331408   -0.063397   -0.892286
      6          1           0        2.374498   -1.611846    0.000015
      7          1           0        2.331400   -0.063403    0.892296
      8          8           0        0.448407    1.520423   -0.000007
      9          8           0       -2.154886   -0.712816   -0.000008
 ---------------------------------------------------------------------
 Rotational constants (GHZ):      7.7765288      2.8362056      2.1060398
 Standard basis: 6-311+G(2df,2p) (5D, 7F)
 There are   231 symmetry adapted basis functions of A   symmetry.
 Integral buffers will be    131072 words long.
 Raffenetti 2 integral format.
 Two-electron integral symmetry is turned on.
   231 basis functions,   345 primitive gaussians,   261 cartesian basis functions
    23 alpha electrons       22 beta electrons
       nuclear repulsion energy       219.7995134536 Hartrees.
 NAtoms=    9 NActive=    9 NUniq=    9 SFac= 1.00D+00 NAtFMM=   50 NAOKFM=F Big=F
 One-electron integrals computed using PRISM.
 NBasis=   231 RedAO= T  NBF=   231
 NBsUse=   231 1.00D-06 NBFU=   231
 Initial guess read from the read-write file.
 B after Tr=     0.000000    0.000000    0.000000
         Rot=    1.000000    0.000000    0.000000    0.000000 Ang=   0.00 deg.
 Initial guess orbital symmetries:
 Alpha Orbitals:
       Occupied  (A) (A) (A) (A) (A) (A) (A) (A) (A) (A) (A) (A)
                 (A) (A) (A) (A) (A) (A) (A) (A) (A) (A) (A)
       Virtual   (A) (A) (A) (A) (A) (A) (A) (A) (A) (A) (A) (A)
                 (A) (A) (A) (A) (A) (A) (A) (A) (A) (A) (A) (A)
                 (A) (A) (A) (A) (A) (A) (A) (A) (A) (A) (A) (A)
                 (A) (A) (A) (A) (A) (A) (A) (A) (A) (A) (A) (A)
                 (A) (A) (A) (A) (A) (A) (A) (A) (A) (A) (A) (A)
                 (A) (A) (A) (A) (A) (A) (A) (A) (A) (A) (A) (A)
                 (A) (A) (A) (A) (A) (A) (A) (A) (A) (A) (A) (A)
                 (A) (A) (A) (A) (A) (A) (A) (A) (A) (A) (A) (A)
                 (A) (A) (A) (A) (A) (A) (A) (A) (A) (A) (A) (A)
                 (A) (A) (A) (A) (A) (A) (A) (A) (A) (A) (A) (A)
                 (A) (A) (A) (A) (A) (A) (A) (A) (A) (A) (A) (A)
                 (A) (A) (A) (A) (A) (A) (A) (A) (A) (A) (A) (A)
                 (A) (A) (A) (A) (A) (A) (A) (A) (A) (A) (A) (A)
                 (A) (A) (A) (A) (A) (A) (A) (A) (A) (A) (A) (A)
                 (A) (A) (A) (A) (A) (A) (A) (A) (A) (A) (A) (A)
                 (A) (A) (A) (A) (A) (A) (A) (A) (A) (A) (A) (A)
                 (A) (A) (A) (A) (A) (A) (A) (A) (A) (A) (A) (A)
                 (A) (A) (A) (A)
 Beta  Orbitals:
       Occupied  (A) (A) (A) (A) (A) (A) (A) (A) (A) (A) (A) (A)
                 (A) (A) (A) (A) (A) (A) (A) (A) (A) (A)
       Virtual   (A) (A) (A) (A) (A) (A) (A) (A) (A) (A) (A) (A)
                 (A) (A) (A) (A) (A) (A) (A) (A) (A) (A) (A) (A)
                 (A) (A) (A) (A) (A) (A) (A) (A) (A) (A) (A) (A)
                 (A) (A) (A) (A) (A) (A) (A) (A) (A) (A) (A) (A)
                 (A) (A) (A) (A) (A) (A) (A) (A) (A) (A) (A) (A)
                 (A) (A) (A) (A) (A) (A) (A) (A) (A) (A) (A) (A)
                 (A) (A) (A) (A) (A) (A) (A) (A) (A) (A) (A) (A)
                 (A) (A) (A) (A) (A) (A) (A) (A) (A) (A) (A) (A)
                 (A) (A) (A) (A) (A) (A) (A) (A) (A) (A) (A) (A)
                 (A) (A) (A) (A) (A) (A) (A) (A) (A) (A) (A) (A)
                 (A) (A) (A) (A) (A) (A) (A) (A) (A) (A) (A) (A)
                 (A) (A) (A) (A) (A) (A) (A) (A) (A) (A) (A) (A)
                 (A) (A) (A) (A) (A) (A) (A) (A) (A) (A) (A) (A)
                 (A) (A) (A) (A) (A) (A) (A) (A) (A) (A) (A) (A)
                 (A) (A) (A) (A) (A) (A) (A) (A) (A) (A) (A) (A)
                 (A) (A) (A) (A) (A) (A) (A) (A) (A) (A) (A) (A)
                 (A) (A) (A) (A) (A) (A) (A) (A) (A) (A) (A) (A)
                 (A) (A) (A) (A) (A)
 Initial guess <Sx>= 0.0000 <Sy>= 0.0000 <Sz>= 0.5000 <S**2>= 0.7547 S= 0.5024
 Harris functional with IExCor= 1009 diagonalized for initial guess.
 ExpMin= 4.38D-02 ExpMax= 8.59D+03 ExpMxC= 1.30D+03 IAcc=2 IRadAn=         0 AccDes= 0.00D+00
 HarFok:  IExCor= 1009 AccDes= 0.00D+00 IRadAn=         0 IDoV= 1
 ScaDFX=  1.000000  1.000000  1.000000  1.000000
 FoFCou: FMM=F IPFlag=           0 FMFlag=      100000 FMFlg1=           0
         NFxFlg=           0 DoJE=T BraDBF=F KetDBF=T FulRan=T
         Omega=  0.000000  0.000000  1.000000  0.000000  0.000000 ICntrl=     500 IOpCl=  0
         NMat0=    1 NMatS0=    1 NMatT0=    0 NMatD0=    1 NMtDS0=    0 NMtDT0=    0
         I1Cent=           4 NGrid=           0.
 Petite list used in FoFCou.
 Requested convergence on RMS density matrix=1.00D-08 within 128 cycles.
 Requested convergence on MAX density matrix=1.00D-06.
 Requested convergence on             energy=1.00D-06.
 No special actions if energy rises.
 SCF Done:  E(UM062X) =  -341.704835490     A.U. after   16 cycles
             Convg  =    0.5155D-08             -V/T =  2.0032
 <Sx>= 0.0000 <Sy>= 0.0000 <Sz>= 0.5000 <S**2>= 0.7540 S= 0.5020
 <L.S>= 0.000000000000E+00
 Annihilation of the first spin contaminant:
 S**2 before annihilation     0.7540,   after     0.7500
 Calling FoFJK, ICntrl=      2127 FMM=F ISym2X=0 I1Cent= 0 IOpClX= 1 NMat=1 NMatS=1 NMatT=0.
 ***** Axes restored to original set *****
 -------------------------------------------------------------------
 Center     Atomic                   Forces (Hartrees/Bohr)
 Number     Number              X              Y              Z
 -------------------------------------------------------------------
      1        6          -0.013001414    0.001858756    0.001516849
      2        6          -0.037924072    0.030304866    0.013515673
      3        8           0.020423945   -0.004486104   -0.002958877
      4        6           0.021826161   -0.035730266   -0.014453310
      5        1           0.001086239    0.000449026   -0.002825267
      6        1           0.001663359    0.001420353    0.000412545
      7        1           0.001419075   -0.001423734    0.002308214
      8        8           0.007203671   -0.013679052   -0.005459862
      9        8          -0.002696963    0.021286155    0.007944036
 -------------------------------------------------------------------
 Cartesian Forces:  Max     0.037924072 RMS     0.014829928

 GradGradGradGradGradGradGradGradGradGradGradGradGradGradGradGradGradGrad
 Berny optimization.
 Using GDIIS optimizer.
 Internal  Forces:  Max     0.023069405 RMS     0.008447541
 Search for a local minimum.
 Step number   2 out of a maximum of   36
 All quantities printed in internal units (Hartrees-Bohrs-Radians)
 Swaping is turned off.
 Update second derivatives using D2CorX and points    1    2
 DE= -3.16D-02 DEPred=-2.83D-02 R= 1.12D+00
 SS=  1.41D+00  RLast= 3.00D-01 DXNew= 5.0454D-01 9.0084D-01
 Trust test= 1.12D+00 RLast= 3.00D-01 DXMaxT set to 5.05D-01
 ITU=  1  0
     Eigenvalues ---    0.01278   0.01393   0.01503   0.01717   0.10218
     Eigenvalues ---    0.10680   0.15996   0.16000   0.16174   0.22947
     Eigenvalues ---    0.25000   0.25000   0.26321   0.32380   0.32525
     Eigenvalues ---    0.32676   0.34915   0.42087   0.48423   0.75481
     Eigenvalues ---    0.79753
 DIIS coeff's:      1.23834     -0.23834
 Cosine:  1.000 >  0.970
 Length:  1.000
 GDIIS step was calculated using  2 of the last  2 vectors.
 Iteration  1 RMS(Cart)=  0.02987688 RMS(Int)=  0.00075373
 Iteration  2 RMS(Cart)=  0.00109392 RMS(Int)=  0.00003499
 Iteration  3 RMS(Cart)=  0.00000065 RMS(Int)=  0.00003499
 Variable       Old X    -DE/DX   Delta X   Delta X   Delta X     New X
                                  (DIIS)     (GDIIS)  (Total)
    R1        2.67109   0.00921  -0.00409   0.03070   0.02661   2.69770
    R2        2.06494  -0.00279  -0.00810  -0.00308  -0.01119   2.05375
    R3        2.05608  -0.00214  -0.00959   0.00079  -0.00880   2.04728
    R4        2.06494  -0.00279  -0.00810  -0.00309  -0.01119   2.05375
    R5        2.51557  -0.00601  -0.03014   0.00994  -0.02019   2.49537
    R6        2.82463   0.02307   0.01505   0.06402   0.07907   2.90370
    R7        2.27911  -0.01598  -0.02441  -0.00523  -0.02963   2.24947
    R8        2.23009  -0.02259  -0.03545  -0.00644  -0.04189   2.18819
    A1        1.92997  -0.00069   0.00232  -0.00943  -0.00717   1.92280
    A2        1.84851  -0.00013  -0.01366   0.01734   0.00367   1.85218
    A3        1.92997  -0.00069   0.00232  -0.00943  -0.00717   1.92280
    A4        1.92194   0.00111   0.00498   0.00558   0.01054   1.93248
    A5        1.91092  -0.00065  -0.00105  -0.00878  -0.00993   1.90099
    A6        1.92192   0.00111   0.00499   0.00559   0.01056   1.93248
    A7        2.01401  -0.01425  -0.01882  -0.05193  -0.07075   1.94325
    A8        2.15555   0.01124   0.01131   0.04447   0.05578   2.21133
    A9        2.11363   0.00301   0.00751   0.00746   0.01497   2.12860
   A10        2.01371  -0.00042  -0.02991   0.02759  -0.00233   2.01139
   A11        2.16599   0.00851   0.01455   0.02773   0.04228   2.20827
    D1       -1.05977   0.00088  -0.00087   0.01185   0.01090  -1.04887
    D2        3.14157   0.00000   0.00000   0.00001   0.00001   3.14158
    D3        1.05975  -0.00088   0.00087  -0.01185  -0.01091   1.04885
    D4       -3.14158   0.00000   0.00001  -0.00002  -0.00001  -3.14159
    D5        0.00003   0.00000  -0.00001  -0.00003  -0.00004  -0.00001
    D6       -0.00002   0.00000  -0.00001  -0.00002  -0.00003  -0.00005
    D7        3.14156   0.00000   0.00001  -0.00001   0.00000   3.14156
         Item               Value     Threshold  Converged?
 Maximum Force            0.023069     0.000002     NO 
 RMS     Force            0.008448     0.000001     NO 
 Maximum Displacement     0.068652     0.000006     NO 
 RMS     Displacement     0.030222     0.000004     NO 
 Predicted change in Energy=-2.895411D-03
 GradGradGradGradGradGradGradGradGradGradGradGradGradGradGradGradGradGrad

                          Input orientation:                          
 ---------------------------------------------------------------------
 Center     Atomic      Atomic             Coordinates (Angstroms)
 Number     Number       Type             X           Y           Z
 ---------------------------------------------------------------------
      1          6           0       -1.364955   -0.154008    0.031981
      2          6           0        0.877390    0.442725    0.104888
      3          8           0        0.002334   -0.503121   -0.183825
      4          6           0        2.316273   -0.027081   -0.159606
      5          1           0       -1.527306    0.096358    1.077011
      6          1           0       -1.945589   -1.024637   -0.248316
      7          1           0       -1.634480    0.701739   -0.581356
      8          8           0        0.636394    1.532668    0.518320
      9          8           0        2.640039   -1.064544   -0.559197
 ---------------------------------------------------------------------
                    Distance matrix (angstroms):
                    1          2          3          4          5
     1  C    0.000000
     2  C    2.321533   0.000000
     3  O    1.427562   1.320493   0.000000
     4  C    3.688395   1.536573   2.362522   0.000000
     5  H    1.086797   2.616784   2.070961   4.039499   0.000000
     6  H    1.083373   3.201112   2.017559   4.377951   1.785521
     7  H    1.086798   2.616775   2.070961   4.039492   1.768659
     8  O    2.662104   1.190370   2.244877   2.390480   2.656448
     9  O    4.149523   2.412426   2.722790   1.157941   4.625109
                    6          7          8          9
     6  H    0.000000
     7  H    1.785520   0.000000
     8  O    3.714051   2.656426   0.000000
     9  O    4.596327   4.625123   3.452702   0.000000
 Stoichiometry    C3H3O3(2)
 Framework group  C1[X(C3H3O3)]
 Deg. of freedom    21
 Full point group                 C1      NOp   1
 Largest Abelian subgroup         C1      NOp   1
 Largest concise Abelian subgroup C1      NOp   1
                         Standard orientation:                         
 ---------------------------------------------------------------------
 Center     Atomic      Atomic             Coordinates (Angstroms)
 Number     Number       Type             X           Y           Z
 ---------------------------------------------------------------------
      1          6           0       -1.989967   -0.628676    0.000003
      2          6           0        0.055790    0.468774    0.000000
      3          8           0       -0.564051   -0.697201   -0.000008
      4          6           0        1.582009    0.290694   -0.000016
      5          1           0       -2.339817   -0.102679    0.884345
      6          1           0       -2.340411   -1.653803   -0.000018
      7          1           0       -2.339828   -0.102642   -0.884314
      8          8           0       -0.453007    1.544928    0.000005
      9          8           0        2.158691   -0.713431    0.000011
 ---------------------------------------------------------------------
 Rotational constants (GHZ):      7.5855973      2.8352250      2.0907541
 Standard basis: 6-311+G(2df,2p) (5D, 7F)
 There are   231 symmetry adapted basis functions of A   symmetry.
 Integral buffers will be    131072 words long.
 Raffenetti 2 integral format.
 Two-electron integral symmetry is turned on.
   231 basis functions,   345 primitive gaussians,   261 cartesian basis functions
    23 alpha electrons       22 beta electrons
       nuclear repulsion energy       219.6214249218 Hartrees.
 NAtoms=    9 NActive=    9 NUniq=    9 SFac= 1.00D+00 NAtFMM=   50 NAOKFM=F Big=F
 One-electron integrals computed using PRISM.
 NBasis=   231 RedAO= T  NBF=   231
 NBsUse=   231 1.00D-06 NBFU=   231
 Initial guess read from the read-write file.
 B after Tr=     0.000000    0.000000    0.000000
         Rot=    1.000000    0.000000    0.000000    0.000000 Ang=   0.00 deg.
 Initial guess orbital symmetries:
 Alpha Orbitals:
       Occupied  (A) (A) (A) (A) (A) (A) (A) (A) (A) (A) (A) (A)
                 (A) (A) (A) (A) (A) (A) (A) (A) (A) (A) (A)
       Virtual   (A) (A) (A) (A) (A) (A) (A) (A) (A) (A) (A) (A)
                 (A) (A) (A) (A) (A) (A) (A) (A) (A) (A) (A) (A)
                 (A) (A) (A) (A) (A) (A) (A) (A) (A) (A) (A) (A)
                 (A) (A) (A) (A) (A) (A) (A) (A) (A) (A) (A) (A)
                 (A) (A) (A) (A) (A) (A) (A) (A) (A) (A) (A) (A)
                 (A) (A) (A) (A) (A) (A) (A) (A) (A) (A) (A) (A)
                 (A) (A) (A) (A) (A) (A) (A) (A) (A) (A) (A) (A)
                 (A) (A) (A) (A) (A) (A) (A) (A) (A) (A) (A) (A)
                 (A) (A) (A) (A) (A) (A) (A) (A) (A) (A) (A) (A)
                 (A) (A) (A) (A) (A) (A) (A) (A) (A) (A) (A) (A)
                 (A) (A) (A) (A) (A) (A) (A) (A) (A) (A) (A) (A)
                 (A) (A) (A) (A) (A) (A) (A) (A) (A) (A) (A) (A)
                 (A) (A) (A) (A) (A) (A) (A) (A) (A) (A) (A) (A)
                 (A) (A) (A) (A) (A) (A) (A) (A) (A) (A) (A) (A)
                 (A) (A) (A) (A) (A) (A) (A) (A) (A) (A) (A) (A)
                 (A) (A) (A) (A) (A) (A) (A) (A) (A) (A) (A) (A)
                 (A) (A) (A) (A) (A) (A) (A) (A) (A) (A) (A) (A)
                 (A) (A) (A) (A)
 Beta  Orbitals:
       Occupied  (A) (A) (A) (A) (A) (A) (A) (A) (A) (A) (A) (A)
                 (A) (A) (A) (A) (A) (A) (A) (A) (A) (A)
       Virtual   (A) (A) (A) (A) (A) (A) (A) (A) (A) (A) (A) (A)
                 (A) (A) (A) (A) (A) (A) (A) (A) (A) (A) (A) (A)
                 (A) (A) (A) (A) (A) (A) (A) (A) (A) (A) (A) (A)
                 (A) (A) (A) (A) (A) (A) (A) (A) (A) (A) (A) (A)
                 (A) (A) (A) (A) (A) (A) (A) (A) (A) (A) (A) (A)
                 (A) (A) (A) (A) (A) (A) (A) (A) (A) (A) (A) (A)
                 (A) (A) (A) (A) (A) (A) (A) (A) (A) (A) (A) (A)
                 (A) (A) (A) (A) (A) (A) (A) (A) (A) (A) (A) (A)
                 (A) (A) (A) (A) (A) (A) (A) (A) (A) (A) (A) (A)
                 (A) (A) (A) (A) (A) (A) (A) (A) (A) (A) (A) (A)
                 (A) (A) (A) (A) (A) (A) (A) (A) (A) (A) (A) (A)
                 (A) (A) (A) (A) (A) (A) (A) (A) (A) (A) (A) (A)
                 (A) (A) (A) (A) (A) (A) (A) (A) (A) (A) (A) (A)
                 (A) (A) (A) (A) (A) (A) (A) (A) (A) (A) (A) (A)
                 (A) (A) (A) (A) (A) (A) (A) (A) (A) (A) (A) (A)
                 (A) (A) (A) (A) (A) (A) (A) (A) (A) (A) (A) (A)
                 (A) (A) (A) (A) (A) (A) (A) (A) (A) (A) (A) (A)
                 (A) (A) (A) (A) (A)
 Initial guess <Sx>= 0.0000 <Sy>= 0.0000 <Sz>= 0.5000 <S**2>= 0.7608 S= 0.5054
 Harris functional with IExCor= 1009 diagonalized for initial guess.
 ExpMin= 4.38D-02 ExpMax= 8.59D+03 ExpMxC= 1.30D+03 IAcc=2 IRadAn=         0 AccDes= 0.00D+00
 HarFok:  IExCor= 1009 AccDes= 0.00D+00 IRadAn=         0 IDoV= 1
 ScaDFX=  1.000000  1.000000  1.000000  1.000000
 FoFCou: FMM=F IPFlag=           0 FMFlag=      100000 FMFlg1=           0
         NFxFlg=           0 DoJE=T BraDBF=F KetDBF=T FulRan=T
         Omega=  0.000000  0.000000  1.000000  0.000000  0.000000 ICntrl=     500 IOpCl=  0
         NMat0=    1 NMatS0=    1 NMatT0=    0 NMatD0=    1 NMtDS0=    0 NMtDT0=    0
         I1Cent=           4 NGrid=           0.
 Petite list used in FoFCou.
 Requested convergence on RMS density matrix=1.00D-08 within 128 cycles.
 Requested convergence on MAX density matrix=1.00D-06.
 Requested convergence on             energy=1.00D-06.
 No special actions if energy rises.
 SCF Done:  E(UM062X) =  -341.707661386     A.U. after   17 cycles
             Convg  =    0.3899D-08             -V/T =  2.0028
 <Sx>= 0.0000 <Sy>= 0.0000 <Sz>= 0.5000 <S**2>= 0.7538 S= 0.5019
 <L.S>= 0.000000000000E+00
 Annihilation of the first spin contaminant:
 S**2 before annihilation     0.7538,   after     0.7500
 Calling FoFJK, ICntrl=      2127 FMM=F ISym2X=0 I1Cent= 0 IOpClX= 1 NMat=1 NMatS=1 NMatT=0.
 ***** Axes restored to original set *****
 -------------------------------------------------------------------
 Center     Atomic                   Forces (Hartrees/Bohr)
 Number     Number              X              Y              Z
 -------------------------------------------------------------------
      1        6          -0.003582207    0.000761358    0.000508495
      2        6          -0.005992165    0.002726312    0.001381488
      3        8           0.000295357   -0.002774382   -0.001031280
      4        6           0.006441282    0.012407311    0.004111788
      5        1           0.000394986   -0.000017206    0.001091395
      6        1           0.000312609   -0.000622995   -0.000247415
      7        1           0.000267464    0.000703468   -0.000883234
      8        8          -0.001216326    0.001703543    0.000701167
      9        8           0.003079000   -0.014887410   -0.005632405
 -------------------------------------------------------------------
 Cartesian Forces:  Max     0.014887410 RMS     0.004517691

 GradGradGradGradGradGradGradGradGradGradGradGradGradGradGradGradGradGrad
 Berny optimization.
 Using GDIIS optimizer.
 Internal  Forces:  Max     0.016113176 RMS     0.003904794
 Search for a local minimum.
 Step number   3 out of a maximum of   36
 All quantities printed in internal units (Hartrees-Bohrs-Radians)
 Swaping is turned off.
 Update second derivatives using D2CorX and points    1    2    3
 DE= -2.83D-03 DEPred=-2.90D-03 R= 9.76D-01
 SS=  1.41D+00  RLast= 1.45D-01 DXNew= 8.4853D-01 4.3618D-01
 Trust test= 9.76D-01 RLast= 1.45D-01 DXMaxT set to 5.05D-01
 ITU=  1  1  0
     Eigenvalues ---    0.01278   0.01393   0.01510   0.01717   0.10341
     Eigenvalues ---    0.10661   0.15802   0.16000   0.16131   0.21123
     Eigenvalues ---    0.25000   0.25475   0.26396   0.30592   0.32525
     Eigenvalues ---    0.32633   0.33292   0.42080   0.48617   0.78498
     Eigenvalues ---    0.98833
 DIIS coeff's:      1.08421     -0.14769      0.06348
 Cosine:  0.997 >  0.840
 Length:  1.143
 GDIIS step was calculated using  3 of the last  3 vectors.
 Iteration  1 RMS(Cart)=  0.00869707 RMS(Int)=  0.00003752
 Iteration  2 RMS(Cart)=  0.00005337 RMS(Int)=  0.00000800
 Iteration  3 RMS(Cart)=  0.00000000 RMS(Int)=  0.00000800
 Variable       Old X    -DE/DX   Delta X   Delta X   Delta X     New X
                                  (DIIS)     (GDIIS)  (Total)
    R1        2.69770   0.00274   0.00333   0.00375   0.00708   2.70478
    R2        2.05375   0.00098   0.00122   0.00069   0.00191   2.05566
    R3        2.04728   0.00041   0.00181  -0.00190  -0.00009   2.04719
    R4        2.05375   0.00098   0.00122   0.00069   0.00191   2.05566
    R5        2.49537   0.00311   0.00633  -0.00300   0.00333   2.49870
    R6        2.90370   0.00993   0.00265   0.02980   0.03245   2.93615
    R7        2.24947   0.00206   0.00400  -0.00434  -0.00033   2.24914
    R8        2.18819   0.01611   0.00591   0.01111   0.01702   2.20522
    A1        1.92280  -0.00056  -0.00122  -0.00209  -0.00333   1.91947
    A2        1.85218  -0.00080   0.00395  -0.01200  -0.00807   1.84410
    A3        1.92280  -0.00056  -0.00122  -0.00209  -0.00333   1.91947
    A4        1.93248   0.00054  -0.00044   0.00482   0.00437   1.93685
    A5        1.90099   0.00079  -0.00056   0.00609   0.00551   1.90650
    A6        1.93248   0.00054  -0.00044   0.00482   0.00437   1.93685
    A7        1.94325  -0.00017  -0.00095  -0.00408  -0.00503   1.93823
    A8        2.21133  -0.00086   0.00168  -0.00247  -0.00079   2.21055
    A9        2.12860   0.00103  -0.00074   0.00655   0.00581   2.13441
   A10        2.01139   0.00011   0.00777  -0.01164  -0.00387   2.00752
   A11        2.20827  -0.00322  -0.00031  -0.01040  -0.01071   2.19756
    D1       -1.04887  -0.00013   0.00115  -0.00245  -0.00130  -1.05016
    D2        3.14158   0.00000   0.00000   0.00001   0.00001   3.14159
    D3        1.04885   0.00013  -0.00115   0.00245   0.00130   1.05015
    D4       -3.14159   0.00000   0.00000   0.00000   0.00000   3.14159
    D5       -0.00001   0.00000   0.00000   0.00003   0.00003   0.00002
    D6       -0.00005   0.00000   0.00000  -0.00001  -0.00001  -0.00006
    D7        3.14156   0.00000   0.00000  -0.00004  -0.00004   3.14152
         Item               Value     Threshold  Converged?
 Maximum Force            0.016113     0.000002     NO 
 RMS     Force            0.003905     0.000001     NO 
 Maximum Displacement     0.023628     0.000006     NO 
 RMS     Displacement     0.008689     0.000004     NO 
 Predicted change in Energy=-2.947168D-04
 GradGradGradGradGradGradGradGradGradGradGradGradGradGradGradGradGradGrad

                          Input orientation:                          
 ---------------------------------------------------------------------
 Center     Atomic      Atomic             Coordinates (Angstroms)
 Number     Number       Type             X           Y           Z
 ---------------------------------------------------------------------
      1          6           0       -1.368814   -0.152401    0.032815
      2          6           0        0.874182    0.448764    0.107290
      3          8           0        0.002251   -0.501824   -0.183351
      4          6           0        2.328776   -0.027240   -0.160480
      5          1           0       -1.528374    0.096191    1.079747
      6          1           0       -1.941613   -1.027468   -0.249599
      7          1           0       -1.635866    0.703317   -0.583427
      8          8           0        0.627262    1.537237    0.520596
      9          8           0        2.642296   -1.076476   -0.563691
 ---------------------------------------------------------------------
                    Distance matrix (angstroms):
                    1          2          3          4          5
     1  C    0.000000
     2  C    2.323354   0.000000
     3  O    1.431307   1.322254   0.000000
     4  C    3.704753   1.553745   2.374547   0.000000
     5  H    1.087807   2.615770   2.072643   4.053517   0.000000
     6  H    1.083328   3.199271   2.014770   4.386869   1.789004
     7  H    1.087807   2.615765   2.072644   4.053515   1.773782
     8  O    2.660287   1.190195   2.245874   2.409689   2.652552
     9  O    4.159175   2.429568   2.728502   1.166950   4.633630
                    6          7          8          9
     6  H    0.000000
     7  H    1.789005   0.000000
     8  O    3.710800   2.652554   0.000000
     9  O    4.594919   4.633652   3.473836   0.000000
 Stoichiometry    C3H3O3(2)
 Framework group  C1[X(C3H3O3)]
 Deg. of freedom    21
 Full point group                 C1      NOp   1
 Largest Abelian subgroup         C1      NOp   1
 Largest concise Abelian subgroup C1      NOp   1
                         Standard orientation:                         
 ---------------------------------------------------------------------
 Center     Atomic      Atomic             Coordinates (Angstroms)
 Number     Number       Type             X           Y           Z
 ---------------------------------------------------------------------
      1          6           0       -1.990307   -0.638319    0.000004
      2          6           0        0.049030    0.474821   -0.000013
      3          8           0       -0.560273   -0.698680   -0.000010
      4          6           0        1.593132    0.301981   -0.000026
      5          1           0       -2.340169   -0.114554    0.886903
      6          1           0       -2.326447   -1.668177   -0.000002
      7          1           0       -2.340187   -0.114536   -0.886878
      8          8           0       -0.470958    1.545418    0.000014
      9          8           0        2.168190   -0.713441    0.000020
 ---------------------------------------------------------------------
 Rotational constants (GHZ):      7.5392553      2.8156486      2.0767453
 Standard basis: 6-311+G(2df,2p) (5D, 7F)
 There are   231 symmetry adapted basis functions of A   symmetry.
 Integral buffers will be    131072 words long.
 Raffenetti 2 integral format.
 Two-electron integral symmetry is turned on.
   231 basis functions,   345 primitive gaussians,   261 cartesian basis functions
    23 alpha electrons       22 beta electrons
       nuclear repulsion energy       218.8926948865 Hartrees.
 NAtoms=    9 NActive=    9 NUniq=    9 SFac= 1.00D+00 NAtFMM=   50 NAOKFM=F Big=F
 One-electron integrals computed using PRISM.
 NBasis=   231 RedAO= T  NBF=   231
 NBsUse=   231 1.00D-06 NBFU=   231
 Initial guess read from the read-write file.
 B after Tr=     0.000000    0.000000    0.000000
         Rot=    1.000000    0.000000    0.000000    0.000000 Ang=   0.00 deg.
 Initial guess orbital symmetries:
 Alpha Orbitals:
       Occupied  (A) (A) (A) (A) (A) (A) (A) (A) (A) (A) (A) (A)
                 (A) (A) (A) (A) (A) (A) (A) (A) (A) (A) (A)
       Virtual   (A) (A) (A) (A) (A) (A) (A) (A) (A) (A) (A) (A)
                 (A) (A) (A) (A) (A) (A) (A) (A) (A) (A) (A) (A)
                 (A) (A) (A) (A) (A) (A) (A) (A) (A) (A) (A) (A)
                 (A) (A) (A) (A) (A) (A) (A) (A) (A) (A) (A) (A)
                 (A) (A) (A) (A) (A) (A) (A) (A) (A) (A) (A) (A)
                 (A) (A) (A) (A) (A) (A) (A) (A) (A) (A) (A) (A)
                 (A) (A) (A) (A) (A) (A) (A) (A) (A) (A) (A) (A)
                 (A) (A) (A) (A) (A) (A) (A) (A) (A) (A) (A) (A)
                 (A) (A) (A) (A) (A) (A) (A) (A) (A) (A) (A) (A)
                 (A) (A) (A) (A) (A) (A) (A) (A) (A) (A) (A) (A)
                 (A) (A) (A) (A) (A) (A) (A) (A) (A) (A) (A) (A)
                 (A) (A) (A) (A) (A) (A) (A) (A) (A) (A) (A) (A)
                 (A) (A) (A) (A) (A) (A) (A) (A) (A) (A) (A) (A)
                 (A) (A) (A) (A) (A) (A) (A) (A) (A) (A) (A) (A)
                 (A) (A) (A) (A) (A) (A) (A) (A) (A) (A) (A) (A)
                 (A) (A) (A) (A) (A) (A) (A) (A) (A) (A) (A) (A)
                 (A) (A) (A) (A) (A) (A) (A) (A) (A) (A) (A) (A)
                 (A) (A) (A) (A)
 Beta  Orbitals:
       Occupied  (A) (A) (A) (A) (A) (A) (A) (A) (A) (A) (A) (A)
                 (A) (A) (A) (A) (A) (A) (A) (A) (A) (A)
       Virtual   (A) (A) (A) (A) (A) (A) (A) (A) (A) (A) (A) (A)
                 (A) (A) (A) (A) (A) (A) (A) (A) (A) (A) (A) (A)
                 (A) (A) (A) (A) (A) (A) (A) (A) (A) (A) (A) (A)
                 (A) (A) (A) (A) (A) (A) (A) (A) (A) (A) (A) (A)
                 (A) (A) (A) (A) (A) (A) (A) (A) (A) (A) (A) (A)
                 (A) (A) (A) (A) (A) (A) (A) (A) (A) (A) (A) (A)
                 (A) (A) (A) (A) (A) (A) (A) (A) (A) (A) (A) (A)
                 (A) (A) (A) (A) (A) (A) (A) (A) (A) (A) (A) (A)
                 (A) (A) (A) (A) (A) (A) (A) (A) (A) (A) (A) (A)
                 (A) (A) (A) (A) (A) (A) (A) (A) (A) (A) (A) (A)
                 (A) (A) (A) (A) (A) (A) (A) (A) (A) (A) (A) (A)
                 (A) (A) (A) (A) (A) (A) (A) (A) (A) (A) (A) (A)
                 (A) (A) (A) (A) (A) (A) (A) (A) (A) (A) (A) (A)
                 (A) (A) (A) (A) (A) (A) (A) (A) (A) (A) (A) (A)
                 (A) (A) (A) (A) (A) (A) (A) (A) (A) (A) (A) (A)
                 (A) (A) (A) (A) (A) (A) (A) (A) (A) (A) (A) (A)
                 (A) (A) (A) (A) (A) (A) (A) (A) (A) (A) (A) (A)
                 (A) (A) (A) (A) (A)
 Initial guess <Sx>= 0.0000 <Sy>= 0.0000 <Sz>= 0.5000 <S**2>= 0.7539 S= 0.5019
 Harris functional with IExCor= 1009 diagonalized for initial guess.
 ExpMin= 4.38D-02 ExpMax= 8.59D+03 ExpMxC= 1.30D+03 IAcc=2 IRadAn=         0 AccDes= 0.00D+00
 HarFok:  IExCor= 1009 AccDes= 0.00D+00 IRadAn=         0 IDoV= 1
 ScaDFX=  1.000000  1.000000  1.000000  1.000000
 FoFCou: FMM=F IPFlag=           0 FMFlag=      100000 FMFlg1=           0
         NFxFlg=           0 DoJE=T BraDBF=F KetDBF=T FulRan=T
         Omega=  0.000000  0.000000  1.000000  0.000000  0.000000 ICntrl=     500 IOpCl=  0
         NMat0=    1 NMatS0=    1 NMatT0=    0 NMatD0=    1 NMtDS0=    0 NMtDT0=    0
         I1Cent=           4 NGrid=           0.
 Petite list used in FoFCou.
 Requested convergence on RMS density matrix=1.00D-08 within 128 cycles.
 Requested convergence on MAX density matrix=1.00D-06.
 Requested convergence on             energy=1.00D-06.
 No special actions if energy rises.
 SCF Done:  E(UM062X) =  -341.708038761     A.U. after   13 cycles
             Convg  =    0.6139D-08             -V/T =  2.0031
 <Sx>= 0.0000 <Sy>= 0.0000 <Sz>= 0.5000 <S**2>= 0.7539 S= 0.5020
 <L.S>= 0.000000000000E+00
 Annihilation of the first spin contaminant:
 S**2 before annihilation     0.7539,   after     0.7500
 Calling FoFJK, ICntrl=      2127 FMM=F ISym2X=0 I1Cent= 0 IOpClX= 1 NMat=1 NMatS=1 NMatT=0.
 ***** Axes restored to original set *****
 -------------------------------------------------------------------
 Center     Atomic                   Forces (Hartrees/Bohr)
 Number     Number              X              Y              Z
 -------------------------------------------------------------------
      1        6          -0.001260714    0.000231050    0.000166084
      2        6          -0.003036444    0.000207507    0.000275160
      3        8           0.000812104   -0.000569615   -0.000261736
      4        6           0.005803046   -0.003168720   -0.001532833
      5        1           0.000109016   -0.000070945    0.000175145
      6        1          -0.000364573   -0.000219353   -0.000056598
      7        1           0.000085382    0.000062512   -0.000190793
      8        8           0.000277005    0.000417201    0.000133275
      9        8          -0.002424822    0.003110362    0.001292296
 -------------------------------------------------------------------
 Cartesian Forces:  Max     0.005803046 RMS     0.001676631

 GradGradGradGradGradGradGradGradGradGradGradGradGradGradGradGradGradGrad
 Berny optimization.
 Using GDIIS optimizer.
 Internal  Forces:  Max     0.003921757 RMS     0.001231601
 Search for a local minimum.
 Step number   4 out of a maximum of   36
 All quantities printed in internal units (Hartrees-Bohrs-Radians)
 Swaping is turned off.
 Update second derivatives using D2CorX and points    1    2    3    4
 DE= -3.77D-04 DEPred=-2.95D-04 R= 1.28D+00
 SS=  1.41D+00  RLast= 4.20D-02 DXNew= 8.4853D-01 1.2586D-01
 Trust test= 1.28D+00 RLast= 4.20D-02 DXMaxT set to 5.05D-01
 ITU=  1  1  1  0
     Eigenvalues ---    0.01278   0.01393   0.01509   0.01717   0.10385
     Eigenvalues ---    0.10722   0.13852   0.16000   0.16212   0.17503
     Eigenvalues ---    0.25117   0.25755   0.26910   0.28063   0.32525
     Eigenvalues ---    0.32606   0.32869   0.42141   0.48263   0.79460
     Eigenvalues ---    1.10212
 DIIS coeff's:      1.13661     -0.04232     -0.10746      0.01317
 Cosine:  1.000 >  0.710
 Length:  0.943
 GDIIS step was calculated using  4 of the last  4 vectors.
 Iteration  1 RMS(Cart)=  0.00676173 RMS(Int)=  0.00006469
 Iteration  2 RMS(Cart)=  0.00005228 RMS(Int)=  0.00000510
 Iteration  3 RMS(Cart)=  0.00000000 RMS(Int)=  0.00000510
 Variable       Old X    -DE/DX   Delta X   Delta X   Delta X     New X
                                  (DIIS)     (GDIIS)  (Total)
    R1        2.70478   0.00136   0.00370   0.00225   0.00595   2.71073
    R2        2.05566   0.00013  -0.00035   0.00077   0.00043   2.05608
    R3        2.04719   0.00040  -0.00031   0.00119   0.00088   2.04807
    R4        2.05566   0.00013  -0.00035   0.00077   0.00043   2.05608
    R5        2.49870   0.00091   0.00022   0.00148   0.00169   2.50039
    R6        2.93615   0.00322   0.01106   0.00927   0.02033   2.95648
    R7        2.24914   0.00038  -0.00149   0.00048  -0.00101   2.24813
    R8        2.20522  -0.00392   0.00033  -0.00373  -0.00339   2.20182
    A1        1.91947  -0.00022  -0.00126  -0.00126  -0.00253   1.91694
    A2        1.84410   0.00030   0.00000  -0.00004  -0.00004   1.84406
    A3        1.91947  -0.00022  -0.00126  -0.00126  -0.00253   1.91694
    A4        1.93685  -0.00004   0.00131  -0.00011   0.00121   1.93806
    A5        1.90650   0.00020  -0.00013   0.00261   0.00247   1.90897
    A6        1.93685  -0.00004   0.00132  -0.00011   0.00121   1.93806
    A7        1.93823  -0.00016  -0.00632   0.00213  -0.00419   1.93404
    A8        2.21055   0.00047   0.00453  -0.00096   0.00356   2.21411
    A9        2.13441  -0.00031   0.00179  -0.00116   0.00063   2.13504
   A10        2.00752   0.00068   0.00090   0.00036   0.00127   2.00878
   A11        2.19756  -0.00311   0.00172  -0.01708  -0.01536   2.18219
    D1       -1.05016   0.00001   0.00090  -0.00082   0.00007  -1.05009
    D2        3.14159   0.00000   0.00000   0.00000   0.00000   3.14159
    D3        1.05015  -0.00001  -0.00090   0.00082  -0.00007   1.05008
    D4        3.14159   0.00000   0.00000   0.00007   0.00007  -3.14153
    D5        0.00002   0.00000   0.00000  -0.00008  -0.00008  -0.00006
    D6       -0.00006   0.00000   0.00000  -0.00010  -0.00010  -0.00016
    D7        3.14152   0.00000  -0.00001   0.00005   0.00004   3.14156
         Item               Value     Threshold  Converged?
 Maximum Force            0.003922     0.000002     NO 
 RMS     Force            0.001232     0.000001     NO 
 Maximum Displacement     0.019067     0.000006     NO 
 RMS     Displacement     0.006752     0.000004     NO 
 Predicted change in Energy=-7.433029D-05
 GradGradGradGradGradGradGradGradGradGradGradGradGradGradGradGradGradGrad

                          Input orientation:                          
 ---------------------------------------------------------------------
 Center     Atomic      Atomic             Coordinates (Angstroms)
 Number     Number       Type             X           Y           Z
 ---------------------------------------------------------------------
      1          6           0       -1.370943   -0.153601    0.032516
      2          6           0        0.874752    0.454096    0.109249
      3          8           0        0.004601   -0.499039   -0.182462
      4          6           0        2.338436   -0.027678   -0.161296
      5          1           0       -1.530041    0.093845    1.080024
      6          1           0       -1.940595   -1.030955   -0.250954
      7          1           0       -1.637618    0.701641   -0.584948
[...]
     6   1     0.38  -0.04  -0.04     0.01   0.02  -0.33     0.71  -0.25  -0.10
     7   1     0.37  -0.09  -0.01     0.56  -0.22  -0.27    -0.42  -0.17  -0.09
     8   8     0.05   0.00   0.00     0.00   0.00   0.00     0.02   0.03   0.00
     9   8     0.06  -0.02   0.02     0.00   0.00   0.00     0.01   0.00   0.00
                    13                     14                     15
                     A                      A                      A
 Frequencies --  1281.8294              1484.5003              1500.7844
 Red. masses --     7.0999                 1.1938                 1.0415
 Frc consts  --     6.8732                 1.5501                 1.3821
 IR Inten    --   493.1411                14.4321                11.1701
  Atom  AN      X      Y      Z        X      Y      Z        X      Y      Z
     1   6     0.18   0.03  -0.02    -0.10   0.00   0.01     0.00   0.00   0.05
     2   6     0.50   0.16  -0.03     0.05  -0.01   0.00     0.00   0.00   0.00
     3   8    -0.35  -0.22   0.02    -0.05  -0.02   0.00     0.00   0.00   0.01
     4   6    -0.01   0.00   0.01     0.00   0.00   0.00     0.00   0.00   0.00
     5   1    -0.42  -0.23   0.04     0.52   0.11   0.03     0.43   0.21  -0.01
     6   1     0.12   0.04   0.01     0.54  -0.36  -0.08    -0.11   0.10  -0.69
     7   1    -0.47  -0.21   0.01     0.49   0.14  -0.10    -0.35  -0.35  -0.13
     8   8    -0.07   0.08   0.02    -0.01   0.02   0.00     0.00   0.00   0.00
     9   8    -0.04   0.01  -0.01     0.00   0.00   0.00     0.00   0.00   0.00
                    16                     17                     18
                     A                      A                      A
 Frequencies --  1508.5237              1853.5347              2037.3238
 Red. masses --     1.0476                12.2173                13.3473
 Frc consts  --     1.4045                24.7302                32.6411
 IR Inten    --    11.3979               364.7800               117.1146
  Atom  AN      X      Y      Z        X      Y      Z        X      Y      Z
     1   6     0.02  -0.05   0.00    -0.03   0.01   0.00     0.00   0.00   0.00
     2   6    -0.01   0.00   0.00    -0.14   0.77   0.08    -0.06   0.03  -0.02
     3   8     0.00  -0.02   0.00    -0.03  -0.07   0.00     0.00   0.00   0.01
     4   6     0.00   0.00   0.00    -0.03   0.01  -0.01     0.64  -0.17   0.47
     5   1    -0.19   0.59  -0.33     0.13   0.06   0.02    -0.01   0.00   0.01
     6   1     0.19  -0.13  -0.16     0.18  -0.11  -0.03     0.01  -0.01   0.00
     7   1    -0.23   0.40   0.46     0.12   0.07  -0.03     0.02   0.00   0.00
     8   8     0.00   0.01   0.00     0.13  -0.51  -0.06     0.01  -0.02   0.01
     9   8     0.00   0.00   0.00     0.03  -0.01   0.01    -0.45   0.12  -0.35
                    19                     20                     21
                     A                      A                      A
 Frequencies --  3084.0625              3167.6854              3197.0240
 Red. masses --     1.0307                 1.1060                 1.1079
 Frc consts  --     5.7758                 6.5389                 6.6720
 IR Inten    --    17.3136                 8.2457                 3.8796
  Atom  AN      X      Y      Z        X      Y      Z        X      Y      Z
     1   6     0.04  -0.02   0.00     0.00   0.02  -0.09    -0.03  -0.09  -0.02
     2   6     0.00   0.00   0.00     0.00   0.00   0.00     0.00   0.00   0.00
     3   8     0.00   0.00   0.00     0.00   0.00   0.00     0.00   0.00   0.00
     4   6     0.00   0.00   0.00     0.00   0.00   0.00     0.00   0.00   0.00
     5   1    -0.06   0.23   0.48    -0.08   0.32   0.63    -0.05   0.18   0.40
     6   1    -0.23  -0.40  -0.02    -0.10  -0.17  -0.02     0.43   0.75   0.04
     7   1    -0.20   0.43  -0.52     0.18  -0.42   0.48    -0.07   0.12  -0.17
     8   8     0.00   0.00   0.00     0.00   0.00   0.00     0.00   0.00   0.00
     9   8     0.00   0.00   0.00     0.00   0.00   0.00     0.00   0.00   0.00

 -------------------
 - Thermochemistry -
 -------------------
 Temperature   298.150 Kelvin.  Pressure   1.00000 Atm.
 Atom     1 has atomic number  6 and mass  12.00000
 Atom     2 has atomic number  6 and mass  12.00000
 Atom     3 has atomic number  8 and mass  15.99491
 Atom     4 has atomic number  6 and mass  12.00000
 Atom     5 has atomic number  1 and mass   1.00783
 Atom     6 has atomic number  1 and mass   1.00783
 Atom     7 has atomic number  1 and mass   1.00783
 Atom     8 has atomic number  8 and mass  15.99491
 Atom     9 has atomic number  8 and mass  15.99491
 Molecular mass:    87.00822 amu.
 Principal axes and moments of inertia in atomic units:
                           1         2         3
     Eigenvalues --   197.17159 733.52356 892.36018
           X            0.99984   0.01706  -0.00474
           Y           -0.01708   0.99985  -0.00406
           Z            0.00467   0.00414   0.99998
 This molecule is an asymmetric top.
 Rotational symmetry number  1.
 Rotational temperatures (Kelvin)      0.43928     0.11808     0.09706
 Rotational constants (GHZ):           9.15315     2.46037     2.02244
 Zero-point vibrational energy     156739.0 (Joules/Mol)
                                   37.46151 (Kcal/Mol)
 Warning -- explicit consideration of   7 degrees of freedom as
           vibrations may cause significant error
 Vibrational temperatures:    146.29   190.92   275.82   421.87   448.44
          (Kelvin)            618.02   772.44  1137.93  1239.38  1486.83
                             1711.37  1750.81  1844.26  2135.86  2159.29
                             2170.43  2666.82  2931.25  4437.27  4557.59
                             4599.80
 
 Zero-point correction=                           0.059699 (Hartree/Particle)
 Thermal correction to Energy=                    0.066062
 Thermal correction to Enthalpy=                  0.067007
 Thermal correction to Gibbs Free Energy=         0.028791
 Sum of electronic and zero-point Energies=           -341.654395
 Sum of electronic and thermal Energies=              -341.648031
 Sum of electronic and thermal Enthalpies=            -341.647087
 Sum of electronic and thermal Free Energies=         -341.685302
 
                     E (Thermal)             CV                S
                      KCal/Mol        Cal/Mol-Kelvin    Cal/Mol-Kelvin
 Total                   41.455             19.977             80.431
 Electronic               0.000              0.000              1.377
 Translational            0.889              2.981             39.303
 Rotational               0.889              2.981             26.359
 Vibrational             39.677             14.016             13.391
 Vibration     1          0.604              1.948              3.422
 Vibration     2          0.613              1.921              2.907
 Vibration     3          0.634              1.851              2.211
 Vibration     4          0.688              1.686              1.455
 Vibration     5          0.700              1.651              1.353
 Vibration     6          0.791              1.406              0.860
 Vibration     7          0.892              1.168              0.572
                       Q            Log10(Q)             Ln(Q)
 Total Bot       0.571344D-13        -13.243102        -30.493370
 Total V=0       0.164567D+15         14.216343         32.734340
 Vib (Bot)       0.696348D-26        -26.157174        -60.229118
 Vib (Bot)    1  0.201784D+01          0.304887          0.702027
 Vib (Bot)    2  0.153525D+01          0.186178          0.428690
 Vib (Bot)    3  0.104337D+01          0.018438          0.042456
 Vib (Bot)    4  0.651048D+00         -0.186387         -0.429172
 Vib (Bot)    5  0.606100D+00         -0.217456         -0.500710
 Vib (Bot)    6  0.405779D+00         -0.391710         -0.901946
 Vib (Bot)    7  0.295980D+00         -0.528738         -1.217464
 Vib (V=0)       0.200573D+02          1.302272          2.998592
 Vib (V=0)    1  0.257886D+01          0.411428          0.947349
 Vib (V=0)    2  0.211461D+01          0.325231          0.748872
 Vib (V=0)    3  0.165699D+01          0.219319          0.505002
 Vib (V=0)    4  0.132089D+01          0.120867          0.278307
 Vib (V=0)    5  0.128572D+01          0.109147          0.251320
 Vib (V=0)    6  0.114394D+01          0.058403          0.134477
 Vib (V=0)    7  0.108104D+01          0.033841          0.077921
 Electronic      0.200000D+01          0.301030          0.693147
 Translational   0.319004D+08          7.503796         17.278128
 Rotational      0.128601D+06          5.109246         11.764473
 ***** Axes restored to original set *****
 -------------------------------------------------------------------
 Center     Atomic                   Forces (Hartrees/Bohr)
 Number     Number              X              Y              Z
 -------------------------------------------------------------------
      1        6           0.000000103   -0.000002581   -0.000004271
      2        6          -0.000000361    0.000001557    0.000005508
      3        8           0.000001474    0.000003849   -0.000006752
      4        6           0.000001282    0.000009591    0.000002055
      5        1          -0.000002242   -0.000015802   -0.000003122
      6        1           0.000001899    0.000000687   -0.000015100
      7        1          -0.000000338    0.000002798    0.000006793
      8        8          -0.000003094   -0.000005404    0.000017997
      9        8           0.000001277    0.000005304   -0.000003107
 -------------------------------------------------------------------
 Cartesian Forces:  Max     0.000017997 RMS     0.000006586

 GradGradGradGradGradGradGradGradGradGradGradGradGradGradGradGradGradGrad
 Berny optimization.
 Internal  Forces:  Max     0.000000281 RMS     0.000000092
 Search for a local minimum.
 Step number   1 out of a maximum of    2
 All quantities printed in internal units (Hartrees-Bohrs-Radians)
 Swaping is turned off.
 Second derivative matrix not updated -- analytic derivatives used.
 ITU=  0
     Eigenvalues ---    0.00371   0.00510   0.01966   0.06865   0.08378
     Eigenvalues ---    0.08523   0.10681   0.12635   0.13639   0.18883
     Eigenvalues ---    0.19077   0.21589   0.24508   0.29921   0.34568
     Eigenvalues ---    0.35071   0.35579   0.38552   0.49652   0.93838
     Eigenvalues ---    1.07928
 Angle between quadratic step and forces=  42.71 degrees.
 Linear search not attempted -- option 19 set.
 Iteration  1 RMS(Cart)=  0.00001500 RMS(Int)=  0.00000000
 Iteration  2 RMS(Cart)=  0.00000000 RMS(Int)=  0.00000000
 Variable       Old X    -DE/DX   Delta X   Delta X   Delta X     New X
                                 (Linear)    (Quad)   (Total)
    R1        2.71078   0.00000   0.00000   0.00000   0.00000   2.71078
    R2        2.05506   0.00000   0.00000   0.00000   0.00000   2.05506
    R3        2.04803   0.00000   0.00000   0.00000   0.00000   2.04803
    R4        2.05542   0.00000   0.00000   0.00000   0.00000   2.05542
    R5        2.50025   0.00000   0.00000   0.00000   0.00000   2.50025
    R6        2.87489   0.00000   0.00000   0.00000   0.00000   2.87489
    R7        2.25462   0.00000   0.00000   0.00000   0.00000   2.25462
    R8        2.20114   0.00000   0.00000   0.00000   0.00000   2.20114
    A1        1.91978   0.00000   0.00000   0.00000   0.00000   1.91978
    A2        1.84285   0.00000   0.00000   0.00000   0.00000   1.84285
    A3        1.91673   0.00000   0.00000   0.00000   0.00000   1.91673
    A4        1.93488   0.00000   0.00000   0.00000   0.00000   1.93488
    A5        1.91156   0.00000   0.00000   0.00000   0.00000   1.91156
    A6        1.93714   0.00000   0.00000   0.00000   0.00000   1.93714
    A7        1.92216   0.00000   0.00000   0.00000   0.00000   1.92216
    A8        2.22302   0.00000   0.00000   0.00000   0.00000   2.22302
    A9        2.13323   0.00000   0.00000   0.00000   0.00000   2.13323
   A10        2.00775   0.00000   0.00000   0.00000   0.00000   2.00775
   A11        2.27036   0.00000   0.00000   0.00000   0.00000   2.27036
    D1       -1.07073   0.00000   0.00000  -0.00002  -0.00002  -1.07075
    D2        3.12392   0.00000   0.00000  -0.00002  -0.00002   3.12390
    D3        1.03431   0.00000   0.00000  -0.00002  -0.00002   1.03429
    D4       -3.05074   0.00000   0.00000   0.00000   0.00000  -3.05074
    D5       -0.01327   0.00000   0.00000   0.00000   0.00000  -0.01327
    D6       -1.73396   0.00000   0.00000  -0.00004  -0.00004  -1.73400
    D7        1.50543   0.00000   0.00000  -0.00004  -0.00004   1.50539
         Item               Value     Threshold  Converged?
 Maximum Force            0.000000     0.000002     YES
 RMS     Force            0.000000     0.000001     YES
 Maximum Displacement     0.000037     0.000006     NO 
 RMS     Displacement     0.000015     0.000004     NO 
 Predicted change in Energy=-1.133556D-11
 GradGradGradGradGradGradGradGradGradGradGradGradGradGradGradGradGradGrad


 Test job not archived.
 1\1\GINC-COMPUTE-3-042\Freq\UM062X\6-311+G(2df,2p)\C3H3O3(2)\ROOT\10-M
 ar-2017\0\\#N Geom=AllCheck Guess=TCheck SCRF=Check Test GenChk UM062X
 /6-311+G(2df,2p) Freq\\InChI=1S/C3H3O3/c1-6-3(5)2-4/h1H3/u2\\0,2\C,-1.
 4356238306,-0.1156312516,0.0438878555\C,0.8521291795,0.3059842114,-0.0
 110526666\O,-0.116938176,-0.5347608242,-0.334441769\C,2.1785175404,-0.
 1824418943,-0.5736934583\H,-1.4965486741,-0.0100521411,1.1245231444\H,
 -2.100906962,-0.8964957728,-0.305699998\H,-1.6697842011,0.8359200491,-
 0.4280935409\O,0.743570994,1.3590907667,0.5390834605\O,3.0456841299,-0
 .7615131433,-0.0546130276\\Version=EM64L-G09RevB.01\State=2-A\HF=-341.
 7140939\S2=0.755381\S2-1=0.\S2A=0.75002\RMSD=4.604e-09\RMSF=6.586e-06\
 ZeroPoint=0.0596987\Thermal=0.0660624\Dipole=-1.1758454,-0.2991414,-0.
 14944\DipoleDeriv=0.8357931,0.0009215,-0.0649554,-0.119667,0.2465646,0
 .0118746,-0.1782793,0.0053022,0.2822148,1.801888,0.2150693,-0.143095,0
 .4130852,1.5214762,0.5983275,0.2226961,0.5183383,0.644571,-1.6253352,-
 0.2759273,0.0387749,-0.3846981,-0.6827264,-0.1503582,-0.0680927,-0.170
 1884,-0.3357818,0.4802983,-0.2740539,0.1498706,-0.397508,0.1713868,-0.
 1257079,0.4778107,-0.2939931,0.0487521,-0.0044861,-0.0049817,-0.046265
 1,0.0406514,0.0780391,-0.0069237,0.0561249,0.0024718,-0.0580873,-0.012
 7355,-0.0272079,-0.002215,-0.0695397,0.0110286,-0.0390923,-0.0265851,-
 0.0418233,0.0719356,-0.0189129,-0.027112,0.026715,0.0718713,-0.013004,
 0.0550522,0.0123374,0.0600701,0.032042,-0.7104321,0.088005,0.0925692,0
 .0126954,-1.0038,-0.3967849,-0.0389239,-0.3217665,-0.5169921,-0.746077
 7,0.305287,-0.0513993,0.4331096,-0.3289648,0.0536126,-0.4570878,0.2415
 889,-0.1686544\Polar=57.6661464,-3.5443805,41.6998389,-1.5537867,3.011
 0876,36.6812683\PG=C01 [X(C3H3O3)]\NImag=0\\0.48899700,0.05812676,0.60
 827019,0.04204370,-0.00099221,0.59444204,-0.06818176,-0.02396223,-0.00
 670267,0.54837943,-0.01698144,0.01288642,0.00594825,-0.00925232,0.8399
 7334,-0.00119446,0.00906830,0.00652612,-0.02743563,0.31272268,0.365713
 35,-0.17770583,0.05570808,0.04283357,-0.23984823,-0.11542807,-0.031207
 23,0.53226999,0.03087132,-0.09809151,-0.01957568,-0.07609278,-0.174835
 76,-0.04773643,0.08640615,0.32851679,0.03225225,-0.02386117,-0.0817483
 9,-0.02022161,-0.04209705,-0.08646805,-0.01723069,0.11790173,0.1407036
 5,0.00195301,-0.00371819,0.00167774,-0.09957789,0.01533472,0.00636448,
 -0.03868244,-0.00410128,0.01041992,0.71099127,0.00061161,-0.00157901,-
 0.00274935,0.03569938,-0.04249700,0.02001620,-0.02089942,0.00658085,-0
 .00253642,-0.40796330,0.30773133,-0.00331062,-0.00340260,0.00679919,-0
 .00117399,0.03543858,-0.07421626,0.00989130,0.00458306,0.01529930,0.30
 919882,-0.22097804,0.28212624,-0.04993638,-0.00111390,-0.00205167,0.00
 423572,0.00609885,0.00497348,-0.01957837,0.00434256,0.03849873,-0.0008
 8021,0.00014106,-0.00103011,0.06102996,-0.00017260,-0.05442870,-0.0219
 8929,-0.00185062,0.00086063,0.00094661,0.00603979,-0.00163926,-0.01199
 983,0.00001792,0.00021749,-0.00018793,-0.00527979,0.05153637,0.0080846
 9,-0.02277937,-0.32576512,-0.00215041,-0.00333965,-0.00096231,0.010304
 18,-0.00226875,-0.00309620,-0.00003039,0.00053973,-0.00034453,-0.01406
 182,0.02802021,0.34796408,-0.14293964,-0.11731103,-0.05422438,-0.00369
 018,0.00513008,0.00326638,-0.03551131,-0.02316241,-0.00826780,-0.00009
 558,-0.00085382,-0.00004390,0.00314898,0.00145916,-0.00046923,0.171335
 89,-0.12997749,-0.20544096,-0.06728370,0.00304783,-0.00187114,-0.00146
 726,0.01284004,0.01028055,0.00419938,0.00023020,0.00028572,-0.00001799
 ,0.00025856,-0.00025615,0.00071233,0.13107745,0.21166601,-0.06119687,-
 0.06878933,-0.08384956,0.00204516,-0.00166892,-0.00108074,0.01116850,0
 .00835365,0.00343770,0.00027708,0.00019396,0.00030158,-0.01921277,-0.0
 2323936,-0.00661158,0.05763043,0.07394162,0.08111260,-0.05775281,0.036
 21770,-0.02048047,0.00325717,0.00807076,0.00192620,-0.02610154,0.03154
 215,-0.01220797,0.00042268,-0.00046791,0.00168816,0.00199433,-0.001487
 41,-0.00094434,0.00665605,-0.01594506,0.01008742,0.07104382,0.04496619
 ,-0.25792996,0.10728055,-0.00273956,-0.00043540,-0.00098776,0.01055547
 ,-0.00558670,-0.00072578,0.00012552,-0.00029852,0.00021091,-0.00212244
 ,0.00412000,-0.00203024,0.00427452,-0.01592447,0.01081882,-0.05505287,
 0.27534465,-0.02526770,0.10920914,-0.10763926,-0.00082673,0.00096203,0
 .00107460,0.00564854,-0.01263070,0.00666783,-0.00027428,0.00009928,-0.
 00065756,-0.00591453,0.02852759,-0.01220810,0.00301777,-0.01066272,0.0
 0588599,0.02230572,-0.11500750,0.10694784,0.00463921,-0.00277255,-0.00
 224087,-0.11537816,0.08482842,0.05174096,0.01394920,-0.04890828,-0.023
 99021,0.00129467,0.01770038,0.01766045,0.00022731,0.00110582,-0.000745
 97,0.00176412,-0.00160555,-0.00090708,0.00059373,-0.00013049,0.0011634
 0,0.09842616,0.01440769,-0.00488876,-0.00121020,0.06436880,-0.63436230
 ,-0.28966720,-0.04314724,-0.06521531,-0.04173225,0.02076364,-0.0100375
 7,-0.04458456,-0.00268296,-0.00017881,0.00135056,-0.00106971,0.0013423
 4,0.00050544,-0.00299426,0.00069673,-0.00042465,-0.05356475,0.72018586
 ,0.00692060,0.00088981,-0.00625325,0.03691140,-0.28930271,-0.22925261,
 -0.02363485,-0.04556506,0.00994006,0.01716698,-0.02854594,-0.00129761,
 -0.00134603,-0.00021158,0.00087260,-0.00066998,0.00055669,0.00087608,-
 0.00175371,0.00042314,-0.00029985,-0.03868090,0.36156989,0.22467615,0.
 00092720,-0.00117463,-0.00085495,-0.02919612,0.02219901,-0.00843419,-0
 .00879147,-0.00089743,0.00074738,-0.57542549,0.37603203,-0.33288011,-0
 .00024135,0.00016773,0.00001329,-0.00066832,0.00007401,0.00010814,-0.0
 0011343,0.00012366,0.00014781,-0.00551624,0.00391879,0.00508649,0.6190
 2522,-0.00185205,0.00120229,0.00057162,0.01078150,0.00028121,-0.002895
 14,0.00792520,-0.00000965,0.00085139,0.37931077,-0.26040331,0.22893856
 ,0.00035805,-0.00023157,-0.00020483,0.00045576,-0.00008191,-0.00011589
 ,0.00011691,0.00001366,-0.00007247,0.00334702,-0.00754219,0.00018576,-
 0.40044316,0.26677146,0.00166842,0.00065742,-0.00251178,0.01955449,-0.
 01866321,0.01866589,-0.00777331,-0.00306182,-0.00473591,-0.34480036,0.
 23396058,-0.22801035,0.00014473,0.00013357,0.00015117,-0.00023929,0.00
 002165,-0.00007207,-0.00062101,0.00001785,0.00022850,-0.00399979,0.014
 19297,0.00073843,0.33606613,-0.22725900,0.21554611\\-0.00000010,0.0000
 0258,0.00000427,0.00000036,-0.00000156,-0.00000551,-0.00000147,-0.0000
 0385,0.00000675,-0.00000128,-0.00000959,-0.00000205,0.00000224,0.00001
 580,0.00000312,-0.00000190,-0.00000069,0.00001510,0.00000034,-0.000002
 80,-0.00000679,0.00000309,0.00000540,-0.00001800,-0.00000128,-0.000005
 30,0.00000311\\\@


 A politician is a person who can make waves and then
 make you think he's the only one who can save the ship.
 -- Ivern Ball
 Job cpu time:  0 days  1 hours 24 minutes  7.0 seconds.
 File lengths (MBytes):  RWF=   2480 Int=      0 D2E=      0 Chk=     32 Scr=     32
 Normal termination of Gaussian 09 at Fri Mar 10 13:55:38 2017.
