 Entering Gaussian System, Link 0=/shared/apps/gaussian/G09_LINUX_LINDA/g09/g09
 Input=/gss_gpfs_scratch/harms.n/QMscratch/AZYNPBUFXQHLBD-UHFFFAOYSA-u3.gjf
 Output=/gss_gpfs_scratch/harms.n/QMscratch/AZYNPBUFXQHLBD-UHFFFAOYSA-u3.log
 Initial command:
 /shared/apps/gaussian/G09_LINUX_LINDA/g09/l1.exe /gss_gpfs_scratch/harms.n/comparerTST/Gau-4358.inp -scrdir=/gss_gpfs_scratch/harms.n/comparerTST/
 Entering Link 1 = /shared/apps/gaussian/G09_LINUX_LINDA/g09/l1.exe PID=      4359.
  
 Copyright (c) 1988,1990,1992,1993,1995,1998,2003,2009,2010,
            Gaussian, Inc.  All Rights Reserved.
  
 This is part of the Gaussian(R) 09 program.  It is based on
 the Gaussian(R) 03 system (copyright 2003, Gaussian, Inc.),
 the Gaussian(R) 98 system (copyright 1998, Gaussian, Inc.),
 the Gaussian(R) 94 system (copyright 1995, Gaussian, Inc.),
 the Gaussian 92(TM) system (copyright 1992, Gaussian, Inc.),
 the Gaussian 90(TM) system (copyright 1990, Gaussian, Inc.),
 the Gaussian 88(TM) system (copyright 1988, Gaussian, Inc.),
 the Gaussian 86(TM) system (copyright 1986, Carnegie Mellon
 University), and the Gaussian 82(TM) system (copyright 1983,
 Carnegie Mellon University). Gaussian is a federally registered
 trademark of Gaussian, Inc.
  
 This software contains proprietary and confidential information,
 including trade secrets, belonging to Gaussian, Inc.
  
 This software is provided under written license and may be
 used, copied, transmitted, or stored only in accord with that
 written license.
  
 The following legend is applicable only to US Government
 contracts under FAR:
  
                    RESTRICTED RIGHTS LEGEND
  
 Use, reproduction and disclosure by the US Government is
 subject to restrictions as set forth in subparagraphs (a)
 and (c) of the Commercial Computer Software - Restricted
 Rights clause in FAR 52.227-19.
  
 Gaussian, Inc.
 340 Quinnipiac St., Bldg. 40, Wallingford CT 06492
  
  
 ---------------------------------------------------------------
 Warning -- This program may not be used in any manner that
 competes with the business of Gaussian, Inc. or will provide
 assistance to any competitor of Gaussian, Inc.  The licensee
 of this program is prohibited from giving any competitor of
 Gaussian, Inc. access to this program.  By using this program,
 the user acknowledges that Gaussian, Inc. is engaged in the
 business of creating and licensing software in the field of
 computational chemistry and represents and warrants to the
 licensee that it is not a competitor of Gaussian, Inc. and that
 it will not use this program in any manner prohibited above.
 ---------------------------------------------------------------
  

 Cite this work as:
 Gaussian 09, Revision B.01,
 M. J. Frisch, G. W. Trucks, H. B. Schlegel, G. E. Scuseria, 
 M. A. Robb, J. R. Cheeseman, G. Scalmani, V. Barone, B. Mennucci, 
 G. A. Petersson, H. Nakatsuji, M. Caricato, X. Li, H. P. Hratchian, 
 A. F. Izmaylov, J. Bloino, G. Zheng, J. L. Sonnenberg, M. Hada, 
 M. Ehara, K. Toyota, R. Fukuda, J. Hasegawa, M. Ishida, T. Nakajima, 
 Y. Honda, O. Kitao, H. Nakai, T. Vreven, J. A. Montgomery, Jr., 
 J. E. Peralta, F. Ogliaro, M. Bearpark, J. J. Heyd, E. Brothers, 
 K. N. Kudin, V. N. Staroverov, T. Keith, R. Kobayashi, J. Normand, 
 K. Raghavachari, A. Rendell, J. C. Burant, S. S. Iyengar, J. Tomasi, 
 M. Cossi, N. Rega, J. M. Millam, M. Klene, J. E. Knox, J. B. Cross, 
 V. Bakken, C. Adamo, J. Jaramillo, R. Gomperts, R. E. Stratmann, 
 O. Yazyev, A. J. Austin, R. Cammi, C. Pomelli, J. W. Ochterski, 
 R. L. Martin, K. Morokuma, V. G. Zakrzewski, G. A. Voth, 
 P. Salvador, J. J. Dannenberg, S. Dapprich, A. D. Daniels, 
 O. Farkas, J. B. Foresman, J. V. Ortiz, J. Cioslowski, 
 and D. J. Fox, Gaussian, Inc., Wallingford CT, 2010.
 
 ******************************************
 Gaussian 09:  EM64L-G09RevB.01 12-Aug-2010
                24-Sep-2017 
 ******************************************
 %nprocshared=20
 Will use up to   20 processors via shared memory.
 %mem=5GB
 --------------------------------------------------------------
 # m062x/6-311+g(2df,2p) opt=(verytight,gdiis) freq IOP(2/16=3)
 --------------------------------------------------------------

 Warning!  Use of Opt=GDIIS is deprecated since it is seldom a good choice.

 1/7=1,14=-1,18=20,19=11,26=3,38=1/1,3;
 2/9=110,12=2,16=3,17=6,18=5,40=1/2;
 3/5=4,6=6,7=214,11=2,16=1,25=1,30=1,71=1,74=-55/1,2,3;
 4//1;
 5/5=2,38=5/2;
 6/7=2,8=2,9=2,10=2,28=1/1;
 7//1,2,3,16;
 1/7=1,14=-1,18=20,19=11/3(2);
 2/9=110,16=3/2;
 99//99;
 2/9=110,16=3/2;
 3/5=4,6=6,7=214,11=2,16=1,25=1,30=1,71=1,74=-55/1,2,3;
 4/5=5,16=3/1;
 5/5=2,38=5/2;
 7//1,2,3,16;
 1/7=1,14=-1,18=20,19=11/3(-5);
 2/9=110,16=3/2;
 6/7=2,8=2,9=2,10=2,19=2,28=1/1;
 99/9=1/99;
 -------------------------------------------------
 InChI=1S/C6H11O/c1-3-4-5-6(2)7/h3H,4-5H2,1-2H3/u3
 -------------------------------------------------
 Symbolic Z-matrix:
 Charge =  0 Multiplicity = 2
 C                    -0.5542    0.0331   -0.323 
 C                     0.6496   -0.6827    0.2945 
 C                    -3.0544    0.3572   -0.1635 
 C                     2.9641    0.5063    0.4509 
 C                    -1.8473   -0.4093    0.3631 
 C                     1.9313   -0.2284   -0.349 
 H                    -0.4289    1.1313   -0.198 
 H                    -0.6145   -0.1995   -1.4092 
 H                     0.549    -1.7815    0.1586 
 H                     0.6802   -0.472     1.3863 
 H                    -3.183     0.175    -1.2518 
 H                    -3.9665    0.0154    0.3684 
 H                    -2.9255    1.4451    0.0175 
 H                     3.8406    0.7641   -0.1812 
 H                     2.5251    1.4429    0.8538 
 H                     3.3052   -0.1302    1.2939 
 H                    -2.0064   -1.5002    0.2187 
 O                     2.1357   -0.4666   -1.53 
 

 GradGradGradGradGradGradGradGradGradGradGradGradGradGradGradGradGradGrad
 Berny optimization.
 Initialization pass.
                           ----------------------------
                           !    Initial Parameters    !
                           ! (Angstroms and Degrees)  !
 --------------------------                            --------------------------
 ! Name  Definition              Value          Derivative Info.                !
 --------------------------------------------------------------------------------
 ! R1    R(1,2)                  1.5306         estimate D2E/DX2                !
 ! R2    R(1,5)                  1.5292         estimate D2E/DX2                !
 ! R3    R(1,7)                  1.1124         estimate D2E/DX2                !
 ! R4    R(1,8)                  1.1125         estimate D2E/DX2                !
 ! R5    R(2,6)                  1.5044         estimate D2E/DX2                !
 ! R6    R(2,9)                  1.1117         estimate D2E/DX2                !
 ! R7    R(2,10)                 1.1124         estimate D2E/DX2                !
 ! R8    R(3,5)                  1.5238         estimate D2E/DX2                !
 ! R9    R(3,11)                 1.1109         estimate D2E/DX2                !
 ! R10   R(3,12)                 1.1098         estimate D2E/DX2                !
 ! R11   R(3,13)                 1.1104         estimate D2E/DX2                !
 ! R12   R(4,6)                  1.4988         estimate D2E/DX2                !
 ! R13   R(4,14)                 1.111          estimate D2E/DX2                !
 ! R14   R(4,15)                 1.1101         estimate D2E/DX2                !
 ! R15   R(4,16)                 1.11           estimate D2E/DX2                !
 ! R16   R(5,17)                 1.1119         estimate D2E/DX2                !
 ! R17   R(6,18)                 1.222          estimate D2E/DX2                !
 ! A1    A(2,1,5)              110.4105         estimate D2E/DX2                !
 ! A2    A(2,1,7)              109.1335         estimate D2E/DX2                !
 ! A3    A(2,1,8)              109.8012         estimate D2E/DX2                !
 ! A4    A(5,1,7)              109.2956         estimate D2E/DX2                !
 ! A5    A(5,1,8)              109.3746         estimate D2E/DX2                !
 ! A6    A(7,1,8)              108.7989         estimate D2E/DX2                !
 ! A7    A(1,2,6)              110.8709         estimate D2E/DX2                !
 ! A8    A(1,2,9)              109.9822         estimate D2E/DX2                !
 ! A9    A(1,2,10)             109.2096         estimate D2E/DX2                !
 ! A10   A(6,2,9)              108.8609         estimate D2E/DX2                !
 ! A11   A(6,2,10)             109.8281         estimate D2E/DX2                !
 ! A12   A(9,2,10)             108.0401         estimate D2E/DX2                !
 ! A13   A(5,3,11)             110.35           estimate D2E/DX2                !
 ! A14   A(5,3,12)             109.299          estimate D2E/DX2                !
 ! A15   A(5,3,13)             110.1545         estimate D2E/DX2                !
 ! A16   A(11,3,12)            108.8969         estimate D2E/DX2                !
 ! A17   A(11,3,13)            109.5009         estimate D2E/DX2                !
 ! A18   A(12,3,13)            108.6044         estimate D2E/DX2                !
 ! A19   A(6,4,14)             110.7173         estimate D2E/DX2                !
 ! A20   A(6,4,15)             109.5596         estimate D2E/DX2                !
 ! A21   A(6,4,16)             109.6326         estimate D2E/DX2                !
 ! A22   A(14,4,15)            108.8276         estimate D2E/DX2                !
 ! A23   A(14,4,16)            108.8274         estimate D2E/DX2                !
 ! A24   A(15,4,16)            109.25           estimate D2E/DX2                !
 ! A25   A(1,5,3)              111.6711         estimate D2E/DX2                !
 ! A26   A(1,5,17)             110.2778         estimate D2E/DX2                !
 ! A27   A(3,5,17)             109.5911         estimate D2E/DX2                !
 ! A28   A(2,6,4)              120.453          estimate D2E/DX2                !
 ! A29   A(2,6,18)             119.804          estimate D2E/DX2                !
 ! A30   A(4,6,18)             119.7416         estimate D2E/DX2                !
 ! D1    D(5,1,2,6)           -178.5327         estimate D2E/DX2                !
 ! D2    D(5,1,2,9)             61.018          estimate D2E/DX2                !
 ! D3    D(5,1,2,10)           -57.3833         estimate D2E/DX2                !
 ! D4    D(7,1,2,6)            -58.3811         estimate D2E/DX2                !
 ! D5    D(7,1,2,9)           -178.8304         estimate D2E/DX2                !
 ! D6    D(7,1,2,10)            62.7683         estimate D2E/DX2                !
 ! D7    D(8,1,2,6)             60.7912         estimate D2E/DX2                !
 ! D8    D(8,1,2,9)            -59.6581         estimate D2E/DX2                !
 ! D9    D(8,1,2,10)          -178.0594         estimate D2E/DX2                !
 ! D10   D(2,1,5,3)            176.0465         estimate D2E/DX2                !
 ! D11   D(2,1,5,17)           -61.8493         estimate D2E/DX2                !
 ! D12   D(7,1,5,3)             55.9923         estimate D2E/DX2                !
 ! D13   D(7,1,5,17)           178.0965         estimate D2E/DX2                !
 ! D14   D(8,1,5,3)            -63.0228         estimate D2E/DX2                !
 ! D15   D(8,1,5,17)            59.0814         estimate D2E/DX2                !
 ! D16   D(1,2,6,4)            115.5548         estimate D2E/DX2                !
 ! D17   D(1,2,6,18)           -64.8749         estimate D2E/DX2                !
 ! D18   D(9,2,6,4)           -123.3322         estimate D2E/DX2                !
 ! D19   D(9,2,6,18)            56.2382         estimate D2E/DX2                !
 ! D20   D(10,2,6,4)            -5.2293         estimate D2E/DX2                !
 ! D21   D(10,2,6,18)          174.3411         estimate D2E/DX2                !
 ! D22   D(11,3,5,1)            60.9861         estimate D2E/DX2                !
 ! D23   D(11,3,5,17)          -61.5121         estimate D2E/DX2                !
 ! D24   D(12,3,5,1)          -179.2866         estimate D2E/DX2                !
 ! D25   D(12,3,5,17)           58.2152         estimate D2E/DX2                !
 ! D26   D(13,3,5,1)           -60.038          estimate D2E/DX2                !
 ! D27   D(13,3,5,17)          177.4638         estimate D2E/DX2                !
 ! D28   D(14,4,6,2)          -179.9609         estimate D2E/DX2                !
 ! D29   D(14,4,6,18)            0.4684         estimate D2E/DX2                !
 ! D30   D(15,4,6,2)           -59.9253         estimate D2E/DX2                !
 ! D31   D(15,4,6,18)          120.504          estimate D2E/DX2                !
 ! D32   D(16,4,6,2)            59.9568         estimate D2E/DX2                !
 ! D33   D(16,4,6,18)         -119.6139         estimate D2E/DX2                !
 --------------------------------------------------------------------------------
 Trust Radius=3.00D-01 FncErr=1.00D-07 GrdErr=1.00D-06
 Number of steps in this run=     90 maximum allowed number of steps=    108.
 GradGradGradGradGradGradGradGradGradGradGradGradGradGradGradGradGradGrad

                          Input orientation:                          
 ---------------------------------------------------------------------
 Center     Atomic      Atomic             Coordinates (Angstroms)
 Number     Number       Type             X           Y           Z
 ---------------------------------------------------------------------
      1          6           0       -0.554200    0.033100   -0.323000
      2          6           0        0.649600   -0.682700    0.294500
      3          6           0       -3.054400    0.357200   -0.163500
      4          6           0        2.964100    0.506300    0.450900
      5          6           0       -1.847300   -0.409300    0.363100
      6          6           0        1.931300   -0.228400   -0.349000
      7          1           0       -0.428900    1.131300   -0.198000
      8          1           0       -0.614500   -0.199500   -1.409200
      9          1           0        0.549000   -1.781500    0.158600
     10          1           0        0.680200   -0.472000    1.386300
     11          1           0       -3.183000    0.175000   -1.251800
     12          1           0       -3.966500    0.015400    0.368400
     13          1           0       -2.925500    1.445100    0.017500
     14          1           0        3.840600    0.764100   -0.181200
     15          1           0        2.525100    1.442900    0.853800
     16          1           0        3.305200   -0.130200    1.293900
     17          1           0       -2.006400   -1.500200    0.218700
     18          8           0        2.135700   -0.466600   -1.530000
 ---------------------------------------------------------------------
                    Distance matrix (angstroms):
                    1          2          3          4          5
     1  C    0.000000
     2  C    1.530624   0.000000
     3  C    2.526159   3.874374   0.000000
     4  C    3.633356   2.606740   6.051616   0.000000
     5  C    1.529235   2.512760   1.523785   4.898531   0.000000
     6  C    2.499354   1.504405   5.023399   1.498766   3.849367
     7  H    1.112371   2.167098   2.737457   3.510576   2.167981
     8  H    1.112461   2.175781   2.795496   4.094448   2.169069
     9  H    2.177559   1.111733   4.202651   3.339487   2.768936
    10  H    2.168081   1.112366   4.127553   2.654853   2.727476
    11  H    2.791665   4.220843   1.110915   6.387158   2.175639
    12  H    3.481686   4.669174   1.109807   6.948453   2.161344
    13  H    2.780782   4.169605   1.110361   5.979680   2.172730
    14  H    4.457436   3.535817   6.907019   1.110974   5.833124
    15  H    3.585315   2.889376   5.774467   1.110076   4.773815
    16  H    4.187601   2.890721   6.542636   1.110014   5.243333
    17  H    2.180214   2.779998   2.166637   5.365243   1.111857
    18  O    2.990336   2.363047   5.429835   2.357275   4.410374
                    6          7          8          9         10
     6  C    0.000000
     7  H    2.728027   0.000000
     8  H    2.757890   1.809000   0.000000
     9  H    2.140217   3.093195   2.512858   0.000000
    10  H    2.153104   2.512107   3.092786   1.799792   0.000000
    11  H    5.209016   3.100011   2.600426   4.443528   4.722552
    12  H    5.946272   3.752420   3.800256   4.864422   4.781788
    13  H    5.150090   2.525455   3.175044   4.743733   4.306966
    14  H    2.158388   4.285294   4.720638   4.174946   3.738065
    15  H    2.143028   3.151110   4.204252   3.845131   2.711836
    16  H    2.143913   4.214339   4.761890   3.407688   2.648771
    17  H    4.176750   3.096278   2.505846   2.571539   3.104562
    18  O    1.221998   3.302224   2.765779   2.664198   3.259343
                   11         12         13         14         15
    11  H    0.000000
    12  H    1.806763   0.000000
    13  H    1.813996   1.803012   0.000000
    14  H    7.129108   7.862151   6.803187   0.000000
    15  H    6.214783   6.664401   5.514385   1.806249   0.000000
    16  H    6.976423   7.331805   6.552281   1.806196   1.810218
    17  H    2.520526   2.482226   3.091928   6.282864   5.440559
    18  O    5.364477   6.408829   5.627175   2.498113   3.079014
                   16         17         18
    16  H    0.000000
    17  H    5.589817   0.000000
    18  O    3.074948   4.613380   0.000000
 Stoichiometry    C6H11O(2)
 Framework group  C1[X(C6H11O)]
 Deg. of freedom    48
 Full point group                 C1      NOp   1
 Largest Abelian subgroup         C1      NOp   1
 Largest concise Abelian subgroup C1      NOp   1
                         Standard orientation:                         
 ---------------------------------------------------------------------
 Center     Atomic      Atomic             Coordinates (Angstroms)
 Number     Number       Type             X           Y           Z
 ---------------------------------------------------------------------
      1          6           0        0.829060    0.136352   -0.174419
      2          6           0       -0.357799   -0.271478    0.701852
      3          6           0        3.336547   -0.020121   -0.438061
      4          6           0       -2.653007   -0.882098   -0.372510
      5          6           0        2.142492   -0.325936    0.457836
      6          6           0       -1.658129    0.147100    0.071638
      7          1           0        0.719346   -0.331503   -1.177635
      8          1           0        0.846405    1.242174   -0.294528
      9          1           0       -0.273180    0.205953    1.702277
     10          1           0       -0.345473   -1.374598    0.844442
     11          1           0        3.422559    1.074523   -0.606846
     12          1           0        4.264488   -0.382366    0.051199
     13          1           0        3.225228   -0.538016   -1.413917
     14          1           0       -3.549950   -0.397068   -0.813537
     15          1           0       -2.190044   -1.541152   -1.136435
     16          1           0       -2.968598   -1.495447    0.497166
     17          1           0        2.285327    0.159341    1.447953
     18          8           0       -1.908886    1.334405   -0.072269
 ---------------------------------------------------------------------
 Rotational constants (GHZ):      6.7527209      1.0692553      1.0146739
 Standard basis: 6-311+G(2df,2p) (5D, 7F)
 There are   337 symmetry adapted basis functions of A   symmetry.
 Integral buffers will be    131072 words long.
 Raffenetti 2 integral format.
 Two-electron integral symmetry is turned on.
   337 basis functions,   485 primitive gaussians,   372 cartesian basis functions
    28 alpha electrons       27 beta electrons
       nuclear repulsion energy       289.2283985915 Hartrees.
 NAtoms=   18 NActive=   18 NUniq=   18 SFac= 1.00D+00 NAtFMM=   50 NAOKFM=F Big=F
 One-electron integrals computed using PRISM.
 NBasis=   337 RedAO= T  NBF=   337
 NBsUse=   337 1.00D-06 NBFU=   337
 Harris functional with IExCor= 1009 diagonalized for initial guess.
 ExpMin= 4.38D-02 ExpMax= 8.59D+03 ExpMxC= 1.30D+03 IAcc=2 IRadAn=         0 AccDes= 0.00D+00
 HarFok:  IExCor= 1009 AccDes= 0.00D+00 IRadAn=         0 IDoV= 1
 ScaDFX=  1.000000  1.000000  1.000000  1.000000
 FoFCou: FMM=F IPFlag=           0 FMFlag=      100000 FMFlg1=           0
         NFxFlg=           0 DoJE=T BraDBF=F KetDBF=T FulRan=T
         Omega=  0.000000  0.000000  1.000000  0.000000  0.000000 ICntrl=     500 IOpCl=  0
         NMat0=    1 NMatS0=    1 NMatT0=    0 NMatD0=    1 NMtDS0=    0 NMtDT0=    0
         I1Cent=           4 NGrid=           0.
 Petite list used in FoFCou.
 Initial guess orbital symmetries:
 Alpha Orbitals:
       Occupied  (A) (A) (A) (A) (A) (A) (A) (A) (A) (A) (A) (A)
                 (A) (A) (A) (A) (A) (A) (A) (A) (A) (A) (A) (A)
                 (A) (A) (A) (A)
       Virtual   (A) (A) (A) (A) (A) (A) (A) (A) (A) (A) (A) (A)
                 (A) (A) (A) (A) (A) (A) (A) (A) (A) (A) (A) (A)
                 (A) (A) (A) (A) (A) (A) (A) (A) (A) (A) (A) (A)
                 (A) (A) (A) (A) (A) (A) (A) (A) (A) (A) (A) (A)
                 (A) (A) (A) (A) (A) (A) (A) (A) (A) (A) (A) (A)
                 (A) (A) (A) (A) (A) (A) (A) (A) (A) (A) (A) (A)
                 (A) (A) (A) (A) (A) (A) (A) (A) (A) (A) (A) (A)
                 (A) (A) (A) (A) (A) (A) (A) (A) (A) (A) (A) (A)
                 (A) (A) (A) (A) (A) (A) (A) (A) (A) (A) (A) (A)
                 (A) (A) (A) (A) (A) (A) (A) (A) (A) (A) (A) (A)
                 (A) (A) (A) (A) (A) (A) (A) (A) (A) (A) (A) (A)
                 (A) (A) (A) (A) (A) (A) (A) (A) (A) (A) (A) (A)
                 (A) (A) (A) (A) (A) (A) (A) (A) (A) (A) (A) (A)
                 (A) (A) (A) (A) (A) (A) (A) (A) (A) (A) (A) (A)
                 (A) (A) (A) (A) (A) (A) (A) (A) (A) (A) (A) (A)
                 (A) (A) (A) (A) (A) (A) (A) (A) (A) (A) (A) (A)
                 (A) (A) (A) (A) (A) (A) (A) (A) (A) (A) (A) (A)
                 (A) (A) (A) (A) (A) (A) (A) (A) (A) (A) (A) (A)
                 (A) (A) (A) (A) (A) (A) (A) (A) (A) (A) (A) (A)
                 (A) (A) (A) (A) (A) (A) (A) (A) (A) (A) (A) (A)
                 (A) (A) (A) (A) (A) (A) (A) (A) (A) (A) (A) (A)
                 (A) (A) (A) (A) (A) (A) (A) (A) (A) (A) (A) (A)
                 (A) (A) (A) (A) (A) (A) (A) (A) (A) (A) (A) (A)
                 (A) (A) (A) (A) (A) (A) (A) (A) (A) (A) (A) (A)
                 (A) (A) (A) (A) (A) (A) (A) (A) (A) (A) (A) (A)
                 (A) (A) (A) (A) (A) (A) (A) (A) (A)
 Beta  Orbitals:
       Occupied  (A) (A) (A) (A) (A) (A) (A) (A) (A) (A) (A) (A)
                 (A) (A) (A) (A) (A) (A) (A) (A) (A) (A) (A) (A)
                 (A) (A) (A)
       Virtual   (A) (A) (A) (A) (A) (A) (A) (A) (A) (A) (A) (A)
                 (A) (A) (A) (A) (A) (A) (A) (A) (A) (A) (A) (A)
                 (A) (A) (A) (A) (A) (A) (A) (A) (A) (A) (A) (A)
                 (A) (A) (A) (A) (A) (A) (A) (A) (A) (A) (A) (A)
                 (A) (A) (A) (A) (A) (A) (A) (A) (A) (A) (A) (A)
                 (A) (A) (A) (A) (A) (A) (A) (A) (A) (A) (A) (A)
                 (A) (A) (A) (A) (A) (A) (A) (A) (A) (A) (A) (A)
                 (A) (A) (A) (A) (A) (A) (A) (A) (A) (A) (A) (A)
                 (A) (A) (A) (A) (A) (A) (A) (A) (A) (A) (A) (A)
                 (A) (A) (A) (A) (A) (A) (A) (A) (A) (A) (A) (A)
                 (A) (A) (A) (A) (A) (A) (A) (A) (A) (A) (A) (A)
                 (A) (A) (A) (A) (A) (A) (A) (A) (A) (A) (A) (A)
                 (A) (A) (A) (A) (A) (A) (A) (A) (A) (A) (A) (A)
                 (A) (A) (A) (A) (A) (A) (A) (A) (A) (A) (A) (A)
                 (A) (A) (A) (A) (A) (A) (A) (A) (A) (A) (A) (A)
                 (A) (A) (A) (A) (A) (A) (A) (A) (A) (A) (A) (A)
                 (A) (A) (A) (A) (A) (A) (A) (A) (A) (A) (A) (A)
                 (A) (A) (A) (A) (A) (A) (A) (A) (A) (A) (A) (A)
                 (A) (A) (A) (A) (A) (A) (A) (A) (A) (A) (A) (A)
                 (A) (A) (A) (A) (A) (A) (A) (A) (A) (A) (A) (A)
                 (A) (A) (A) (A) (A) (A) (A) (A) (A) (A) (A) (A)
                 (A) (A) (A) (A) (A) (A) (A) (A) (A) (A) (A) (A)
                 (A) (A) (A) (A) (A) (A) (A) (A) (A) (A) (A) (A)
                 (A) (A) (A) (A) (A) (A) (A) (A) (A) (A) (A) (A)
                 (A) (A) (A) (A) (A) (A) (A) (A) (A) (A) (A) (A)
                 (A) (A) (A) (A) (A) (A) (A) (A) (A) (A)
 The electronic state of the initial guess is 2-A.
 Initial guess <Sx>= 0.0000 <Sy>= 0.0000 <Sz>= 0.5000 <S**2>= 0.7500 S= 0.5000
 Requested convergence on RMS density matrix=1.00D-08 within 128 cycles.
 Requested convergence on MAX density matrix=1.00D-06.
 Requested convergence on             energy=1.00D-06.
 No special actions if energy rises.
 SCF Done:  E(UM062X) =  -310.366493331     A.U. after   14 cycles
             Convg  =    0.8971D-08             -V/T =  2.0051
 <Sx>= 0.0000 <Sy>= 0.0000 <Sz>= 0.5000 <S**2>= 0.7545 S= 0.5023
 <L.S>= 0.000000000000E+00
 Annihilation of the first spin contaminant:
 S**2 before annihilation     0.7545,   after     0.7500

 **********************************************************************

            Population analysis using the SCF density.

 **********************************************************************

 Orbital symmetries:
 Alpha Orbitals:
       Occupied  (A) (A) (A) (A) (A) (A) (A) (A) (A) (A) (A) (A)
                 (A) (A) (A) (A) (A) (A) (A) (A) (A) (A) (A) (A)
                 (A) (A) (A) (A)
       Virtual   (A) (A) (A) (A) (A) (A) (A) (A) (A) (A) (A) (A)
                 (A) (A) (A) (A) (A) (A) (A) (A) (A) (A) (A) (A)
                 (A) (A) (A) (A) (A) (A) (A) (A) (A) (A) (A) (A)
                 (A) (A) (A) (A) (A) (A) (A) (A) (A) (A) (A) (A)
                 (A) (A) (A) (A) (A) (A) (A) (A) (A) (A) (A) (A)
                 (A) (A) (A) (A) (A) (A) (A) (A) (A) (A) (A) (A)
                 (A) (A) (A) (A) (A) (A) (A) (A) (A) (A) (A) (A)
                 (A) (A) (A) (A) (A) (A) (A) (A) (A) (A) (A) (A)
                 (A) (A) (A) (A) (A) (A) (A) (A) (A) (A) (A) (A)
                 (A) (A) (A) (A) (A) (A) (A) (A) (A) (A) (A) (A)
                 (A) (A) (A) (A) (A) (A) (A) (A) (A) (A) (A) (A)
                 (A) (A) (A) (A) (A) (A) (A) (A) (A) (A) (A) (A)
                 (A) (A) (A) (A) (A) (A) (A) (A) (A) (A) (A) (A)
                 (A) (A) (A) (A) (A) (A) (A) (A) (A) (A) (A) (A)
                 (A) (A) (A) (A) (A) (A) (A) (A) (A) (A) (A) (A)
                 (A) (A) (A) (A) (A) (A) (A) (A) (A) (A) (A) (A)
                 (A) (A) (A) (A) (A) (A) (A) (A) (A) (A) (A) (A)
                 (A) (A) (A) (A) (A) (A) (A) (A) (A) (A) (A) (A)
                 (A) (A) (A) (A) (A) (A) (A) (A) (A) (A) (A) (A)
                 (A) (A) (A) (A) (A) (A) (A) (A) (A) (A) (A) (A)
                 (A) (A) (A) (A) (A) (A) (A) (A) (A) (A) (A) (A)
                 (A) (A) (A) (A) (A) (A) (A) (A) (A) (A) (A) (A)
                 (A) (A) (A) (A) (A) (A) (A) (A) (A) (A) (A) (A)
                 (A) (A) (A) (A) (A) (A) (A) (A) (A) (A) (A) (A)
                 (A) (A) (A) (A) (A) (A) (A) (A) (A) (A) (A) (A)
                 (A) (A) (A) (A) (A) (A) (A) (A) (A)
 Beta  Orbitals:
       Occupied  (A) (A) (A) (A) (A) (A) (A) (A) (A) (A) (A) (A)
                 (A) (A) (A) (A) (A) (A) (A) (A) (A) (A) (A) (A)
                 (A) (A) (A)
       Virtual   (A) (A) (A) (A) (A) (A) (A) (A) (A) (A) (A) (A)
                 (A) (A) (A) (A) (A) (A) (A) (A) (A) (A) (A) (A)
                 (A) (A) (A) (A) (A) (A) (A) (A) (A) (A) (A) (A)
                 (A) (A) (A) (A) (A) (A) (A) (A) (A) (A) (A) (A)
                 (A) (A) (A) (A) (A) (A) (A) (A) (A) (A) (A) (A)
                 (A) (A) (A) (A) (A) (A) (A) (A) (A) (A) (A) (A)
                 (A) (A) (A) (A) (A) (A) (A) (A) (A) (A) (A) (A)
                 (A) (A) (A) (A) (A) (A) (A) (A) (A) (A) (A) (A)
                 (A) (A) (A) (A) (A) (A) (A) (A) (A) (A) (A) (A)
                 (A) (A) (A) (A) (A) (A) (A) (A) (A) (A) (A) (A)
                 (A) (A) (A) (A) (A) (A) (A) (A) (A) (A) (A) (A)
                 (A) (A) (A) (A) (A) (A) (A) (A) (A) (A) (A) (A)
                 (A) (A) (A) (A) (A) (A) (A) (A) (A) (A) (A) (A)
                 (A) (A) (A) (A) (A) (A) (A) (A) (A) (A) (A) (A)
                 (A) (A) (A) (A) (A) (A) (A) (A) (A) (A) (A) (A)
                 (A) (A) (A) (A) (A) (A) (A) (A) (A) (A) (A) (A)
                 (A) (A) (A) (A) (A) (A) (A) (A) (A) (A) (A) (A)
                 (A) (A) (A) (A) (A) (A) (A) (A) (A) (A) (A) (A)
                 (A) (A) (A) (A) (A) (A) (A) (A) (A) (A) (A) (A)
                 (A) (A) (A) (A) (A) (A) (A) (A) (A) (A) (A) (A)
                 (A) (A) (A) (A) (A) (A) (A) (A) (A) (A) (A) (A)
                 (A) (A) (A) (A) (A) (A) (A) (A) (A) (A) (A) (A)
                 (A) (A) (A) (A) (A) (A) (A) (A) (A) (A) (A) (A)
                 (A) (A) (A) (A) (A) (A) (A) (A) (A) (A) (A) (A)
                 (A) (A) (A) (A) (A) (A) (A) (A) (A) (A) (A) (A)
                 (A) (A) (A) (A) (A) (A) (A) (A) (A) (A)
 The electronic state is 2-A.
 Alpha  occ. eigenvalues --  -19.61130 -10.62789 -10.56152 -10.55082 -10.54847
 Alpha  occ. eigenvalues --  -10.54685 -10.53796  -1.16008  -0.91342  -0.86020
 Alpha  occ. eigenvalues --   -0.82238  -0.73947  -0.65494  -0.61145  -0.55730
 Alpha  occ. eigenvalues --   -0.53899  -0.52711  -0.51246  -0.49304  -0.47749
 Alpha  occ. eigenvalues --   -0.46401  -0.44845  -0.43046  -0.41528  -0.40448
 Alpha  occ. eigenvalues --   -0.39333  -0.32257  -0.28344
 Alpha virt. eigenvalues --    0.00976   0.01796   0.02355   0.03229   0.04132
 Alpha virt. eigenvalues --    0.04463   0.05074   0.05779   0.06924   0.07087
 Alpha virt. eigenvalues --    0.07320   0.08047   0.08895   0.09761   0.10271
 Alpha virt. eigenvalues --    0.11316   0.12273   0.13577   0.13948   0.14394
 Alpha virt. eigenvalues --    0.16829   0.17381   0.17840   0.19011   0.19782
 Alpha virt. eigenvalues --    0.20520   0.20866   0.21389   0.22206   0.23288
 Alpha virt. eigenvalues --    0.24019   0.24420   0.25111   0.26247   0.26473
 Alpha virt. eigenvalues --    0.28168   0.28604   0.29616   0.29931   0.30923
 Alpha virt. eigenvalues --    0.32740   0.33497   0.34848   0.36689   0.39665
 Alpha virt. eigenvalues --    0.41852   0.42947   0.44010   0.44340   0.44531
 Alpha virt. eigenvalues --    0.47116   0.48655   0.48840   0.50631   0.51741
 Alpha virt. eigenvalues --    0.52804   0.54176   0.55548   0.55664   0.56453
 Alpha virt. eigenvalues --    0.57639   0.57971   0.58573   0.59967   0.61600
 Alpha virt. eigenvalues --    0.62811   0.63617   0.64615   0.65815   0.65937
 Alpha virt. eigenvalues --    0.66651   0.67140   0.67806   0.68650   0.69883
 Alpha virt. eigenvalues --    0.71506   0.72629   0.73590   0.77526   0.78858
 Alpha virt. eigenvalues --    0.79576   0.81359   0.82390   0.85429   0.86800
 Alpha virt. eigenvalues --    0.88481   0.89148   0.91362   0.94089   0.95562
 Alpha virt. eigenvalues --    0.97541   0.99175   0.99771   1.02277   1.04154
 Alpha virt. eigenvalues --    1.06511   1.07755   1.10508   1.11051   1.12307
 Alpha virt. eigenvalues --    1.13983   1.15220   1.15797   1.15868   1.17967
 Alpha virt. eigenvalues --    1.18928   1.19221   1.20357   1.21561   1.25005
 Alpha virt. eigenvalues --    1.25549   1.26931   1.27162   1.28204   1.29485
 Alpha virt. eigenvalues --    1.30012   1.30959   1.32495   1.32906   1.34417
 Alpha virt. eigenvalues --    1.35996   1.37156   1.39094   1.40446   1.43370
 Alpha virt. eigenvalues --    1.43406   1.44013   1.44858   1.46405   1.47326
 Alpha virt. eigenvalues --    1.47392   1.49876   1.50553   1.53361   1.54440
 Alpha virt. eigenvalues --    1.56539   1.57346   1.58256   1.59379   1.62408
 Alpha virt. eigenvalues --    1.63674   1.64089   1.65802   1.68613   1.69730
 Alpha virt. eigenvalues --    1.74553   1.77631   1.83929   1.87739   2.01592
 Alpha virt. eigenvalues --    2.07679   2.30935   2.37795   2.44400   2.48395
 Alpha virt. eigenvalues --    2.48595   2.53762   2.57863   2.58440   2.61128
 Alpha virt. eigenvalues --    2.62760   2.64090   2.66844   2.67776   2.72948
 Alpha virt. eigenvalues --    2.76414   2.77056   2.79695   2.80654   2.82039
 Alpha virt. eigenvalues --    2.84544   2.85810   2.87057   2.87950   2.89029
 Alpha virt. eigenvalues --    2.90424   2.94787   2.96505   2.97472   2.98316
 Alpha virt. eigenvalues --    3.00238   3.02212   3.04966   3.05469   3.07478
 Alpha virt. eigenvalues --    3.09768   3.11362   3.13388   3.13908   3.16436
 Alpha virt. eigenvalues --    3.17290   3.17593   3.20063   3.21256   3.23318
 Alpha virt. eigenvalues --    3.25297   3.28174   3.29182   3.31189   3.32061
 Alpha virt. eigenvalues --    3.35072   3.36542   3.36969   3.37779   3.41553
 Alpha virt. eigenvalues --    3.43478   3.43702   3.45855   3.50624   3.51767
 Alpha virt. eigenvalues --    3.53558   3.56157   3.56366   3.57950   3.59051
 Alpha virt. eigenvalues --    3.61273   3.61853   3.65296   3.66044   3.68118
 Alpha virt. eigenvalues --    3.70479   3.72079   3.75358   3.76503   3.77957
 Alpha virt. eigenvalues --    3.79635   3.85245   3.86494   3.88028   3.88827
 Alpha virt. eigenvalues --    3.90339   3.90403   3.92503   3.93956   3.96723
 Alpha virt. eigenvalues --    3.99100   4.01428   4.02943   4.04395   4.05390
 Alpha virt. eigenvalues --    4.06714   4.08862   4.10844   4.13975   4.15068
 Alpha virt. eigenvalues --    4.16944   4.17881   4.19416   4.20803   4.21592
 Alpha virt. eigenvalues --    4.24166   4.31168   4.32633   4.34677   4.35628
 Alpha virt. eigenvalues --    4.37521   4.37574   4.42015   4.42192   4.44745
 Alpha virt. eigenvalues --    4.46897   4.47581   4.48766   4.49756   4.51106
 Alpha virt. eigenvalues --    4.53263   4.55823   4.58889   4.60075   4.64860
 Alpha virt. eigenvalues --    4.67162   4.72506   4.76233   4.77751   4.93841
 Alpha virt. eigenvalues --    5.07703   5.12795   5.14140   5.17028   5.22216
 Alpha virt. eigenvalues --    5.34415   5.37734   5.43116   5.44846   5.45913
 Alpha virt. eigenvalues --    5.49085   5.50653   5.52787   5.54605   5.56024
 Alpha virt. eigenvalues --    5.56261   5.59713   5.59822   5.74565   6.25222
 Alpha virt. eigenvalues --    6.60702   6.88856   6.92569   7.08628   7.27057
 Alpha virt. eigenvalues --    7.48672   7.66385  24.08635  24.27768  24.30731
 Alpha virt. eigenvalues --   24.33546  24.41249  24.70276  50.29369
  Beta  occ. eigenvalues --  -19.61124 -10.62790 -10.55295 -10.55109 -10.54833
  Beta  occ. eigenvalues --  -10.54685 -10.53825  -1.15994  -0.90470  -0.85317
  Beta  occ. eigenvalues --   -0.81870  -0.73581  -0.63412  -0.61035  -0.55116
  Beta  occ. eigenvalues --   -0.53694  -0.52460  -0.50193  -0.48828  -0.46926
  Beta  occ. eigenvalues --   -0.46052  -0.44664  -0.42598  -0.41111  -0.39934
  Beta  occ. eigenvalues --   -0.38961  -0.32099
  Beta virt. eigenvalues --   -0.04499   0.01051   0.01822   0.02392   0.03280
  Beta virt. eigenvalues --    0.04048   0.04415   0.05039   0.05768   0.06735
  Beta virt. eigenvalues --    0.07198   0.07297   0.08085   0.08520   0.09623
  Beta virt. eigenvalues --    0.10603   0.11142   0.12099   0.13244   0.13533
  Beta virt. eigenvalues --    0.14362   0.16616   0.16881   0.17277   0.18742
  Beta virt. eigenvalues --    0.19889   0.20380   0.20919   0.21439   0.22338
  Beta virt. eigenvalues --    0.22958   0.23919   0.24624   0.25139   0.26336
  Beta virt. eigenvalues --    0.27203   0.28377   0.28699   0.30013   0.30211
  Beta virt. eigenvalues --    0.31080   0.32826   0.33550   0.35196   0.36969
  Beta virt. eigenvalues --    0.39811   0.41780   0.42828   0.44083   0.44268
  Beta virt. eigenvalues --    0.44938   0.47120   0.48779   0.48845   0.50849
  Beta virt. eigenvalues --    0.51803   0.52807   0.54411   0.55114   0.55665
  Beta virt. eigenvalues --    0.57371   0.57905   0.58402   0.58487   0.60219
  Beta virt. eigenvalues --    0.61642   0.62501   0.63909   0.64797   0.65448
  Beta virt. eigenvalues --    0.66171   0.66555   0.66951   0.67505   0.68418
  Beta virt. eigenvalues --    0.69316   0.71640   0.72475   0.73375   0.76437
  Beta virt. eigenvalues --    0.78865   0.79439   0.81231   0.82232   0.84760
  Beta virt. eigenvalues --    0.86447   0.88536   0.89124   0.91035   0.94043
  Beta virt. eigenvalues --    0.95597   0.97824   0.99136   0.99594   1.02478
  Beta virt. eigenvalues --    1.04185   1.06662   1.07734   1.10490   1.10891
  Beta virt. eigenvalues --    1.12256   1.13738   1.15189   1.15774   1.16025
  Beta virt. eigenvalues --    1.17962   1.19122   1.19345   1.20745   1.21780
  Beta virt. eigenvalues --    1.25032   1.25640   1.26789   1.27200   1.28452
  Beta virt. eigenvalues --    1.29296   1.30212   1.31600   1.32504   1.32916
  Beta virt. eigenvalues --    1.34482   1.36098   1.37507   1.38989   1.40439
  Beta virt. eigenvalues --    1.42858   1.43381   1.43960   1.44837   1.46376
  Beta virt. eigenvalues --    1.47358   1.47576   1.49818   1.50570   1.53065
  Beta virt. eigenvalues --    1.54286   1.56551   1.57382   1.58054   1.59159
  Beta virt. eigenvalues --    1.62362   1.63798   1.64014   1.66009   1.68669
  Beta virt. eigenvalues --    1.69913   1.74459   1.77748   1.84009   1.87870
  Beta virt. eigenvalues --    2.01619   2.07693   2.30969   2.38453   2.44773
  Beta virt. eigenvalues --    2.48719   2.48959   2.54449   2.58083   2.58583
  Beta virt. eigenvalues --    2.61466   2.63257   2.64645   2.67220   2.68401
  Beta virt. eigenvalues --    2.74339   2.77628   2.78557   2.80746   2.81608
  Beta virt. eigenvalues --    2.82832   2.85202   2.87252   2.88084   2.88459
  Beta virt. eigenvalues --    2.90042   2.92055   2.95505   2.96740   2.97455
  Beta virt. eigenvalues --    2.98504   3.01146   3.03009   3.05323   3.06707
  Beta virt. eigenvalues --    3.08250   3.10093   3.11688   3.13914   3.14983
  Beta virt. eigenvalues --    3.16523   3.17447   3.17861   3.20366   3.21872
  Beta virt. eigenvalues --    3.23750   3.25600   3.28468   3.29784   3.31792
  Beta virt. eigenvalues --    3.33045   3.35237   3.36814   3.37361   3.38440
  Beta virt. eigenvalues --    3.41887   3.43845   3.45084   3.48633   3.51433
  Beta virt. eigenvalues --    3.52678   3.55847   3.56939   3.58391   3.58805
  Beta virt. eigenvalues --    3.60197   3.62871   3.63132   3.65877   3.67043
  Beta virt. eigenvalues --    3.68246   3.70600   3.74099   3.75707   3.76867
  Beta virt. eigenvalues --    3.78778   3.80154   3.85762   3.86547   3.88173
  Beta virt. eigenvalues --    3.89122   3.90684   3.91261   3.92873   3.94406
  Beta virt. eigenvalues --    3.96890   3.99587   4.02610   4.03620   4.04951
  Beta virt. eigenvalues --    4.06861   4.07086   4.09130   4.11642   4.14101
  Beta virt. eigenvalues --    4.15878   4.17189   4.17977   4.19732   4.20853
  Beta virt. eigenvalues --    4.21974   4.25057   4.32036   4.33745   4.35339
  Beta virt. eigenvalues --    4.36025   4.37772   4.38454   4.42134   4.43074
  Beta virt. eigenvalues --    4.45166   4.47055   4.48541   4.49061   4.50411
  Beta virt. eigenvalues --    4.51462   4.53683   4.57173   4.59320   4.61169
  Beta virt. eigenvalues --    4.65125   4.67941   4.73062   4.77067   4.78245
  Beta virt. eigenvalues --    4.95664   5.08692   5.12812   5.14148   5.18159
  Beta virt. eigenvalues --    5.22218   5.36854   5.40409   5.43640   5.45821
  Beta virt. eigenvalues --    5.46565   5.49401   5.50435   5.52808   5.54560
  Beta virt. eigenvalues --    5.55935   5.56243   5.59681   5.59824   5.74578
  Beta virt. eigenvalues --    6.25216   6.60709   6.88853   6.92571   7.08627
  Beta virt. eigenvalues --    7.27046   7.48683   7.66381  24.09466  24.27947
  Beta virt. eigenvalues --   24.30736  24.34089  24.41370  24.70278  50.29367
          Condensed to atoms (all electrons):
              1          2          3          4          5          6
     1  C    6.071373  -0.578983   0.181758   0.051456  -0.337185   0.101939
     2  C   -0.578983   6.050816  -0.168198  -0.119439   0.368185  -0.007678
     3  C    0.181758  -0.168198   5.382465   0.003894   0.018266  -0.042456
     4  C    0.051456  -0.119439   0.003894   5.378245   0.013662   0.023689
     5  C   -0.337185   0.368185   0.018266   0.013662   5.921540  -0.086429
     6  C    0.101939  -0.007678  -0.042456   0.023689  -0.086429   5.481299
     7  H    0.445936  -0.034880   0.006457  -0.003417  -0.077016   0.005712
     8  H    0.482085  -0.063153  -0.009315   0.003059  -0.057861  -0.000946
     9  H    0.006610   0.407998   0.004261  -0.013168  -0.026015  -0.013077
    10  H   -0.029772   0.441248   0.005168   0.028322   0.001348  -0.094382
    11  H   -0.044317   0.006966   0.383620  -0.000090   0.018381  -0.001095
    12  H    0.042276   0.000061   0.404439  -0.000077  -0.071282   0.000864
    13  H   -0.010986  -0.001391   0.403690   0.000463  -0.031138   0.001170
    14  H   -0.004932   0.025480   0.000026   0.424872   0.000844  -0.053385
    15  H   -0.006333   0.005739  -0.000575   0.378449  -0.001121  -0.007762
    16  H    0.007106  -0.030113   0.000049   0.417173  -0.001726  -0.022701
    17  H   -0.019416  -0.012036  -0.047149   0.000154   0.393444   0.007762
    18  O   -0.028173  -0.124737   0.004601  -0.115771   0.000638   0.469449
              7          8          9         10         11         12
     1  C    0.445936   0.482085   0.006610  -0.029772  -0.044317   0.042276
     2  C   -0.034880  -0.063153   0.407998   0.441248   0.006966   0.000061
     3  C    0.006457  -0.009315   0.004261   0.005168   0.383620   0.404439
     4  C   -0.003417   0.003059  -0.013168   0.028322  -0.000090  -0.000077
     5  C   -0.077016  -0.057861  -0.026015   0.001348   0.018381  -0.071282
     6  C    0.005712  -0.000946  -0.013077  -0.094382  -0.001095   0.000864
     7  H    0.530648  -0.030684   0.003979  -0.005636  -0.001000  -0.000058
     8  H   -0.030684   0.490695  -0.005714   0.004677   0.003594  -0.000139
     9  H    0.003979  -0.005714   0.485055  -0.025735  -0.000076   0.000001
    10  H   -0.005636   0.004677  -0.025735   0.509994  -0.000038  -0.000005
    11  H   -0.001000   0.003594  -0.000076  -0.000038   0.562085  -0.025360
    12  H   -0.000058  -0.000139   0.000001  -0.000005  -0.025360   0.536822
    13  H    0.002224  -0.000444   0.000001   0.000022  -0.035496  -0.022347
    14  H   -0.000022   0.000015  -0.000247   0.000091   0.000000   0.000000
    15  H    0.000404  -0.000070   0.000358  -0.004547   0.000001   0.000000
    16  H   -0.000099  -0.000014  -0.000167  -0.000445   0.000000   0.000000
    17  H    0.005462  -0.005669   0.002354  -0.000780  -0.005780  -0.005511
    18  O   -0.000231   0.002609  -0.010166   0.006376  -0.000039   0.000003
             13         14         15         16         17         18
     1  C   -0.010986  -0.004932  -0.006333   0.007106  -0.019416  -0.028173
     2  C   -0.001391   0.025480   0.005739  -0.030113  -0.012036  -0.124737
     3  C    0.403690   0.000026  -0.000575   0.000049  -0.047149   0.004601
     4  C    0.000463   0.424872   0.378449   0.417173   0.000154  -0.115771
     5  C   -0.031138   0.000844  -0.001121  -0.001726   0.393444   0.000638
     6  C    0.001170  -0.053385  -0.007762  -0.022701   0.007762   0.469449
     7  H    0.002224  -0.000022   0.000404  -0.000099   0.005462  -0.000231
     8  H   -0.000444   0.000015  -0.000070  -0.000014  -0.005669   0.002609
     9  H    0.000001  -0.000247   0.000358  -0.000167   0.002354  -0.010166
    10  H    0.000022   0.000091  -0.004547  -0.000445  -0.000780   0.006376
    11  H   -0.035496   0.000000   0.000001   0.000000  -0.005780  -0.000039
    12  H   -0.022347   0.000000   0.000000   0.000000  -0.005511   0.000003
    13  H    0.555879   0.000000   0.000000   0.000000   0.005808  -0.000001
    14  H    0.000000   0.496646  -0.022560  -0.021302   0.000001  -0.004464
    15  H    0.000000  -0.022560   0.548917  -0.030888  -0.000001   0.003199
    16  H    0.000000  -0.021302  -0.030888   0.537608   0.000000   0.002534
    17  H    0.005808   0.000001  -0.000001   0.000000   0.523792  -0.000074
    18  O   -0.000001  -0.004464   0.003199   0.002534  -0.000074   8.182129
 Mulliken atomic charges:
              1
     1  C   -0.330441
     2  C   -0.165885
     3  C   -0.531001
     4  C   -0.471477
     5  C   -0.046536
     6  C    0.238027
     7  H    0.152221
     8  H    0.187276
     9  H    0.183748
    10  H    0.164094
    11  H    0.138645
    12  H    0.140312
    13  H    0.132546
    14  H    0.158938
    15  H    0.136789
    16  H    0.142986
    17  H    0.157639
    18  O   -0.387883
 Sum of Mulliken atomic charges =   0.00000
 Mulliken charges with hydrogens summed into heavy atoms:
              1
     1  C    0.009056
     2  C    0.181957
     3  C   -0.119497
     4  C   -0.032763
     5  C    0.111103
     6  C    0.238027
    18  O   -0.387883
 Sum of Mulliken charges with hydrogens summed into heavy atoms =   0.00000
          Atomic-Atomic Spin Densities.
              1          2          3          4          5          6
     1  C    0.065240  -0.066782   0.023687  -0.001703  -0.089882   0.019486
     2  C   -0.066782   0.114206   0.000446   0.007444   0.021603  -0.051756
     3  C    0.023687   0.000446   0.010238   0.000335  -0.089948  -0.001918
     4  C   -0.001703   0.007444   0.000335   0.007683  -0.004193  -0.007810
     5  C   -0.089882   0.021603  -0.089948  -0.004193   1.220374  -0.004223
     6  C    0.019486  -0.051756  -0.001918  -0.007810  -0.004223   0.039287
     7  H   -0.006781   0.010924   0.004202   0.000809  -0.011376  -0.000028
     8  H    0.035233  -0.015537  -0.001668  -0.000471  -0.025954   0.000996
     9  H    0.001152  -0.002608  -0.000199  -0.000638  -0.000279   0.001102
    10  H    0.006481   0.004673   0.001228   0.002384  -0.008970  -0.001980
    11  H   -0.005777  -0.000922   0.004156  -0.000027  -0.006316  -0.000280
    12  H    0.003943  -0.000233   0.013779   0.000008  -0.020614   0.000124
    13  H    0.006513   0.000375   0.009926   0.000027  -0.020326   0.000016
    14  H    0.000021  -0.000013  -0.000003  -0.000015   0.000040  -0.000019
    15  H    0.000274  -0.000863  -0.000034  -0.000779   0.000296   0.000597
    16  H    0.000120  -0.000782  -0.000012  -0.000977   0.000077   0.001217
    17  H    0.001739   0.006384   0.001611   0.000104  -0.011491  -0.000555
    18  O   -0.001503   0.003905   0.000261  -0.000375  -0.002580   0.001008
              7          8          9         10         11         12
     1  C   -0.006781   0.035233   0.001152   0.006481  -0.005777   0.003943
     2  C    0.010924  -0.015537  -0.002608   0.004673  -0.000922  -0.000233
     3  C    0.004202  -0.001668  -0.000199   0.001228   0.004156   0.013779
     4  C    0.000809  -0.000471  -0.000638   0.002384  -0.000027   0.000008
     5  C   -0.011376  -0.025954  -0.000279  -0.008970  -0.006316  -0.020614
     6  C   -0.000028   0.000996   0.001102  -0.001980  -0.000280   0.000124
     7  H    0.017639  -0.006864   0.000120  -0.000336  -0.001086   0.000080
     8  H   -0.006864   0.048903  -0.000703   0.000102   0.005179  -0.000246
     9  H    0.000120  -0.000703  -0.000136  -0.000010  -0.000032   0.000006
    10  H   -0.000336   0.000102  -0.000010  -0.014498   0.000017  -0.000010
    11  H   -0.001086   0.005179  -0.000032   0.000017   0.062867  -0.005133
    12  H    0.000080  -0.000246   0.000006  -0.000010  -0.005133   0.009636
    13  H    0.001049  -0.000932   0.000007  -0.000013  -0.007154   0.001980
    14  H   -0.000003   0.000001   0.000000   0.000000   0.000000   0.000000
    15  H   -0.000108   0.000024   0.000008  -0.000114   0.000000   0.000000
    16  H   -0.000014   0.000006   0.000015  -0.000117   0.000000   0.000000
    17  H    0.000428  -0.002806  -0.000027   0.000146  -0.003088   0.001477
    18  O    0.000135  -0.000992  -0.000083  -0.000322  -0.000019   0.000000
             13         14         15         16         17         18
     1  C    0.006513   0.000021   0.000274   0.000120   0.001739  -0.001503
     2  C    0.000375  -0.000013  -0.000863  -0.000782   0.006384   0.003905
     3  C    0.009926  -0.000003  -0.000034  -0.000012   0.001611   0.000261
     4  C    0.000027  -0.000015  -0.000779  -0.000977   0.000104  -0.000375
     5  C   -0.020326   0.000040   0.000296   0.000077  -0.011491  -0.002580
     6  C    0.000016  -0.000019   0.000597   0.001217  -0.000555   0.001008
     7  H    0.001049  -0.000003  -0.000108  -0.000014   0.000428   0.000135
     8  H   -0.000932   0.000001   0.000024   0.000006  -0.002806  -0.000992
     9  H    0.000007   0.000000   0.000008   0.000015  -0.000027  -0.000083
    10  H   -0.000013   0.000000  -0.000114  -0.000117   0.000146  -0.000322
    11  H   -0.007154   0.000000   0.000000   0.000000  -0.003088  -0.000019
    12  H    0.001980   0.000000   0.000000   0.000000   0.001477   0.000000
    13  H    0.017430   0.000000  -0.000001   0.000000   0.000258   0.000006
    14  H    0.000000  -0.000061   0.000017   0.000017   0.000000  -0.000023
    15  H   -0.000001   0.000017   0.000335   0.000145  -0.000002   0.000091
    16  H    0.000000   0.000017   0.000145   0.000261  -0.000001   0.000009
    17  H    0.000258   0.000000  -0.000002  -0.000001  -0.021516   0.000100
    18  O    0.000006  -0.000023   0.000091   0.000009   0.000100   0.000720
 Mulliken atomic spin densities:
              1
     1  C   -0.008538
     2  C    0.030465
     3  C   -0.023915
     4  C    0.001808
     5  C    0.946239
     6  C   -0.004736
     7  H    0.008792
     8  H    0.034271
     9  H   -0.002305
    10  H   -0.011338
    11  H    0.042386
    12  H    0.004797
    13  H    0.009162
    14  H   -0.000040
    15  H   -0.000113
    16  H   -0.000035
    17  H   -0.027238
    18  O    0.000339
 Sum of Mulliken atomic spin densities =   1.00000
 Electronic spatial extent (au):  <R**2>=           1204.7221
 Charge=              0.0000 electrons
 Dipole moment (field-independent basis, Debye):
    X=              0.9272    Y=             -2.2230    Z=              0.1166  Tot=              2.4114
 Quadrupole moment (field-independent basis, Debye-Ang):
   XX=            -44.8483   YY=            -49.0865   ZZ=            -43.8002
   XY=              7.6288   XZ=             -0.4736   YZ=              1.2526
 Traceless Quadrupole moment (field-independent basis, Debye-Ang):
   XX=              1.0634   YY=             -3.1748   ZZ=              2.1115
   XY=              7.6288   XZ=             -0.4736   YZ=              1.2526
 Octapole moment (field-independent basis, Debye-Ang**2):
  XXX=             -8.7325  YYY=              0.5257  ZZZ=              0.2866  XYY=              3.3264
  XXY=             -8.1091  XXZ=              0.5430  XZZ=             -4.5580  YZZ=              1.2713
  YYZ=             -0.8667  XYZ=              1.0131
 Hexadecapole moment (field-independent basis, Debye-Ang**3):
 XXXX=          -1304.9062 YYYY=           -196.6407 ZZZZ=           -133.1418 XXXY=             22.1937
 XXXZ=             10.5593 YYYX=             12.5496 YYYZ=              0.3055 ZZZX=             -0.2313
 ZZZY=              5.9257 XXYY=           -270.7380 XXZZ=           -242.4747 YYZZ=            -53.4191
 XXYZ=              1.6763 YYXZ=             -4.4821 ZZXY=             -0.0073
 N-N= 2.892283985915D+02 E-N=-1.943639249473D+03  KE= 4.625013240090D+02
                          Isotropic Fermi Contact Couplings
        Atom                 a.u.       MegaHertz       Gauss      10(-4) cm-1
     1  C(13)             -0.01457     -16.38154      -5.84534      -5.46429
     2  C(13)              0.00991      11.14449       3.97663       3.71740
     3  C(13)             -0.01262     -14.19098      -5.06369      -4.73360
     4  C(13)              0.00003       0.03147       0.01123       0.01050
     5  C(13)              0.37729     424.14516     151.34554     141.47960
     6  C(13)             -0.00070      -0.78830      -0.28128      -0.26295
     7  H(1)               0.00343      15.33082       5.47042       5.11381
     8  H(1)               0.01941      86.77356      30.96296      28.94454
     9  H(1)              -0.00023      -1.02285      -0.36498      -0.34119
    10  H(1)              -0.00030      -1.32718      -0.47357      -0.44270
    11  H(1)               0.02275     101.70256      36.29000      33.92432
    12  H(1)               0.00369      16.47869       5.88001       5.49670
    13  H(1)               0.00443      19.80547       7.06708       6.60639
    14  H(1)              -0.00001      -0.06508      -0.02322      -0.02171
    15  H(1)               0.00006       0.25233       0.09004       0.08417
    16  H(1)               0.00000       0.00892       0.00318       0.00297
    17  H(1)              -0.00403     -18.00475      -6.42454      -6.00574
    18  O(17)              0.00172      -1.04296      -0.37215      -0.34789
 --------------------------------------------------------
       Center         ----  Spin Dipole Couplings  ----
                      3XX-RR        3YY-RR        3ZZ-RR
 --------------------------------------------------------
     1   Atom        0.006718      0.005230     -0.011948
     2   Atom        0.018262     -0.007929     -0.010333
     3   Atom       -0.000047      0.004007     -0.003960
     4   Atom        0.002236     -0.001109     -0.001127
     5   Atom       -0.495728      0.963597     -0.467870
     6   Atom        0.003634     -0.002368     -0.001266
     7   Atom        0.001719     -0.008523      0.006804
     8   Atom        0.001598      0.004927     -0.006525
     9   Atom        0.006084     -0.003995     -0.002089
    10   Atom        0.012353     -0.004488     -0.007865
    11   Atom        0.000055      0.003159     -0.003214
    12   Atom        0.018308     -0.008822     -0.009486
    13   Atom       -0.003234     -0.009030      0.012263
    14   Atom        0.001372     -0.000715     -0.000657
    15   Atom        0.002026     -0.001114     -0.000913
    16   Atom        0.001944     -0.000875     -0.001069
    17   Atom       -0.056055      0.006794      0.049261
    18   Atom        0.007214     -0.005160     -0.002054
 --------------------------------------------------------
                        XY            XZ            YZ
 --------------------------------------------------------
     1   Atom       -0.023348      0.012268     -0.011024
     2   Atom       -0.007416     -0.006124      0.001185
     3   Atom        0.016942     -0.014929     -0.015128
     4   Atom        0.000256      0.000626      0.000150
     5   Atom        0.071849     -0.008632     -0.190077
     6   Atom       -0.000879      0.000686     -0.000388
     7   Atom       -0.001616      0.014446     -0.002896
     8   Atom       -0.007410      0.005433     -0.005701
     9   Atom       -0.004100     -0.006475      0.001992
    10   Atom        0.005074     -0.002506     -0.001607
    11   Atom        0.006909     -0.007234     -0.006441
    12   Atom        0.002629     -0.005742     -0.000526
    13   Atom       -0.000009     -0.012535     -0.000778
    14   Atom       -0.000004      0.000487     -0.000009
    15   Atom        0.000777      0.001288      0.000293
    16   Atom        0.000561     -0.000026     -0.000038
    17   Atom        0.008545      0.014606      0.037175
    18   Atom       -0.000812      0.011681      0.001397
 --------------------------------------------------------


 ---------------------------------------------------------------------------------
              Anisotropic Spin Dipole Couplings in Principal Axis System
 ---------------------------------------------------------------------------------

       Atom             a.u.   MegaHertz   Gauss  10(-4) cm-1        Axes

              Baa    -0.0182    -2.437    -0.870    -0.813 -0.6066 -0.2497  0.7548
     1 C(13)  Bbb    -0.0169    -2.274    -0.811    -0.759  0.4109  0.7142  0.5666
              Bcc     0.0351     4.711     1.681     1.571  0.6806 -0.6538  0.3306
 
              Baa    -0.0116    -1.563    -0.558    -0.521  0.2379  0.1696  0.9564
     2 C(13)  Bbb    -0.0098    -1.314    -0.469    -0.438  0.2042  0.9539 -0.2199
              Bcc     0.0214     2.876     1.026     0.959  0.9496 -0.2476 -0.1923
 
              Baa    -0.0171    -2.291    -0.817    -0.764  0.6302  0.0496  0.7749
     3 C(13)  Bbb    -0.0146    -1.962    -0.700    -0.654 -0.5169  0.7715  0.3710
              Bcc     0.0317     4.252     1.517     1.418  0.5794  0.6343 -0.5118
 
              Baa    -0.0013    -0.175    -0.062    -0.058 -0.1134 -0.5135  0.8506
     4 C(13)  Bbb    -0.0011    -0.144    -0.051    -0.048 -0.1599  0.8544  0.4944
              Bcc     0.0024     0.318     0.114     0.106  0.9806  0.0799  0.1790
 
              Baa    -0.4993   -67.005   -23.909   -22.351  0.9927 -0.0622 -0.1032
     5 C(13)  Bbb    -0.4926   -66.102   -23.587   -22.049  0.1102  0.1233  0.9862
              Bcc     0.9919   133.107    47.496    44.400  0.0486  0.9904 -0.1292
 
              Baa    -0.0026    -0.344    -0.123    -0.115  0.1116  0.9667  0.2302
     6 C(13)  Bbb    -0.0013    -0.175    -0.062    -0.058 -0.1710 -0.2095  0.9627
              Bcc     0.0039     0.519     0.185     0.173  0.9789 -0.1468  0.1419
 
              Baa    -0.0106    -5.671    -2.024    -1.892  0.6971 -0.3360 -0.6334
     7 H(1)   Bbb    -0.0087    -4.632    -1.653    -1.545  0.3298  0.9347 -0.1328
              Bcc     0.0193    10.303     3.677     3.437  0.6367 -0.1163  0.7623
 
              Baa    -0.0096    -5.132    -1.831    -1.712 -0.3151  0.2029  0.9271
     8 H(1)   Bbb    -0.0043    -2.273    -0.811    -0.758  0.7406  0.6635  0.1065
              Bcc     0.0139     7.405     2.642     2.470 -0.5935  0.7202 -0.3593
 
              Baa    -0.0058    -3.086    -1.101    -1.029  0.5424  0.4626  0.7013
     9 H(1)   Bbb    -0.0052    -2.801    -0.999    -0.934 -0.0088  0.8378 -0.5459
              Bcc     0.0110     5.887     2.101     1.964  0.8400 -0.2900 -0.4585
 
              Baa    -0.0085    -4.547    -1.622    -1.517  0.0315  0.3354  0.9416
    10 H(1)   Bbb    -0.0056    -2.994    -1.068    -0.999 -0.2983  0.9023 -0.3114
              Bcc     0.0141     7.541     2.691     2.515  0.9540  0.2710 -0.1285
 
              Baa    -0.0091    -4.843    -1.728    -1.616  0.5629  0.1132  0.8188
    11 H(1)   Bbb    -0.0049    -2.637    -0.941    -0.880 -0.5921  0.7464  0.3038
              Bcc     0.0140     7.481     2.669     2.495  0.5768  0.6558 -0.4872
 
              Baa    -0.0106    -5.669    -2.023    -1.891  0.1944  0.0024  0.9809
    12 H(1)   Bbb    -0.0091    -4.842    -1.728    -1.615 -0.0923  0.9956  0.0159
              Bcc     0.0197    10.511     3.751     3.506  0.9766  0.0936 -0.1938
 
              Baa    -0.0103    -5.516    -1.968    -1.840  0.8336  0.2867  0.4722
    13 H(1)   Bbb    -0.0089    -4.765    -1.700    -1.589 -0.2617  0.9577 -0.1196
              Bcc     0.0193    10.280     3.668     3.429 -0.4865 -0.0239  0.8733
 
              Baa    -0.0008    -0.410    -0.146    -0.137 -0.2191  0.1411  0.9654
    14 H(1)   Bbb    -0.0007    -0.381    -0.136    -0.127  0.0338  0.9900 -0.1370
              Bcc     0.0015     0.791     0.282     0.264  0.9751 -0.0026  0.2217
 
              Baa    -0.0014    -0.745    -0.266    -0.249 -0.3506 -0.0074  0.9365
    15 H(1)   Bbb    -0.0013    -0.691    -0.247    -0.230 -0.2022  0.9770 -0.0680
              Bcc     0.0027     1.436     0.513     0.479  0.9144  0.2132  0.3440
 
              Baa    -0.0011    -0.576    -0.206    -0.192 -0.0497  0.3121  0.9487
    16 H(1)   Bbb    -0.0010    -0.519    -0.185    -0.173 -0.1819  0.9312 -0.3159
              Bcc     0.0021     1.095     0.391     0.365  0.9821  0.1882 -0.0105
 
              Baa    -0.0583   -31.092   -11.094   -10.371  0.9915 -0.0664 -0.1117
    17 H(1)   Bbb    -0.0148    -7.888    -2.815    -2.631  0.0013  0.8647 -0.5022
              Bcc     0.0731    38.980    13.909    13.002  0.1300  0.4978  0.8575
 
              Baa    -0.0105     0.758     0.270     0.253 -0.5366 -0.2903  0.7924
    18 O(17)  Bbb    -0.0047     0.338     0.121     0.113 -0.1676  0.9569  0.2371
              Bcc     0.0151    -1.096    -0.391    -0.366  0.8271  0.0056  0.5621
 

 ---------------------------------------------------------------------------------

 Calling FoFJK, ICntrl=      2127 FMM=F ISym2X=0 I1Cent= 0 IOpClX= 1 NMat=1 NMatS=1 NMatT=0.
 ***** Axes restored to original set *****
 -------------------------------------------------------------------
 Center     Atomic                   Forces (Hartrees/Bohr)
 Number     Number              X              Y              Z
 -------------------------------------------------------------------
      1        6          -0.006121572    0.001730647    0.015902381
      2        6           0.000938843   -0.004156975    0.015696674
      3        6          -0.002220833    0.001000798    0.021495353
      4        6           0.011359554    0.008768020    0.006798129
      5        6          -0.004768300   -0.004470822   -0.053513595
      6        6           0.011822482   -0.010468106   -0.033475883
      7        1          -0.001636808   -0.010833193   -0.004638149
      8        1           0.001323608    0.004052686    0.010762758
      9        1           0.001942041    0.012599293    0.000717098
     10        1          -0.001460685   -0.003770992   -0.012134969
     11        1           0.001459428    0.002532846    0.010551025
     12        1           0.007389729    0.006232847   -0.009118145
     13        1          -0.003476186   -0.011396934   -0.004957777
     14        1          -0.013543882   -0.004472945    0.007185842
     15        1           0.004712354   -0.010791891   -0.000264886
     16        1          -0.005484388    0.008857358   -0.006432183
     17        1           0.004422446    0.010409505    0.015950654
     18        8          -0.006657831    0.004177858    0.019475675
 -------------------------------------------------------------------
 Cartesian Forces:  Max     0.053513595 RMS     0.012161571

 GradGradGradGradGradGradGradGradGradGradGradGradGradGradGradGradGradGrad
 Berny optimization.
 Internal  Forces:  Max     0.020750847 RMS     0.006590919
 Search for a local minimum.
 Step number   1 out of a maximum of   90
 All quantities printed in internal units (Hartrees-Bohrs-Radians)
 Swaping is turned off.
 Second derivative matrix not updated -- first step.
 ITU=  0
     Eigenvalues ---    0.00361   0.00379   0.00451   0.00708   0.00745
     Eigenvalues ---    0.00782   0.02447   0.04326   0.04339   0.05459
     Eigenvalues ---    0.05482   0.07188   0.07348   0.07392   0.07504
     Eigenvalues ---    0.08898   0.09107   0.10849   0.12527   0.12641
     Eigenvalues ---    0.16000   0.16000   0.16000   0.16000   0.16000
     Eigenvalues ---    0.16000   0.21957   0.21978   0.23343   0.24999
     Eigenvalues ---    0.25000   0.29366   0.29494   0.30005   0.31919
     Eigenvalues ---    0.32341   0.32350   0.32351   0.32404   0.32417
     Eigenvalues ---    0.32497   0.32503   0.32507   0.32562   0.32592
     Eigenvalues ---    0.32599   0.32620   0.94503
 Quadratic step=8.799D-01 exceeds max=3.000D-01 adjusted using Lamda=-5.348D-02.
 Angle between NR and scaled steps=  23.96 degrees.
 Angle between quadratic step and forces=  40.68 degrees.
 Linear search not attempted -- option 19 set.
 Iteration  1 RMS(Cart)=  0.03620740 RMS(Int)=  0.00183996
 Iteration  2 RMS(Cart)=  0.00266547 RMS(Int)=  0.00109867
 Iteration  3 RMS(Cart)=  0.00000446 RMS(Int)=  0.00109867
 Iteration  4 RMS(Cart)=  0.00000002 RMS(Int)=  0.00109867
 Variable       Old X    -DE/DX   Delta X   Delta X   Delta X     New X
                                 (Linear)    (Quad)   (Total)
    R1        2.89246   0.00151   0.00000   0.00436   0.00436   2.89682
    R2        2.88983  -0.01240   0.00000  -0.03560  -0.03560   2.85424
    R3        2.10208  -0.01140   0.00000  -0.03024  -0.03024   2.07183
    R4        2.10225  -0.01143   0.00000  -0.03032  -0.03032   2.07192
    R5        2.84291   0.00357   0.00000   0.00957   0.00957   2.85248
    R6        2.10087  -0.01272   0.00000  -0.03367  -0.03367   2.06720
    R7        2.10207  -0.01267   0.00000  -0.03360  -0.03360   2.06846
    R8        2.87954  -0.00954   0.00000  -0.02698  -0.02698   2.85256
    R9        2.09932  -0.01092   0.00000  -0.02885  -0.02885   2.07047
   R10        2.09723  -0.01236   0.00000  -0.03255  -0.03255   2.06468
   R11        2.09828  -0.01238   0.00000  -0.03267  -0.03267   2.06561
   R12        2.83226   0.00302   0.00000   0.00798   0.00798   2.84024
   R13        2.09944  -0.01581   0.00000  -0.04179  -0.04179   2.05765
   R14        2.09774  -0.01106   0.00000  -0.02915  -0.02915   2.06859
   R15        2.09762  -0.01165   0.00000  -0.03070  -0.03070   2.06692
   R16        2.10111  -0.01291   0.00000  -0.03420  -0.03420   2.06690
   R17        2.30924  -0.02075   0.00000  -0.02078  -0.02078   2.28846
    A1        1.92703   0.00770   0.00000   0.03202   0.03188   1.95891
    A2        1.90474  -0.00049   0.00000   0.00509   0.00482   1.90956
    A3        1.91639  -0.00279   0.00000  -0.01335  -0.01328   1.90311
    A4        1.90757  -0.00169   0.00000   0.00010  -0.00026   1.90731
    A5        1.90895  -0.00223   0.00000  -0.00933  -0.00922   1.89972
    A6        1.89890  -0.00061   0.00000  -0.01513  -0.01518   1.88372
    A7        1.93506  -0.00003   0.00000   0.00018   0.00013   1.93519
    A8        1.91955   0.00005   0.00000  -0.00332  -0.00336   1.91619
    A9        1.90607  -0.00003   0.00000   0.00336   0.00330   1.90937
   A10        1.89998  -0.00146   0.00000  -0.01219  -0.01220   1.88779
   A11        1.91686   0.00167   0.00000   0.01370   0.01368   1.93054
   A12        1.88566  -0.00020   0.00000  -0.00176  -0.00171   1.88394
   A13        1.92597  -0.00224   0.00000  -0.01357  -0.01350   1.91247
   A14        1.90763   0.00709   0.00000   0.03596   0.03569   1.94332
   A15        1.92256   0.00372   0.00000   0.01767   0.01738   1.93993
   A16        1.90061  -0.00276   0.00000  -0.01354  -0.01345   1.88716
   A17        1.91115  -0.00282   0.00000  -0.01848  -0.01843   1.89272
   A18        1.89551  -0.00305   0.00000  -0.00820  -0.00879   1.88672
   A19        1.93238  -0.00299   0.00000  -0.01129  -0.01127   1.92111
   A20        1.91218   0.00219   0.00000   0.00900   0.00902   1.92119
   A21        1.91345   0.00132   0.00000   0.00478   0.00480   1.91825
   A22        1.89940   0.00150   0.00000   0.00982   0.00984   1.90924
   A23        1.89940   0.00186   0.00000   0.01122   0.01124   1.91064
   A24        1.90677  -0.00393   0.00000  -0.02381  -0.02380   1.88297
   A25        1.94903   0.01721   0.00000   0.07775   0.07330   2.02233
   A26        1.92471  -0.00178   0.00000   0.03256   0.02635   1.95106
   A27        1.91273   0.00092   0.00000   0.05005   0.04473   1.95745
   A28        2.10230  -0.00994   0.00000  -0.03271  -0.03275   2.06955
   A29        2.09097   0.00174   0.00000   0.00577   0.00573   2.09670
   A30        2.08989   0.00820   0.00000   0.02705   0.02700   2.11689
    D1       -3.11598  -0.00214   0.00000  -0.02310  -0.02320  -3.13918
    D2        1.06496  -0.00032   0.00000  -0.00581  -0.00591   1.05905
    D3       -1.00153  -0.00010   0.00000  -0.00371  -0.00381  -1.00534
    D4       -1.01894   0.00022   0.00000   0.00001   0.00008  -1.01886
    D5       -3.12118   0.00203   0.00000   0.01730   0.01737  -3.10381
    D6        1.09551   0.00226   0.00000   0.01939   0.01947   1.11498
    D7        1.06101  -0.00249   0.00000  -0.02335  -0.02331   1.03769
    D8       -1.04123  -0.00068   0.00000  -0.00605  -0.00602  -1.04725
    D9       -3.10772  -0.00045   0.00000  -0.00396  -0.00392  -3.11165
   D10        3.07259  -0.00463   0.00000  -0.05713  -0.05756   3.01503
   D11       -1.07947   0.00709   0.00000   0.08284   0.08337  -0.99610
   D12        0.97725  -0.00773   0.00000  -0.08332  -0.08383   0.89342
   D13        3.10837   0.00400   0.00000   0.05665   0.05710  -3.11771
   D14       -1.09996  -0.00465   0.00000  -0.05944  -0.05994  -1.15990
   D15        1.03116   0.00708   0.00000   0.08054   0.08099   1.11216
   D16        2.01681   0.00017   0.00000   0.00065   0.00072   2.01753
   D17       -1.13228   0.00129   0.00000   0.01886   0.01881  -1.11347
   D18       -2.15255  -0.00074   0.00000  -0.01129  -0.01120  -2.16375
   D19        0.98154   0.00038   0.00000   0.00692   0.00689   0.98843
   D20       -0.09127  -0.00087   0.00000  -0.01268  -0.01266  -0.10393
   D21        3.04283   0.00025   0.00000   0.00552   0.00543   3.04825
   D22        1.06441   0.00429   0.00000   0.05904   0.06017   1.12458
   D23       -1.07359  -0.00571   0.00000  -0.06974  -0.07082  -1.14441
   D24       -3.12914   0.00396   0.00000   0.05658   0.05742  -3.07172
   D25        1.01605  -0.00604   0.00000  -0.07220  -0.07357   0.94248
   D26       -1.04786   0.00685   0.00000   0.07942   0.08077  -0.96709
   D27        3.09733  -0.00315   0.00000  -0.04936  -0.05022   3.04711
   D28       -3.14091   0.00061   0.00000   0.01042   0.01048  -3.13043
   D29        0.00818  -0.00048   0.00000  -0.00769  -0.00774   0.00044
   D30       -1.04589   0.00200   0.00000   0.02127   0.02132  -1.02457
   D31        2.10319   0.00091   0.00000   0.00317   0.00311   2.10630
   D32        1.04644  -0.00066   0.00000   0.00053   0.00059   1.04704
   D33       -2.08766  -0.00175   0.00000  -0.01757  -0.01762  -2.10528
         Item               Value     Threshold  Converged?
 Maximum Force            0.020751     0.000002     NO 
 RMS     Force            0.006591     0.000001     NO 
 Maximum Displacement     0.131580     0.000006     NO 
 RMS     Displacement     0.035226     0.000004     NO 
 Predicted change in Energy=-9.273834D-03
 GradGradGradGradGradGradGradGradGradGradGradGradGradGradGradGradGradGrad

                          Input orientation:                          
 ---------------------------------------------------------------------
 Center     Atomic      Atomic             Coordinates (Angstroms)
 Number     Number       Type             X           Y           Z
 ---------------------------------------------------------------------
      1          6           0       -0.541142    0.019772   -0.341118
      2          6           0        0.665697   -0.685522    0.288151
      3          6           0       -3.069506    0.363715   -0.144414
      4          6           0        2.957415    0.508267    0.463511
      5          6           0       -1.845008   -0.402756    0.293471
      6          6           0        1.950867   -0.238971   -0.365629
      7          1           0       -0.423376    1.104933   -0.238266
      8          1           0       -0.575298   -0.216098   -1.411317
      9          1           0        0.573347   -1.767363    0.154951
     10          1           0        0.687964   -0.478783    1.362802
     11          1           0       -3.251941    0.186424   -1.210120
     12          1           0       -3.956258    0.046728    0.409590
     13          1           0       -2.938559    1.437874    0.010025
     14          1           0        3.821200    0.771496   -0.144934
     15          1           0        2.507397    1.419845    0.869427
     16          1           0        3.279647   -0.110999    1.305536
     17          1           0       -1.993025   -1.484878    0.235076
     18          8           0        2.150680   -0.473683   -1.536743
 ---------------------------------------------------------------------
                    Distance matrix (angstroms):
                    1          2          3          4          5
     1  C    0.000000
     2  C    1.532932   0.000000
     3  C    2.559222   3.903814   0.000000
     4  C    3.622976   2.589952   6.059228   0.000000
     5  C    1.510398   2.526584   1.509509   4.891027   0.000000
     6  C    2.505525   1.509469   5.061256   1.502989   3.856152
     7  H    1.096368   2.160770   2.749585   3.504033   2.139371
     8  H    1.096415   2.156065   2.856974   4.064448   2.133848
     9  H    2.163798   1.093915   4.231016   3.310209   2.780249
    10  H    2.159306   1.094584   4.135225   2.633135   2.750491
    11  H    2.851556   4.284040   1.095648   6.439001   2.141817
    12  H    3.496757   4.681176   1.092580   6.929271   2.161688
    13  H    2.807476   4.192473   1.093076   5.986011   2.159656
    14  H    4.430982   3.502522   6.902762   1.088862   5.803188
    15  H    3.566401   2.856976   5.765860   1.094650   4.753634
    16  H    4.162571   2.863194   6.529889   1.093768   5.231777
    17  H    2.168856   2.776795   2.172584   5.341504   1.093758
    18  O    2.986456   2.362263   5.467190   2.369823   4.395479
                    6          7          8          9         10
     6  C    0.000000
     7  H    2.731177   0.000000
     8  H    2.734135   1.773204   0.000000
     9  H    2.122392   3.065642   2.485760   0.000000
    10  H    2.154045   2.511305   3.059505   1.769882   0.000000
    11  H    5.288038   3.128729   2.714208   4.507054   4.752398
    12  H    5.964622   3.744432   3.849113   4.886009   4.770070
    13  H    5.182607   2.549245   3.215718   4.756893   4.319173
    14  H    2.137264   4.258675   4.680626   4.133315   3.695083
    15  H    2.141672   3.148902   4.169066   3.795961   2.675546
    16  H    2.138884   4.192158   4.717301   3.375122   2.618275
    17  H    4.179404   3.065122   2.516021   2.583115   3.077612
    18  O    1.211001   3.286919   2.740992   2.650173   3.247603
                   11         12         13         14         15
    11  H    0.000000
    12  H    1.771733   0.000000
    13  H    1.775694   1.769364   0.000000
    14  H    7.176786   7.830813   6.794293   0.000000
    15  H    6.246265   6.623877   5.513379   1.781955   0.000000
    16  H    7.005614   7.292867   6.537847   1.782117   1.769192
    17  H    2.542973   2.496108   3.080123   6.248268   5.393850
    18  O    5.452591   6.430687   5.652159   2.505641   3.082588
                   16         17         18
    16  H    0.000000
    17  H    5.552882   0.000000
    18  O    3.079717   4.618674   0.000000
 Stoichiometry    C6H11O(2)
 Framework group  C1[X(C6H11O)]
 Deg. of freedom    48
 Full point group                 C1      NOp   1
 Largest Abelian subgroup         C1      NOp   1
 Largest concise Abelian subgroup C1      NOp   1
                         Standard orientation:                         
 ---------------------------------------------------------------------
 Center     Atomic      Atomic             Coordinates (Angstroms)
 Number     Number       Type             X           Y           Z
 ---------------------------------------------------------------------
      1          6           0        0.820648    0.144817   -0.167805
      2          6           0       -0.371648   -0.255034    0.708796
      3          6           0        3.358749   -0.058946   -0.424978
      4          6           0       -2.639752   -0.911805   -0.355257
      5          6           0        2.141067   -0.258831    0.444454
      6          6           0       -1.673768    0.159260    0.067437
      7          1           0        0.720833   -0.323248   -1.154200
      8          1           0        0.812876    1.232223   -0.307859
      9          1           0       -0.298288    0.239465    1.681802
     10          1           0       -0.352214   -1.336322    0.877770
     11          1           0        3.500072    1.010150   -0.618640
     12          1           0        4.260814   -0.438571    0.060710
     13          1           0        3.247492   -0.572309   -1.383569
     14          1           0       -3.521544   -0.461930   -0.808772
     15          1           0       -2.163470   -1.584292   -1.075794
     16          1           0       -2.939258   -1.506699    0.512341
     17          1           0        2.272762    0.167566    1.443028
     18          8           0       -1.918981    1.332150   -0.107838
 ---------------------------------------------------------------------
 Rotational constants (GHZ):      6.7866323      1.0656695      1.0101089
 Standard basis: 6-311+G(2df,2p) (5D, 7F)
 There are   337 symmetry adapted basis functions of A   symmetry.
 Integral buffers will be    131072 words long.
 Raffenetti 2 integral format.
 Two-electron integral symmetry is turned on.
   337 basis functions,   485 primitive gaussians,   372 cartesian basis functions
    28 alpha electrons       27 beta electrons
       nuclear repulsion energy       290.0284649315 Hartrees.
 NAtoms=   18 NActive=   18 NUniq=   18 SFac= 1.00D+00 NAtFMM=   50 NAOKFM=F Big=F
 One-electron integrals computed using PRISM.
 NBasis=   337 RedAO= T  NBF=   337
 NBsUse=   337 1.00D-06 NBFU=   337
 Initial guess read from the read-write file.
 B after Tr=     0.000000    0.000000    0.000000
         Rot=    1.000000    0.000000    0.000000    0.000000 Ang=   0.00 deg.
 Initial guess orbital symmetries:
 Alpha Orbitals:
       Occupied  (A) (A) (A) (A) (A) (A) (A) (A) (A) (A) (A) (A)
                 (A) (A) (A) (A) (A) (A) (A) (A) (A) (A) (A) (A)
                 (A) (A) (A) (A)
       Virtual   (A) (A) (A) (A) (A) (A) (A) (A) (A) (A) (A) (A)
                 (A) (A) (A) (A) (A) (A) (A) (A) (A) (A) (A) (A)
                 (A) (A) (A) (A) (A) (A) (A) (A) (A) (A) (A) (A)
                 (A) (A) (A) (A) (A) (A) (A) (A) (A) (A) (A) (A)
                 (A) (A) (A) (A) (A) (A) (A) (A) (A) (A) (A) (A)
                 (A) (A) (A) (A) (A) (A) (A) (A) (A) (A) (A) (A)
                 (A) (A) (A) (A) (A) (A) (A) (A) (A) (A) (A) (A)
                 (A) (A) (A) (A) (A) (A) (A) (A) (A) (A) (A) (A)
                 (A) (A) (A) (A) (A) (A) (A) (A) (A) (A) (A) (A)
                 (A) (A) (A) (A) (A) (A) (A) (A) (A) (A) (A) (A)
                 (A) (A) (A) (A) (A) (A) (A) (A) (A) (A) (A) (A)
                 (A) (A) (A) (A) (A) (A) (A) (A) (A) (A) (A) (A)
                 (A) (A) (A) (A) (A) (A) (A) (A) (A) (A) (A) (A)
                 (A) (A) (A) (A) (A) (A) (A) (A) (A) (A) (A) (A)
                 (A) (A) (A) (A) (A) (A) (A) (A) (A) (A) (A) (A)
                 (A) (A) (A) (A) (A) (A) (A) (A) (A) (A) (A) (A)
                 (A) (A) (A) (A) (A) (A) (A) (A) (A) (A) (A) (A)
                 (A) (A) (A) (A) (A) (A) (A) (A) (A) (A) (A) (A)
                 (A) (A) (A) (A) (A) (A) (A) (A) (A) (A) (A) (A)
                 (A) (A) (A) (A) (A) (A) (A) (A) (A) (A) (A) (A)
                 (A) (A) (A) (A) (A) (A) (A) (A) (A) (A) (A) (A)
                 (A) (A) (A) (A) (A) (A) (A) (A) (A) (A) (A) (A)
                 (A) (A) (A) (A) (A) (A) (A) (A) (A) (A) (A) (A)
                 (A) (A) (A) (A) (A) (A) (A) (A) (A) (A) (A) (A)
                 (A) (A) (A) (A) (A) (A) (A) (A) (A) (A) (A) (A)
                 (A) (A) (A) (A) (A) (A) (A) (A) (A)
 Beta  Orbitals:
       Occupied  (A) (A) (A) (A) (A) (A) (A) (A) (A) (A) (A) (A)
                 (A) (A) (A) (A) (A) (A) (A) (A) (A) (A) (A) (A)
                 (A) (A) (A)
       Virtual   (A) (A) (A) (A) (A) (A) (A) (A) (A) (A) (A) (A)
                 (A) (A) (A) (A) (A) (A) (A) (A) (A) (A) (A) (A)
                 (A) (A) (A) (A) (A) (A) (A) (A) (A) (A) (A) (A)
                 (A) (A) (A) (A) (A) (A) (A) (A) (A) (A) (A) (A)
                 (A) (A) (A) (A) (A) (A) (A) (A) (A) (A) (A) (A)
                 (A) (A) (A) (A) (A) (A) (A) (A) (A) (A) (A) (A)
                 (A) (A) (A) (A) (A) (A) (A) (A) (A) (A) (A) (A)
                 (A) (A) (A) (A) (A) (A) (A) (A) (A) (A) (A) (A)
[...]
 0.1165907,0.1816307,-0.0192046,-0.001844,0.0104874,-0.0711516,-0.20602
 46,-0.0448561,-0.2010499,-0.0844717,1.1773544,0.0597614,0.085994,0.106
 4191,0.2924755,-0.3984769,0.0048322,-0.4054828,0.9696083,0.0078743,0.0
 128968,-0.0044608,0.011647,-0.0886022,0.0423104,-0.0301221,0.0245154,0
 .0454389,-0.0061009,0.0016761,0.0078042,0.010253,0.0312823,-0.0670123,
 0.0029153,-0.0529648,-0.0811211,0.0128472,0.0154002,0.0088379,0.045104
 9,-0.0731276,0.050722,-0.0382846,0.0126993,0.061666,0.021586,-0.016264
 2,0.0054989,0.0009253,0.0400917,-0.0762739,-0.0560425,-0.0476916,-0.05
 25302,-0.0039154,0.0068579,-0.0213168,-0.012018,0.0274987,-0.0854745,-
 0.0929521,-0.0694548,-0.0857502,-0.0920592,-0.0179318,0.0523675,-0.020
 7471,0.0666808,0.0321454,0.0977517,0.0283358,-0.0037946,0.0350327,-0.0
 273485,-0.0039005,0.040009,-0.1089394,0.0465911,-0.014331,0.0327197,0.
 0602559,-0.050187,-0.0152544,0.0103521,-0.0385216,0.0680147,0.0249399,
 0.059088,0.0289852,0.0318461,0.0502809,0.0366197,0.0217135,0.0023954,0
 .0496496,-0.0753693,0.010075,-0.0526902,-0.0174091,0.0539886,-0.026392
 1,-0.0208641,0.0045974,-0.0556722,0.034326,-0.000094,0.0109708,0.08275
 99,-0.0400111,0.0314489,-0.0251656,0.0132054,-0.008657,0.1273629,-0.00
 02618,0.1113627,0.0377512,-0.7021786,-0.0322648,-0.0026271,-0.0530268,
 -0.4502628,0.2989902,0.0202776,0.3013456,-0.9440108\Polar=91.3907798,0
 .757648,62.2253771,2.5043421,-5.5896765,71.5245257\PG=C01 [X(C6H11O1)]
 \NImag=0\\0.49074173,-0.00325394,0.54721078,-0.00227938,-0.01252262,0.
 50871212,-0.15310104,0.01816728,-0.05672501,0.48463191,0.01959331,-0.0
 8590261,0.01619447,-0.01190818,0.53792959,-0.05624088,0.01650682,-0.11
 938918,0.01680732,0.00469226,0.54227297,-0.02354019,0.00510473,-0.0116
 5135,-0.00233512,-0.00126868,0.00294623,0.52291928,-0.00646263,0.00284
 390,-0.00508199,-0.00166845,-0.00056867,0.00155803,0.01737114,0.527914
 54,0.01510807,-0.00511656,0.01087673,0.00224927,0.00157218,-0.00213784
 ,-0.04197668,-0.02375435,0.51656520,-0.00166234,-0.00208207,0.00357037
 ,-0.02356257,0.00274029,-0.01413744,-0.00031056,-0.00025513,0.00036691
 ,0.52226503,-0.00153396,0.00000400,0.00193908,-0.00890712,0.01731414,0
 .00000144,-0.00018055,-0.00016665,0.00014215,0.02779712,0.53834475,0.0
 0276397,0.00211477,-0.00225380,0.01086316,0.00201691,0.01551230,0.0002
 8604,0.00010677,-0.00031985,-0.06229207,-0.01508063,0.55139462,-0.1875
 0452,-0.03271327,0.05696064,-0.03283953,-0.00741574,0.01239660,-0.2083
 5967,0.03535906,-0.04769386,-0.00084368,-0.00045117,0.00075117,0.52343
 483,-0.03793003,-0.07943837,0.04246580,0.00636058,0.00192518,-0.005212
 85,0.03835370,-0.07655185,0.03645831,0.00068376,0.00037940,-0.00053369
 ,-0.01325541,0.34550914,0.05828967,0.04000808,-0.10134633,-0.01499756,
 -0.00652409,0.00992388,-0.04793606,0.03467282,-0.08935725,-0.00120669,
 -0.00061806,0.00101256,0.00066270,-0.26120249,0.37171705,-0.03188658,-
 0.00786065,0.00992315,-0.17690014,-0.01858885,0.02269408,-0.00043811,-
 0.00054841,0.00070424,-0.18490432,0.00597234,-0.03189557,-0.00250773,0
 .00174928,-0.00278940,0.51242091,0.00302700,0.00294378,-0.00609702,-0.
 01889123,-0.09270180,0.00092795,0.00067245,0.00057656,-0.00033367,0.00
 673263,-0.08797718,-0.00038310,0.00153035,-0.00079635,0.00267394,0.017
 37216,0.38553512,-0.01111624,-0.00891360,0.01457440,0.02319390,0.00130
 554,-0.08942041,-0.00138562,-0.00031372,0.00134056,-0.03394432,-0.0005
 3321,-0.09453099,-0.00395550,0.00286754,-0.00541430,0.01466257,-0.2876
 6191,0.86429371,-0.04789543,0.00765821,-0.00546666,-0.00318204,0.02784
 152,-0.00458588,0.00146231,-0.00116201,-0.00021433,-0.00005850,-0.0000
 7647,0.00011917,0.00037221,-0.02564714,0.00907008,0.00081591,0.0018315
 7,-0.00186066,0.05464652,0.01384820,-0.29125394,0.04631027,0.00193013,
 -0.00451155,0.00095407,0.00056493,0.00081052,-0.00009342,0.00016704,-0
 .00004563,-0.00032068,-0.00258224,-0.00736520,0.00584184,-0.00065407,-
 0.00077411,0.00173963,-0.01203390,0.31782308,-0.00608006,0.04726896,-0
 .05071249,-0.00179267,0.01832766,-0.00438666,-0.00076979,-0.00048949,0
 .00008271,-0.00003947,0.00008706,-0.00008139,0.00277691,0.01704658,-0.
 00744364,0.00064234,-0.00019819,0.00031149,0.00343366,-0.05430046,0.05
 997318,-0.04515718,0.01512053,0.02230717,0.00022152,-0.01322111,-0.026
 05601,0.00171556,-0.00028557,-0.00082657,0.00000333,0.00000557,0.00004
 520,-0.00689893,0.00809064,0.02574704,0.00095794,0.00005514,-0.0018791
 9,0.00066295,0.00121244,0.00173079,0.05413280,0.00784604,-0.09293450,-
 0.09654854,-0.00012452,0.00285408,0.00720489,0.00061092,0.00041267,0.0
 0004951,-0.00007123,-0.00018020,0.00022561,-0.00076043,0.00597287,0.01
 044501,0.00007305,0.00060831,-0.00167529,0.00265651,-0.01746284,-0.029
 11732,-0.01112157,0.10103062,0.01027340,-0.10294357,-0.23542598,-0.001
 40001,-0.00835932,-0.01700808,-0.00033660,0.00041363,0.00043836,-0.000
 11857,-0.00021659,0.00006096,0.00989522,-0.00067126,-0.01527487,0.0010
 9773,0.00066993,-0.00132739,-0.00049721,0.00145212,0.00374329,-0.01950
 377,0.10801803,0.26396582,-0.00345203,0.02819135,-0.00518576,-0.048276
 27,0.01205328,-0.00346734,-0.00021262,-0.00002934,0.00020108,-0.000600
 82,0.00313151,-0.00006412,0.00192103,0.00105402,-0.00105383,0.00616206
 ,-0.02936924,0.00201728,-0.00479391,0.00029831,-0.00287962,0.00127655,
 -0.00069187,0.00055601,0.05343380,0.00109758,-0.00490801,0.00144104,0.
 01614570,-0.29221677,0.04673200,0.00012358,0.00034332,-0.00018367,0.00
 030055,0.00014993,0.00018994,-0.00063196,0.00026335,-0.00002986,0.0019
 2564,-0.01071385,0.00245013,0.00065455,0.00126629,0.00077531,0.0001311
 6,0.00057727,0.00027014,-0.01851957,0.31889850,-0.00177878,0.01816271,
 -0.00403954,-0.00420607,0.04962164,-0.04898632,-0.00004435,-0.00003306
 ,-0.00006568,-0.00037043,-0.00114568,-0.00050354,0.00101662,-0.0005310
 0,0.00019060,-0.00120499,0.01804456,-0.00572897,-0.00291810,0.00072634
 ,-0.00144383,0.00066555,0.00023272,0.00029624,0.00483419,-0.05376790,0
 .05653579,0.00002653,-0.01347999,-0.02551503,-0.04930484,0.00899528,0.
 01465210,-0.00013811,-0.00001034,0.00008000,-0.00011915,-0.00190435,-0
 .00236136,0.00191244,0.00061113,-0.00051646,0.00257972,0.01701366,0.02
 449724,0.00122831,0.00013091,0.00090302,-0.00504412,0.00116120,-0.0026
 0073,-0.00030318,0.00038934,0.00071362,0.05357494,-0.00061737,0.003387
 97,0.00681488,0.00685632,-0.09530924,-0.10574110,-0.00009785,-0.000116
 44,0.00014622,0.00022040,-0.00092590,-0.00072712,-0.00025271,0.0002394
 1,-0.00037450,-0.00069776,0.00459388,0.01106163,-0.00052431,0.00052187
 ,0.00022383,0.00110690,0.00076708,0.00130787,0.00312926,-0.01556646,-0
 .02951905,-0.00720759,0.10490028,-0.00024009,-0.00710904,-0.01465579,0
 .01171191,-0.10894125,-0.25040964,-0.00007109,0.00002994,0.00015109,-0
 .00060175,0.00053776,0.00013431,0.00109529,0.00019018,0.00053219,0.000
 19973,-0.00663788,-0.01690991,0.00035726,0.00027566,0.00020771,-0.0028
 5447,0.00115040,-0.00107828,-0.00055889,0.00251244,0.00530174,-0.01168
 928,0.11578185,0.27516995,0.00182737,0.00046484,0.00032233,-0.00022769
 ,0.00022493,0.00030415,-0.05243527,-0.02682394,-0.04239535,-0.00003130
 ,-0.00002549,-0.00001648,-0.01081186,-0.00982217,-0.02649968,0.0001370
 3,0.00011470,-0.00002093,-0.00020284,-0.00004534,-0.00010456,-0.000771
 73,0.00013530,0.00090104,0.00006798,-0.00000745,-0.00002757,0.00015464
 ,0.00001485,0.00011755,0.05839331,-0.00046808,0.00039927,0.00020049,-0
 .00010373,-0.00000297,0.00007393,-0.02065470,-0.09945877,-0.10070494,-
 0.00000446,-0.00000293,0.00001693,0.00085592,0.00611120,0.00932436,-0.
 00000395,0.00001762,-0.00012876,0.00016491,-0.00013188,-0.00022461,-0.
 00019066,-0.00010669,-0.00027788,0.00000358,-0.00000327,0.00002472,0.0
 0002071,-0.00002213,0.00001136,0.02385913,0.10815005,0.00039607,0.0004
 7626,0.00021319,-0.00023238,0.00003915,0.00035011,-0.03311807,-0.10574
 107,-0.22557251,-0.00007392,-0.00002644,0.00001254,-0.01035199,0.00008
 269,-0.01108453,0.00018691,0.00011625,-0.00013198,-0.00006003,-0.00012
 425,0.00000899,-0.00085182,-0.00032112,0.00025868,0.00003704,0.0000053
 1,-0.00002702,0.00014939,0.00001071,0.00001555,0.04713690,0.11383711,0
 .24917802,-0.00317413,0.00303428,-0.00348263,-0.00084184,-0.00061088,0
 .00129253,-0.19146876,-0.04176098,0.12771842,-0.00022094,-0.00008208,0
 .00013051,-0.02232674,-0.00894058,0.01871866,-0.00002356,0.00027621,-0
 .00062162,0.00028073,0.00007288,-0.00023064,0.00008895,0.00010994,0.00
 013380,-0.00005309,0.00008144,-0.00000148,-0.00001712,-0.00005787,-0.0
 0006632,0.00483593,0.00192863,-0.00372465,0.21060423,0.00085581,0.0000
 6967,0.00118382,0.00028327,0.00059785,-0.00014390,-0.04197724,-0.06128
 141,0.03932056,0.00003594,0.00001231,-0.00003647,0.00617257,0.00165888
 ,-0.00709469,0.00008369,-0.00007161,0.00015248,0.00028224,0.00043639,-
 0.00014349,-0.00029741,-0.00006513,0.00022020,-0.00008082,-0.00002026,
 -0.00005251,0.00002616,-0.00000204,0.00001255,0.01225521,0.00315138,-0
 .01062649,0.04619428,0.05996198,-0.00205906,0.00081566,-0.00065903,-0.
 00051291,-0.00008636,0.00039233,0.12952930,0.03933915,-0.15741951,-0.0
 0003642,-0.00002507,0.00004110,-0.01212483,-0.00464715,0.00937330,-0.0
 0016869,0.00006953,-0.00017583,0.00003737,-0.00005692,-0.00012801,-0.0
 0026007,0.00005787,0.00013702,0.00000631,0.00000880,0.00001470,0.00004
 772,-0.00002952,0.00001265,0.02019234,0.00685421,-0.01805322,-0.137791
 68,-0.04238339,0.16985297,0.00178129,0.00120924,0.00015321,-0.00008960
 ,-0.00017057,-0.00014142,-0.04795231,0.00609419,0.00236676,0.00002192,
 0.00002729,0.00000185,-0.00136367,0.02842953,-0.01002025,0.00009917,-0
 .00001200,-0.00008315,-0.00021569,-0.00082204,0.00026206,-0.00021893,-
 0.00017951,0.00003204,0.00011426,-0.00016990,0.00008446,0.00005174,0.0
 0004920,-0.00000761,0.00008470,-0.00569585,0.00162639,0.00098890,-0.02
 351433,0.00247487,0.05067444,-0.00074810,0.00078788,0.00003157,0.00002
 784,0.00050778,-0.00016397,0.00279018,-0.29431123,0.05013139,0.0000292
 9,0.00000148,-0.00002159,0.00324239,-0.00644898,0.00546285,-0.00006930
 ,-0.00008137,0.00012926,0.00084445,0.00020733,-0.00029932,0.00007447,-
 0.00015341,-0.00007172,-0.00021619,0.00000473,-0.00005573,-0.00003932,
 -0.00002460,0.00000225,-0.00052908,-0.01693922,0.00231265,-0.00014657,
 -0.00457307,0.00028906,-0.00651816,0.32138917,0.00068160,-0.00055769,-
 0.00011015,0.00008587,-0.00012202,-0.00005288,0.00327148,0.05038084,-0
 .05194228,-0.00001289,0.00001396,0.00000103,-0.00378423,0.01411406,-0.
 00633624,0.00006407,-0.00003672,0.00001581,-0.00019066,-0.00025691,0.0
 0042139,0.00011384,-0.00017843,0.00000972,0.00008768,-0.00003502,-0.00
 000775,-0.00003061,0.00004451,-0.00003351,0.00014266,-0.02848121,0.004
 86186,-0.00181523,0.02039196,-0.00403509,0.00404286,-0.05620465,0.0571
 4862,-0.00077740,-0.00081520,0.00132556,-0.00333866,0.00182487,-0.0047
 6851,-0.00012689,-0.00009975,0.00015228,-0.21649519,-0.06770585,0.1171
 7717,-0.00029343,0.00029083,-0.00049790,-0.02502414,-0.01081953,0.0192
 2499,-0.00005860,0.00007109,0.00000663,-0.00004137,-0.00005415,-0.0000
 6316,0.00034439,-0.00011107,-0.00010624,0.00040602,0.00020074,-0.00004
 235,-0.00000991,-0.00000412,-0.00002438,-0.00008182,0.00001564,-0.0000
 1789,0.00000721,0.00001162,-0.00000197,0.23455363,0.00024849,0.0005881
 2,0.00006089,0.00066231,0.00049317,0.00071926,0.00001599,0.00000255,-0
 .00002129,-0.06962563,-0.07652727,0.04774661,0.00004919,-0.00002330,0.
 00006421,0.00480506,0.00062365,-0.00356245,-0.00008838,0.00001712,-0.0
 0006724,0.00003142,-0.00000936,0.00003347,0.00025494,0.00042631,-0.000
 16629,-0.00014520,-0.00001136,0.00042104,-0.00000427,-0.00000015,-0.00
 000267,0.00000704,-0.00000528,0.00000175,0.00000010,-0.00000229,0.0000
 0002,0.07440889,0.07684217,-0.00080847,-0.00018719,0.00073415,-0.00226
 867,0.00099545,-0.00189066,-0.00006852,-0.00003846,0.00006391,0.121311
 54,0.04812909,-0.13084849,-0.00017898,0.00013688,-0.00021558,-0.015219
 76,-0.00648519,0.00993570,0.00001170,0.00001920,0.00001507,0.00009277,
 -0.00004168,0.00005019,0.00005660,0.00007285,-0.00019373,-0.00014410,0
 .00015890,0.00022427,-0.00000068,-0.00000159,-0.00000374,-0.00003193,0
 .00000668,-0.00001067,0.00000441,0.00000086,0.00000080,-0.12789629,-0.
 05227020,0.13687526,0.00007450,0.00036446,0.00006656,-0.00031980,0.001
 91764,0.00250872,0.00000850,-0.00000174,-0.00002868,-0.04938067,0.0003
 4430,0.00664216,0.00001750,-0.00000874,0.00008130,0.00636328,-0.017918
 44,-0.02397553,0.00003517,-0.00006551,-0.00001473,0.00009769,0.0000241
 2,0.00005297,0.00027100,0.00009773,-0.00025634,-0.00171211,-0.00030726
 ,0.00001273,-0.00000157,0.00000420,0.00000395,0.00000918,-0.00000453,0
 .00000100,0.00000196,-0.00000513,-0.00000179,0.00099093,0.01436368,0.0
 2063924,0.04804302,-0.00016516,0.00003039,0.00015468,-0.00006869,-0.00
 070312,-0.00043880,-0.00000797,0.00000027,0.00000483,0.00244932,-0.105
 64174,-0.11637473,-0.00002542,0.00002530,-0.00001655,-0.00025335,0.002
 46805,0.00710062,0.00000635,-0.00000901,0.00001282,0.00005746,-0.00002
 367,0.00006507,-0.00015495,-0.00000525,-0.00017815,-0.00000618,0.00051
 445,0.00010183,0.00000463,-0.00000127,0.00000381,-0.00000256,0.0000002
 6,-0.00000105,0.00000306,-0.00000320,0.00000258,0.00112921,0.00546678,
 0.01003080,-0.00493195,0.11507940,-0.00014949,0.00039051,0.00027172,0.
 00044304,0.00080036,0.00007928,-0.00000253,-0.00000517,-0.00000860,0.0
 0923339,-0.11951636,-0.25045582,-0.00002743,-0.00000947,0.00004325,0.0
 0286097,-0.00733540,-0.01665932,-0.00000430,-0.00004320,-0.00005894,0.
 00017479,0.00002021,0.00006585,0.00022685,0.00015716,-0.00001337,-0.00
 008133,0.00003114,0.00092717,0.00000024,0.00000266,0.00000172,0.000003
 11,-0.00000273,-0.00000040,0.00000131,-0.00000107,-0.00000253,-0.00119
 621,-0.00805719,-0.01249697,-0.00747847,0.12780372,0.27153881,0.000118
 54,-0.00028401,-0.00017961,0.00011896,-0.00303875,0.00008161,0.0000111
 1,0.00002070,-0.00001438,-0.05144113,0.02682720,-0.00279662,0.00002511
 ,-0.00003952,0.00005587,0.00242920,0.03029994,-0.00172243,0.00011463,-
 0.00003798,0.00002858,0.00004166,0.00005998,0.00004669,-0.00168886,-0.
 00015035,0.00010572,0.00022512,0.00016429,-0.00019327,0.00000530,0.000
 00313,0.00000662,0.00000902,0.00000051,0.00000264,-0.00000034,-0.00000
 424,-0.00000102,0.00434833,-0.02492967,0.00302236,-0.00067629,0.000201
 80,0.00020038,0.04966205,0.00018729,0.00043562,0.00004120,-0.00027084,
 -0.00053820,0.00016205,0.00000468,0.00000033,-0.00000452,0.02388809,-0
 .29901194,0.05485683,0.00002791,-0.00000131,-0.00000024,-0.00065641,-0
 .00446463,0.00184956,-0.00015479,0.00003722,-0.00006080,0.00000300,-0.
 00004247,-0.00000618,-0.00025812,0.00079223,-0.00015850,-0.00001378,-0
 .00001587,0.00014796,-0.00000401,-0.00000078,-0.00000268,-0.00000003,-
 0.00000237,-0.00000016,-0.00000385,0.00000127,-0.00000142,0.00136219,-
 0.00717117,0.00041292,0.00152306,-0.01530660,0.00384573,-0.02710313,0.
 32485625,0.00005238,-0.00023710,-0.00015747,0.00051203,-0.00103306,-0.
 00044997,0.00000885,0.00001426,-0.00000256,-0.00315148,0.05796389,-0.0
 5107859,0.00000991,-0.00003937,0.00004055,0.00031159,0.01879611,-0.005
 72435,0.00008319,-0.00000417,-0.00001900,-0.00001171,0.00005282,-0.000
 01439,-0.00018574,-0.00020451,0.00060997,0.00025244,-0.00010529,-0.000
 01516,-0.00000027,0.00000164,-0.00000145,0.00000469,0.00000048,0.00000
 149,-0.00000327,0.00000141,-0.00000367,-0.00376825,0.01604235,-0.00330
 965,0.00359495,-0.02905271,0.00694196,0.00628164,-0.06044498,0.0563196
 4,0.00277873,-0.01844150,0.01415907,0.00222747,-0.00111459,0.00098250,
 0.00103386,0.02031198,-0.01573506,0.00000108,-0.00000060,-0.00006738,-
 0.05508565,0.01083095,-0.00849071,-0.00000657,-0.00015321,0.00059539,-
 0.00335482,-0.00113003,0.00235713,-0.00071761,-0.00029453,0.00078104,-
 0.00029514,0.00054194,0.00010269,-0.00003780,-0.00019769,-0.00026180,-
 0.00090352,0.00026689,-0.00095410,0.00152605,-0.00032554,0.00064863,-0
 .00397849,0.00119310,-0.00259518,0.00000780,0.00000523,0.00000032,-0.0
 0001540,-0.00000703,-0.00001275,-0.00002339,0.00002064,-0.00000559,0.0
 5740676,0.00209324,-0.00201405,0.00341985,0.00124275,0.00057564,-0.000
 00281,-0.00135877,-0.00035056,0.00239197,-0.00002161,-0.00001984,0.000
 02118,0.01115303,-0.19190881,0.16779884,-0.00028339,-0.00011282,0.0002
 3355,-0.00135739,-0.00053568,0.00132316,-0.00030735,-0.00112693,0.0000
 4503,-0.00052872,0.00014088,-0.00004383,-0.00044589,-0.00028664,-0.000
 16434,0.00025439,-0.00115186,0.00003566,-0.00002679,0.00009320,-0.0001
 9902,0.00136965,-0.00045521,0.00092973,-0.00001454,0.00000208,-0.00001
 890,-0.00001371,-0.00001442,-0.00000966,-0.00000517,0.00000908,0.00000
 835,-0.01174680,0.19693190,-0.00202355,0.01212709,-0.00444475,-0.00118
 995,-0.00073665,0.00065451,0.00114247,0.00902722,-0.00254076,0.0000194
 0,0.00006651,0.00002075,-0.00811518,0.15971963,-0.15782749,0.00023637,
 -0.00005334,-0.00043083,0.00142147,-0.00114205,-0.00061445,0.00012919,
 -0.00048614,-0.00029798,0.00069497,-0.00019911,0.00028403,0.00019946,-
 0.00001593,0.00004973,-0.00018035,-0.00059668,-0.00015468,-0.00037046,
 -0.00078006,0.00062489,-0.00091168,-0.00143458,0.00005885,0.00001016,-
 0.00000016,0.00000267,-0.00000079,-0.00000729,0.00000084,-0.00000407,-
 0.00000314,0.00000248,0.00891148,-0.17530622,0.16426317,0.00080215,-0.
 00038430,0.00169736,0.00711929,-0.01785377,0.03473164,0.00016697,-0.00
 004878,-0.00006214,0.00733979,0.01676233,-0.03928678,0.00115228,-0.000
 81083,0.00138324,-0.11027407,-0.00176216,-0.00362617,0.00014309,-0.000
 92480,-0.00022960,-0.00034907,0.00062074,0.00075008,-0.00391516,-0.001
 89893,0.00339151,-0.00348303,-0.00178153,0.00309246,-0.00011058,0.0000
 1845,-0.00015194,-0.00013501,-0.00000547,0.00003137,-0.00000655,0.0000
 6275,-0.00005648,0.00558909,-0.00005918,0.00147845,-0.00380688,0.00177
 142,-0.00419157,-0.00327902,0.00144808,-0.00398533,-0.00056337,-0.0000
 0292,0.00003104,0.10361009,0.00238232,-0.00224991,-0.00000787,-0.00973
 343,0.01025750,0.03217073,-0.00006652,-0.00009908,-0.00000469,0.007015
 69,0.01429328,0.02618247,-0.00030208,0.00044945,-0.00043147,-0.0023650
 8,-0.19967325,0.27389900,-0.00089592,0.00097001,-0.00016445,-0.0004650
 7,-0.00011768,0.00005104,0.00173258,0.00057107,-0.00116099,-0.00509575
 ,-0.00264425,0.00167728,-0.00006624,-0.00000759,-0.00007489,-0.0000763
 6,0.00003925,-0.00000740,-0.00009604,0.00009295,-0.00000359,0.00030912
 ,-0.00071178,-0.00092044,0.00461782,-0.00187662,0.00192875,-0.00198475
 ,0.00042334,-0.00176014,0.00024080,0.00022402,-0.00017908,0.00484891,0
 .18005929,-0.00478916,-0.00028350,-0.00218780,0.01745874,0.03023714,-0
 .03505376,0.00017628,-0.00008535,-0.00015172,-0.01851616,0.02828109,-0
 .03811770,0.00066694,-0.00023438,0.00146686,-0.00230535,0.27392414,-0.
 65401738,0.00126391,-0.00097708,0.00012458,0.00123727,0.00091145,0.001
 40085,0.00467728,-0.00019505,-0.00222331,0.00144390,0.00093096,0.00037
 594,0.00012867,0.00006825,0.00012848,0.00013492,-0.00002497,0.00003131
 ,0.00011715,-0.00010868,0.00000602,0.00048636,-0.00094213,0.00106745,-
 0.00184725,0.00078852,-0.00017465,-0.00492070,-0.00063362,-0.00313983,
 -0.00041567,-0.00046254,0.00034902,0.00500286,-0.33119425,0.73011566\\
 0.00000047,-0.00000284,-0.00000144,-0.00000035,0.00000245,0.00000174,0
 .00000032,-0.00000351,-0.00000436,-0.00000057,0.00000433,0.00000375,-0
 .00000012,0.00000031,-0.00000052,0.00000024,-0.00000069,0.00000084,0.0
 0000015,-0.00000412,-0.00000753,0.00000194,-0.00000831,0.00000137,-0.0
 0000002,0.00000369,0.00000785,-0.00000183,0.00000791,-0.00000109,0.000
 00177,-0.00000893,-0.00000172,-0.00000039,-0.00000004,-0.00000404,0.,-
 0.00000475,-0.00001041,-0.00000005,0.00000154,0.00000289,-0.00000203,0
 .00000967,0.00000072,-0.00000025,0.00000568,0.00000984,-0.00000054,0.0
 0000441,0.00000413,0.00000127,-0.00000681,-0.00000203\\\@


    WHAT WE HAVE LEARNED
 IS LIKE A HANDFUL OF EARTH;
  WHAT WE HAVE YET TO LEARN
   IS LIKE THE WHOLE WORLD.

         -- AVVAYIAR
 Job cpu time:  0 days  6 hours 18 minutes 41.8 seconds.
 File lengths (MBytes):  RWF=   2640 Int=      0 D2E=      0 Chk=     32 Scr=     32
 Normal termination of Gaussian 09 at Mon Sep 25 00:15:36 2017.
